                               Psi4 1.4a3.dev225

  ==> Input File <==

--------------------------------------------------------------------------
#psi4
#
memory 32 gb

molecule  {
0 1
  S        1.2441830     0.0010390    -0.8590750
  F        1.5874080    -1.0933110     1.5061340
  F        3.3145200    -0.0009050     0.7339870
  F        1.5874370     1.0896860     1.5087600
  O        1.6200252    -1.3032016    -1.4598277
  O        1.6149580     1.2891350    -1.4486230
  C       -0.4817510     0.0005820    -0.4824320
  C       -1.1416100    -1.2204050    -0.3274150
  C       -1.1416150     1.2211910    -0.3244870
  C       -3.1954030    -0.0001810     0.1494170
  C        1.9826530    -0.0010090     0.8356960
  C       -2.4997500    -1.2060900    -0.0161970
  C       -2.4997550     1.2061250    -0.0133040
  C       -4.6532730    -0.0006360     0.5253300
  H       -0.6057720    -2.1536140    -0.4772800
  H       -0.6057800     2.1547590    -0.4721140
  H       -3.0298860    -2.1498930     0.0955450
  H       -3.0298940     2.1496560     0.1007020
  H       -5.1606490     0.8856040     0.1349280
  H       -5.1606620    -0.8858980     0.1327310
  H       -4.7748820    -0.0019860     1.6139510
units angstrom
no_reorient  #important for SAPT in psi4, default
symmetry c1  #important for SAPT in psi4, default
}

set PROPERTIES_ORIGIN ["COM"]
properties('MP2/aug-cc-pvtz', properties = ['dipole'])
--------------------------------------------------------------------------

    Molecular point group: c1
  Charge       = 0
  Multiplicity = 1
  Basis Set: AUG-CC-PVTZ
    Blend: AUG-CC-PVTZ
  Basis Set: (AUG-CC-PVTZ AUX)
    Blend: AUG-CC-PVTZ-JKFIT

    Orbital Energies [Eh]
    ---------------------

    Doubly Occupied:

       1A    -92.217401     2A    -26.372359     3A    -26.371924
       4A    -26.369376     5A    -20.575269     6A    -20.573365
       7A    -11.551433     8A    -11.294012     9A    -11.287964
      10A    -11.285251    11A    -11.284943    12A    -11.265525
      13A    -11.265392    14A    -11.252695    15A     -9.185905
      16A     -6.870762    17A     -6.870028    18A     -6.869608
      19A     -1.757463    20A     -1.665823    21A     -1.664829
      22A     -1.459870    23A     -1.352773    24A     -1.198474
      25A     -1.101328    26A     -1.054027    27A     -1.039945
      28A     -0.981333    29A     -0.918114    30A     -0.870152
      31A     -0.857184    32A     -0.851156    33A     -0.845532
      34A     -0.797309    35A     -0.742950    36A     -0.737140
      37A     -0.725616    38A     -0.695990    39A     -0.693714
      40A     -0.684041    41A     -0.678583    42A     -0.671124
      43A     -0.664855    44A     -0.644809    45A     -0.638161
      46A     -0.625562    47A     -0.605247    48A     -0.570173
      49A     -0.545420    50A     -0.532886    51A     -0.526539
      52A     -0.520605    53A     -0.513132    54A     -0.494877
      55A     -0.468078    56A     -0.374432    57A     -0.372666

  @DF-RHF Final Energy: -1152.82781663260630

   => Energetics <=

    Nuclear Repulsion Energy =           1101.5356442771762886
    One-Electron Energy =               -3778.9166756947620343
    Two-Electron Energy =                1524.5532147849794455
    Total Energy =                      -1152.8278166326063001
  Basis Set: (AUG-CC-PVTZ AUX)
    Blend: AUG-CC-PVTZ-RI
    Molecular point group: c1

    Geometry (in Angstrom), charge = 0, multiplicity = 1:

       Center              X                  Y                   Z               Mass
    ------------   -----------------  -----------------  -----------------  -----------------
         S            1.116058724676     0.002308113851    -0.870380267304    31.972071174400
         F            1.459283724676    -1.092041886149     1.494828732696    18.998403162730
         F            3.186395724676     0.000364113851     0.722681732696    18.998403162730
         F            1.459312724676     1.090955113851     1.497454732696    18.998403162730
         O            1.491900924676    -1.301932486149    -1.471132967304    15.994914619570
         O            1.486833724676     1.290404113851    -1.459928267304    15.994914619570
         C           -0.609875275324     0.001851113851    -0.493737267304    12.000000000000
         C           -1.269734275324    -1.219135886149    -0.338720267304    12.000000000000
         C           -1.269739275324     1.222460113851    -0.335792267304    12.000000000000
         C           -3.323527275324     0.001088113851     0.138111732696    12.000000000000
         C            1.854528724676     0.000260113851     0.824390732696    12.000000000000
         C           -2.627874275324    -1.204820886149    -0.027502267304    12.000000000000
         C           -2.627879275324     1.207394113851    -0.024609267304    12.000000000000
         C           -4.781397275324     0.000633113851     0.514024732696    12.000000000000
         H           -0.733896275324    -2.152344886149    -0.488585267304     1.007825032230
         H           -0.733904275324     2.156028113851    -0.483419267304     1.007825032230
         H           -3.158010275324    -2.148623886149     0.084239732696     1.007825032230
         H           -3.158018275324     2.150925113851     0.089396732696     1.007825032230
         H           -5.288773275324     0.886873113851     0.123622732696     1.007825032230
         H           -5.288786275324    -0.884628886149     0.121425732696     1.007825032230
         H           -4.903006275324    -0.000716886149     1.602645732696     1.007825032230

  Basis Set: AUG-CC-PVTZ
    Blend: AUG-CC-PVTZ
  Basis Set: (AUG-CC-PVTZ AUX)
    Blend: AUG-CC-PVTZ-JKFIT
	 Reference Energy          =   -1152.8278166326063001 [Eh]
	 Singles Energy            =      -0.0000000000000000 [Eh]
	 Same-Spin Energy          =      -0.7701247408119245 [Eh]
	 Opposite-Spin Energy      =      -2.2437748907276842 [Eh]
	 Correlation Energy        =      -3.0138996315396085 [Eh]
	 Total Energy              =   -1155.8417162641458162 [Eh]

	 ================> DF-SCS-MP2 Energies <==================
	-----------------------------------------------------------
	 SCS Same-Spin Scale       =       0.3333333333333333 [-]
	 SCS Opposite-Spin Scale   =       1.2000000000000000 [-]
	 SCS Same-Spin Energy      =      -0.2567082469373081 [Eh]
	 SCS Opposite-Spin Energy  =      -2.6925298688732209 [Eh]
	 SCS Correlation Energy    =      -2.9492381158105290 [Eh]
	 SCS Total Energy          =   -1155.7770547484167309 [Eh]
	-----------------------------------------------------------

  Dipole Moment: [D]
     X:    -5.4650      Y:     0.0749      Z:     2.1891     Total:     5.8876

*** Psi4 exiting successfully. Buy a developer a beer!
