                               Psi4 1.4a3.dev225

  ==> Input File <==

--------------------------------------------------------------------------
#psi4
#
memory 32 gb

molecule  {
0 1
  S        1.2441830     0.0010390    -0.8590750
  F        1.5874080    -1.0933110     1.5061340
  F        3.3145200    -0.0009050     0.7339870
  F        1.5874370     1.0896860     1.5087600
  O        1.6149610    -1.2856280    -1.4517330
  O        1.6149580     1.2891350    -1.4486230
  C       -0.4817510     0.0005820    -0.4824320
  C       -1.1416100    -1.2204050    -0.3274150
  C       -1.1416150     1.2211910    -0.3244870
  C       -3.1954030    -0.0001810     0.1494170
  C        1.9826530    -0.0010090     0.8356960
  C       -2.4594874    -1.1804048    -0.0268716
  C       -2.4997550     1.2061250    -0.0133040
  C       -4.6532730    -0.0006360     0.5253300
  H       -0.6057720    -2.1536140    -0.4772800
  H       -0.6057800     2.1547590    -0.4721140
  H       -3.0298860    -2.1498930     0.0955450
  H       -3.0298940     2.1496560     0.1007020
  H       -5.1606490     0.8856040     0.1349280
  H       -5.1606620    -0.8858980     0.1327310
  H       -4.7748820    -0.0019860     1.6139510
units angstrom
no_reorient  #important for SAPT in psi4, default
symmetry c1  #important for SAPT in psi4, default
}

set PROPERTIES_ORIGIN ["COM"]
properties('MP2/aug-cc-pvtz', properties = ['dipole'])
--------------------------------------------------------------------------

    Molecular point group: c1
  Charge       = 0
  Multiplicity = 1
  Basis Set: AUG-CC-PVTZ
    Blend: AUG-CC-PVTZ
  Basis Set: (AUG-CC-PVTZ AUX)
    Blend: AUG-CC-PVTZ-JKFIT

    Orbital Energies [Eh]
    ---------------------

    Doubly Occupied:

       1A    -92.215671     2A    -26.371348     3A    -26.371232
       4A    -26.368666     5A    -20.573786     6A    -20.573475
       7A    -11.549832     8A    -11.292581     9A    -11.288114
      10A    -11.284559    11A    -11.278892    12A    -11.264989
      13A    -11.264072    14A    -11.254178    15A     -9.184393
      16A     -6.869252    17A     -6.868519    18A     -6.868236
      19A     -1.756688    20A     -1.665024    21A     -1.664133
      22A     -1.465497    23A     -1.358078    24A     -1.202019
      25A     -1.100295    26A     -1.057947    27A     -1.039276
      28A     -0.982355    29A     -0.917486    30A     -0.866092
      31A     -0.858002    32A     -0.850380    33A     -0.845890
      34A     -0.796359    35A     -0.742951    36A     -0.736507
      37A     -0.726082    38A     -0.695627    39A     -0.693196
      40A     -0.686065    41A     -0.677906    42A     -0.670072
      43A     -0.665881    44A     -0.647430    45A     -0.634843
      46A     -0.623652    47A     -0.606114    48A     -0.570037
      49A     -0.550703    50A     -0.535651    51A     -0.523273
      52A     -0.518252    53A     -0.513949    54A     -0.496931
      55A     -0.467758    56A     -0.376922    57A     -0.372824

  @DF-RHF Final Energy: -1152.82748688320567

   => Energetics <=

    Nuclear Repulsion Energy =           1103.6089884638638523
    One-Electron Energy =               -3783.0730669182707970
    Two-Electron Energy =                1526.6365915712015067
    Total Energy =                      -1152.8274868832056654
  Basis Set: (AUG-CC-PVTZ AUX)
    Blend: AUG-CC-PVTZ-RI
    Molecular point group: c1

    Geometry (in Angstrom), charge = 0, multiplicity = 1:

       Center              X                  Y                   Z               Mass
    ------------   -----------------  -----------------  -----------------  -----------------
         S            1.114263508529    -0.000322597600    -0.870386422492    31.972071174400
         F            1.457488508529    -1.094672597600     1.494822577508    18.998403162730
         F            3.184600508529    -0.002266597600     0.722675577508    18.998403162730
         F            1.457517508529     1.088324402400     1.497448577508    18.998403162730
         O            1.485041508529    -1.286989597600    -1.463044422492    15.994914619570
         O            1.485038508529     1.287773402400    -1.459934422492    15.994914619570
         C           -0.611670491471    -0.000779597600    -0.493743422492    12.000000000000
         C           -1.271529491471    -1.221766597600    -0.338726422492    12.000000000000
         C           -1.271534491471     1.219829402400    -0.335798422492    12.000000000000
         C           -3.325322491471    -0.001542597600     0.138105577508    12.000000000000
         C            1.852733508529    -0.002370597600     0.824384577508    12.000000000000
         C           -2.589406891471    -1.181766397600    -0.038183022492    12.000000000000
         C           -2.629674491471     1.204763402400    -0.024615422492    12.000000000000
         C           -4.783192491471    -0.001997597600     0.514018577508    12.000000000000
         H           -0.735691491471    -2.154975597600    -0.488591422492     1.007825032230
         H           -0.735699491471     2.153397402400    -0.483425422492     1.007825032230
         H           -3.159805491471    -2.151254597600     0.084233577508     1.007825032230
         H           -3.159813491471     2.148294402400     0.089390577508     1.007825032230
         H           -5.290568491471     0.884242402400     0.123616577508     1.007825032230
         H           -5.290581491471    -0.887259597600     0.121419577508     1.007825032230
         H           -4.904801491471    -0.003347597600     1.602639577508     1.007825032230

  Basis Set: AUG-CC-PVTZ
    Blend: AUG-CC-PVTZ
  Basis Set: (AUG-CC-PVTZ AUX)
    Blend: AUG-CC-PVTZ-JKFIT
	 Reference Energy          =   -1152.8274868832056654 [Eh]
	 Singles Energy            =      -0.0000000000000000 [Eh]
	 Same-Spin Energy          =      -0.7698486461262770 [Eh]
	 Opposite-Spin Energy      =      -2.2427685123399255 [Eh]
	 Correlation Energy        =      -3.0126171584662025 [Eh]
	 Total Energy              =   -1155.8401040416717933 [Eh]

	 ================> DF-SCS-MP2 Energies <==================
	-----------------------------------------------------------
	 SCS Same-Spin Scale       =       0.3333333333333333 [-]
	 SCS Opposite-Spin Scale   =       1.2000000000000000 [-]
	 SCS Same-Spin Energy      =      -0.2566162153754257 [Eh]
	 SCS Opposite-Spin Energy  =      -2.6913222148079106 [Eh]
	 SCS Correlation Energy    =      -2.9479384301833362 [Eh]
	 SCS Total Energy          =   -1155.7754253133889506 [Eh]
	-----------------------------------------------------------

  Dipole Moment: [D]
     X:    -5.4405      Y:     0.0369      Z:     2.1399     Total:     5.8463

*** Psi4 exiting successfully. Buy a developer a beer!
