                               Psi4 1.4a3.dev225

  ==> Input File <==

--------------------------------------------------------------------------
#psi4
#
memory 32 gb

molecule  {
0 1
  S        1.2441830     0.0010390    -0.8590750
  F        1.5874080    -1.0933110     1.5061340
  F        3.3145200    -0.0009050     0.7339870
  F        1.5874370     1.0896860     1.5087600
  O        1.6149610    -1.2856280    -1.4517330
  O        1.6149580     1.2891350    -1.4486230
  C       -0.4817510     0.0005820    -0.4824320
  C       -1.1416100    -1.2204050    -0.3274150
  C       -1.1438401     1.1239606    -0.3237070
  C       -3.1954030    -0.0001810     0.1494170
  C        1.9826530    -0.0010090     0.8356960
  C       -2.4997500    -1.2060900    -0.0161970
  C       -2.4997550     1.2061250    -0.0133040
  C       -4.6532730    -0.0006360     0.5253300
  H       -0.6057720    -2.1536140    -0.4772800
  H       -0.6057800     2.1547590    -0.4721140
  H       -3.0298860    -2.1498930     0.0955450
  H       -3.0298940     2.1496560     0.1007020
  H       -5.1606490     0.8856040     0.1349280
  H       -5.1606620    -0.8858980     0.1327310
  H       -4.7748820    -0.0019860     1.6139510
units angstrom
no_reorient  #important for SAPT in psi4, default
symmetry c1  #important for SAPT in psi4, default
}

set PROPERTIES_ORIGIN ["COM"]
properties('MP2/aug-cc-pvtz', properties = ['dipole'])
--------------------------------------------------------------------------

    Molecular point group: c1
  Charge       = 0
  Multiplicity = 1
  Basis Set: AUG-CC-PVTZ
    Blend: AUG-CC-PVTZ
  Basis Set: (AUG-CC-PVTZ AUX)
    Blend: AUG-CC-PVTZ-JKFIT

    Orbital Energies [Eh]
    ---------------------

    Doubly Occupied:

       1A    -92.218190     2A    -26.372639     3A    -26.372296
       4A    -26.370064     5A    -20.576044     6A    -20.575022
       7A    -11.551597     8A    -11.285520     9A    -11.285433
      10A    -11.282615    11A    -11.280265    12A    -11.263731
      13A    -11.263608    14A    -11.251230    15A     -9.186901
      16A     -6.871767    17A     -6.871055    18A     -6.870712
      19A     -1.757933    20A     -1.666181    21A     -1.665389
      22A     -1.467363    23A     -1.359735    24A     -1.207572
      25A     -1.106149    26A     -1.050643    27A     -1.040830
      28A     -0.982441    29A     -0.920003    30A     -0.872243
      31A     -0.856407    32A     -0.851561    33A     -0.843850
      34A     -0.798550    35A     -0.744456    36A     -0.737582
      37A     -0.726934    38A     -0.696699    39A     -0.694231
      40A     -0.688534    41A     -0.679092    42A     -0.669273
      43A     -0.660258    44A     -0.650107    45A     -0.642759
      46A     -0.612098    47A     -0.604674    48A     -0.571288
      49A     -0.544289    50A     -0.539925    51A     -0.524920
      52A     -0.521308    53A     -0.512482    54A     -0.496966
      55A     -0.468998    56A     -0.381316    57A     -0.368802

  @DF-RHF Final Energy: -1152.81856630910556

   => Energetics <=

    Nuclear Repulsion Energy =           1104.5454592437567953
    One-Electron Energy =               -3784.8629964967690285
    Two-Electron Energy =                1527.4989709439066701
    Total Energy =                      -1152.8185663091055631
  Basis Set: (AUG-CC-PVTZ AUX)
    Blend: AUG-CC-PVTZ-RI
    Molecular point group: c1

    Geometry (in Angstrom), charge = 0, multiplicity = 1:

       Center              X                  Y                   Z               Mass
    ------------   -----------------  -----------------  -----------------  -----------------
         S            1.116539514553     0.006261817325    -0.871000029221    31.972071174400
         F            1.459764514553    -1.088088182675     1.494208970779    18.998403162730
         F            3.186876514553     0.004317817325     0.722061970779    18.998403162730
         F            1.459793514553     1.094908817325     1.496834970779    18.998403162730
         O            1.487317514553    -1.280405182675    -1.463658029221    15.994914619570
         O            1.487314514553     1.294357817325    -1.460548029221    15.994914619570
         C           -0.609394485447     0.005804817325    -0.494357029221    12.000000000000
         C           -1.269253485447    -1.215182182675    -0.339340029221    12.000000000000
         C           -1.271483585447     1.129183417325    -0.335632029221    12.000000000000
         C           -3.323046485447     0.005041817325     0.137491970779    12.000000000000
         C            1.855009514553     0.004213817325     0.823770970779    12.000000000000
         C           -2.627393485447    -1.200867182675    -0.028122029221    12.000000000000
         C           -2.627398485447     1.211347817325    -0.025229029221    12.000000000000
         C           -4.780916485447     0.004586817325     0.513404970779    12.000000000000
         H           -0.733415485447    -2.148391182675    -0.489205029221     1.007825032230
         H           -0.733423485447     2.159981817325    -0.484039029221     1.007825032230
         H           -3.157529485447    -2.144670182675     0.083619970779     1.007825032230
         H           -3.157537485447     2.154878817325     0.088776970779     1.007825032230
         H           -5.288292485447     0.890826817325     0.123002970779     1.007825032230
         H           -5.288305485447    -0.880675182675     0.120805970779     1.007825032230
         H           -4.902525485447     0.003236817325     1.602025970779     1.007825032230

  Basis Set: AUG-CC-PVTZ
    Blend: AUG-CC-PVTZ
  Basis Set: (AUG-CC-PVTZ AUX)
    Blend: AUG-CC-PVTZ-JKFIT
	 Reference Energy          =   -1152.8185663091055631 [Eh]
	 Singles Energy            =      -0.0000000000000000 [Eh]
	 Same-Spin Energy          =      -0.7698949821483699 [Eh]
	 Opposite-Spin Energy      =      -2.2429195861496218 [Eh]
	 Correlation Energy        =      -3.0128145682979919 [Eh]
	 Total Energy              =   -1155.8313808774034896 [Eh]

	 ================> DF-SCS-MP2 Energies <==================
	-----------------------------------------------------------
	 SCS Same-Spin Scale       =       0.3333333333333333 [-]
	 SCS Opposite-Spin Scale   =       1.2000000000000000 [-]
	 SCS Same-Spin Energy      =      -0.2566316607161233 [Eh]
	 SCS Opposite-Spin Energy  =      -2.6915035033795460 [Eh]
	 SCS Correlation Energy    =      -2.9481351640956692 [Eh]
	 SCS Total Energy          =   -1155.7667014732012376 [Eh]
	-----------------------------------------------------------

  Dipole Moment: [D]
     X:    -5.3399      Y:     0.0036      Z:     2.1260     Total:     5.7475

*** Psi4 exiting successfully. Buy a developer a beer!
