                               Psi4 1.4a3.dev225

  ==> Input File <==

--------------------------------------------------------------------------
#psi4
#
memory 32 gb

molecule  {
0 1
  S        1.2441830     0.0010390    -0.8590750
  F        1.5874080    -1.0933110     1.5061340
  F        3.3145200    -0.0009050     0.7339870
  F        1.5874370     1.0896860     1.5087600
  O        1.6149610    -1.2856280    -1.4517330
  O        1.6149580     1.2891350    -1.4486230
  C       -0.4817510     0.0005820    -0.4824320
  C       -1.1416100    -1.2204050    -0.3274150
  C       -1.0471135     1.0463831    -0.3471069
  C       -3.1954030    -0.0001810     0.1494170
  C        1.9826530    -0.0010090     0.8356960
  C       -2.4997500    -1.2060900    -0.0161970
  C       -2.4997550     1.2061250    -0.0133040
  C       -4.6532730    -0.0006360     0.5253300
  H       -0.6057720    -2.1536140    -0.4772800
  H       -0.6057800     2.1547590    -0.4721140
  H       -3.0298860    -2.1498930     0.0955450
  H       -3.0298940     2.1496560     0.1007020
  H       -5.1606490     0.8856040     0.1349280
  H       -5.1606620    -0.8858980     0.1327310
  H       -4.7748820    -0.0019860     1.6139510
units angstrom
no_reorient  #important for SAPT in psi4, default
symmetry c1  #important for SAPT in psi4, default
}

set PROPERTIES_ORIGIN ["COM"]
properties('MP2/aug-cc-pvtz', properties = ['dipole'])
--------------------------------------------------------------------------

    Molecular point group: c1
  Charge       = 0
  Multiplicity = 1
  Basis Set: AUG-CC-PVTZ
    Blend: AUG-CC-PVTZ
  Basis Set: (AUG-CC-PVTZ AUX)
    Blend: AUG-CC-PVTZ-JKFIT

    Orbital Energies [Eh]
    ---------------------

    Doubly Occupied:

       1A    -92.217685     2A    -26.374154     3A    -26.373517
       4A    -26.371368     5A    -20.576694     6A    -20.576410
       7A    -11.553143     8A    -11.280779     9A    -11.278942
      10A    -11.277907    11A    -11.273695    12A    -11.271904
      13A    -11.265359    14A    -11.249045    15A     -9.187023
      16A     -6.871827    17A     -6.871106    18A     -6.870728
      19A     -1.759294    20A     -1.667577    21A     -1.666662
      22A     -1.468812    23A     -1.360810    24A     -1.219233
      25A     -1.116116    26A     -1.042532    27A     -1.041338
      28A     -0.978118    29A     -0.924001    30A     -0.881466
      31A     -0.856773    32A     -0.852874    33A     -0.841874
      34A     -0.793869    35A     -0.746426    36A     -0.738769
      37A     -0.728575    38A     -0.697594    39A     -0.695597
      40A     -0.690298    41A     -0.680398    42A     -0.670959
      43A     -0.658532    44A     -0.652319    45A     -0.644516
      46A     -0.603125    47A     -0.599908    48A     -0.572843
      49A     -0.551858    50A     -0.541067    51A     -0.528857
      52A     -0.523164    53A     -0.508003    54A     -0.495301
      55A     -0.460060    56A     -0.398216    57A     -0.354737

  @DF-RHF Final Energy: -1152.76818068755188

   => Energetics <=

    Nuclear Repulsion Energy =           1106.9420391002852284
    One-Electron Energy =               -3789.5129211035755361
    Two-Electron Energy =                1529.8027013157386591
    Total Energy =                      -1152.7681806875518760
  Basis Set: (AUG-CC-PVTZ AUX)
    Blend: AUG-CC-PVTZ-RI
    Molecular point group: c1

    Geometry (in Angstrom), charge = 0, multiplicity = 1:

       Center              X                  Y                   Z               Mass
    ------------   -----------------  -----------------  -----------------  -----------------
         S            1.111358007334     0.010417534329    -0.869746529658    31.972071174400
         F            1.454583007334    -1.083932465671     1.495462470342    18.998403162730
         F            3.181695007334     0.008473534329     0.723315470342    18.998403162730
         F            1.454612007334     1.099064534329     1.498088470342    18.998403162730
         O            1.482136007334    -1.276249465671    -1.462404529658    15.994914619570
         O            1.482133007334     1.298513534329    -1.459294529658    15.994914619570
         C           -0.614575992666     0.009960534329    -0.493103529658    12.000000000000
         C           -1.274434992666    -1.211026465671    -0.338086529658    12.000000000000
         C           -1.179938492666     1.055761634329    -0.357778429658    12.000000000000
         C           -3.328227992666     0.009197534329     0.138745470342    12.000000000000
         C            1.849828007334     0.008369534329     0.825024470342    12.000000000000
         C           -2.632574992666    -1.196711465671    -0.026868529658    12.000000000000
         C           -2.632579992666     1.215503534329    -0.023975529658    12.000000000000
         C           -4.786097992666     0.008742534329     0.514658470342    12.000000000000
         H           -0.738596992666    -2.144235465671    -0.487951529658     1.007825032230
         H           -0.738604992666     2.164137534329    -0.482785529658     1.007825032230
         H           -3.162710992666    -2.140514465671     0.084873470342     1.007825032230
         H           -3.162718992666     2.159034534329     0.090030470342     1.007825032230
         H           -5.293473992666     0.894982534329     0.124256470342     1.007825032230
         H           -5.293486992666    -0.876519465671     0.122059470342     1.007825032230
         H           -4.907706992666     0.007392534329     1.603279470342     1.007825032230

  Basis Set: AUG-CC-PVTZ
    Blend: AUG-CC-PVTZ
  Basis Set: (AUG-CC-PVTZ AUX)
    Blend: AUG-CC-PVTZ-JKFIT
	 Reference Energy          =   -1152.7681806875518760 [Eh]
	 Singles Energy            =      -0.0000000000000000 [Eh]
	 Same-Spin Energy          =      -0.7696986175283483 [Eh]
	 Opposite-Spin Energy      =      -2.2446818938149184 [Eh]
	 Correlation Energy        =      -3.0143805113432669 [Eh]
	 Total Energy              =   -1155.7825611988951096 [Eh]

	 ================> DF-SCS-MP2 Energies <==================
	-----------------------------------------------------------
	 SCS Same-Spin Scale       =       0.3333333333333333 [-]
	 SCS Opposite-Spin Scale   =       1.2000000000000000 [-]
	 SCS Same-Spin Energy      =      -0.2565662058427828 [Eh]
	 SCS Opposite-Spin Energy  =      -2.6936182725779019 [Eh]
	 SCS Correlation Energy    =      -2.9501844784206845 [Eh]
	 SCS Total Energy          =   -1155.7183651659725001 [Eh]
	-----------------------------------------------------------

  Dipole Moment: [D]
     X:    -5.2435      Y:     0.0875      Z:     2.1082     Total:     5.6521

*** Psi4 exiting successfully. Buy a developer a beer!
