                               Psi4 1.4a3.dev225

  ==> Input File <==

--------------------------------------------------------------------------
#psi4
#
memory 32 gb

molecule  {
0 1
  S        1.2441830     0.0010390    -0.8590750
  F        1.5874080    -1.0933110     1.5061340
  F        3.3145200    -0.0009050     0.7339870
  F        1.5874370     1.0896860     1.5087600
  O        1.6149610    -1.2856280    -1.4517330
  O        1.6149580     1.2891350    -1.4486230
  C       -0.4817510     0.0005820    -0.4824320
  C       -1.1416100    -1.2204050    -0.3274150
  C       -1.1416150     1.2211910    -0.3244870
  C       -3.1954030    -0.0001810     0.1494170
  C        1.9826530    -0.0010090     0.8356960
  C       -2.4997500    -1.2060900    -0.0161970
  C       -2.4022866     1.2072062    -0.0356364
  C       -4.6532730    -0.0006360     0.5253300
  H       -0.6057720    -2.1536140    -0.4772800
  H       -0.6057800     2.1547590    -0.4721140
  H       -3.0298860    -2.1498930     0.0955450
  H       -3.0298940     2.1496560     0.1007020
  H       -5.1606490     0.8856040     0.1349280
  H       -5.1606620    -0.8858980     0.1327310
  H       -4.7748820    -0.0019860     1.6139510
units angstrom
no_reorient  #important for SAPT in psi4, default
symmetry c1  #important for SAPT in psi4, default
}

set PROPERTIES_ORIGIN ["COM"]
properties('MP2/aug-cc-pvtz', properties = ['dipole'])
--------------------------------------------------------------------------

    Molecular point group: c1
  Charge       = 0
  Multiplicity = 1
  Basis Set: AUG-CC-PVTZ
    Blend: AUG-CC-PVTZ
  Basis Set: (AUG-CC-PVTZ AUX)
    Blend: AUG-CC-PVTZ-JKFIT

    Orbital Energies [Eh]
    ---------------------

    Doubly Occupied:

       1A    -92.214847     2A    -26.370818     3A    -26.370632
       4A    -26.368009     5A    -20.572939     6A    -20.572578
       7A    -11.549064     8A    -11.295085     9A    -11.291119
      10A    -11.286803    11A    -11.268617    12A    -11.264174
      13A    -11.262646    14A    -11.256623    15A     -9.183505
      16A     -6.868366    17A     -6.867636    18A     -6.867363
      19A     -1.756094    20A     -1.664466    21A     -1.663525
      22A     -1.464610    23A     -1.357226    24A     -1.203276
      25A     -1.096493    26A     -1.066558    27A     -1.038660
      28A     -0.983553    29A     -0.915915    30A     -0.861376
      31A     -0.856394    32A     -0.849803    33A     -0.845806
      34A     -0.797680    35A     -0.742629    36A     -0.735955
      37A     -0.726123    38A     -0.695403    39A     -0.692729
      40A     -0.687152    41A     -0.677346    42A     -0.669271
      43A     -0.665135    44A     -0.647302    45A     -0.632341
      46A     -0.625315    47A     -0.606657    48A     -0.573873
      49A     -0.553228    50A     -0.538201    51A     -0.522208
      52A     -0.515308    53A     -0.505902    54A     -0.495971
      55A     -0.467696    56A     -0.385691    57A     -0.366507

  @DF-RHF Final Energy: -1152.81698265595537

   => Energetics <=

    Nuclear Repulsion Energy =           1104.0233176531435220
    One-Electron Energy =               -3783.9201972999912869
    Two-Electron Energy =                1527.0798969908926210
    Total Energy =                      -1152.8169826559553712
  Basis Set: (AUG-CC-PVTZ AUX)
    Blend: AUG-CC-PVTZ-RI
    Molecular point group: c1

    Geometry (in Angstrom), charge = 0, multiplicity = 1:

       Center              X                  Y                   Z               Mass
    ------------   -----------------  -----------------  -----------------  -----------------
         S            1.111199074695     0.000995403897    -0.869761930627    31.972071174400
         F            1.454424074695    -1.093354596103     1.495447069373    18.998403162730
         F            3.181536074695    -0.000948596103     0.723300069373    18.998403162730
         F            1.454453074695     1.089642403897     1.498073069373    18.998403162730
         O            1.481977074695    -1.285671596103    -1.462419930627    15.994914619570
         O            1.481974074695     1.289091403897    -1.459309930627    15.994914619570
         C           -0.614734925305     0.000538403897    -0.493118930627    12.000000000000
         C           -1.274593925305    -1.220448596103    -0.338101930627    12.000000000000
         C           -1.274598925305     1.221147403897    -0.335173930627    12.000000000000
         C           -3.328386925305    -0.000224596103     0.138730069373    12.000000000000
         C            1.849669074695    -0.001052596103     0.825009069373    12.000000000000
         C           -2.632733925305    -1.206133596103    -0.026883930627    12.000000000000
         C           -2.535270525305     1.207162603897    -0.046323330627    12.000000000000
         C           -4.786256925305    -0.000679596103     0.514643069373    12.000000000000
         H           -0.738755925305    -2.153657596103    -0.487966930627     1.007825032230
         H           -0.738763925305     2.154715403897    -0.482800930627     1.007825032230
         H           -3.162869925305    -2.149936596103     0.084858069373     1.007825032230
         H           -3.162877925305     2.149612403897     0.090015069373     1.007825032230
         H           -5.293632925305     0.885560403897     0.124241069373     1.007825032230
         H           -5.293645925305    -0.885941596103     0.122044069373     1.007825032230
         H           -4.907865925305    -0.002029596103     1.603264069373     1.007825032230

  Basis Set: AUG-CC-PVTZ
    Blend: AUG-CC-PVTZ
  Basis Set: (AUG-CC-PVTZ AUX)
    Blend: AUG-CC-PVTZ-JKFIT
	 Reference Energy          =   -1152.8169826559553712 [Eh]
	 Singles Energy            =      -0.0000000000000000 [Eh]
	 Same-Spin Energy          =      -0.7695372778613484 [Eh]
	 Opposite-Spin Energy      =      -2.2428270404253974 [Eh]
	 Correlation Energy        =      -3.0123643182867457 [Eh]
	 Total Energy              =   -1155.8293469742420712 [Eh]

	 ================> DF-SCS-MP2 Energies <==================
	-----------------------------------------------------------
	 SCS Same-Spin Scale       =       0.3333333333333333 [-]
	 SCS Opposite-Spin Scale   =       1.2000000000000000 [-]
	 SCS Same-Spin Energy      =      -0.2565124259537828 [Eh]
	 SCS Opposite-Spin Energy  =      -2.6913924485104768 [Eh]
	 SCS Correlation Energy    =      -2.9479048744642595 [Eh]
	 SCS Total Energy          =   -1155.7648875304196281 [Eh]
	-----------------------------------------------------------

  Dipole Moment: [D]
     X:    -5.4927      Y:    -0.0715      Z:     2.1515     Total:     5.8995

*** Psi4 exiting successfully. Buy a developer a beer!
