                               Psi4 1.4a3.dev225

  ==> Input File <==

--------------------------------------------------------------------------
#psi4
#
memory 32 gb

molecule  {
0 1
  S        1.2441830     0.0010390    -0.8590750
  F        1.5874080    -1.0933110     1.5061340
  F        3.3145200    -0.0009050     0.7339870
  F        1.5874370     1.0896860     1.5087600
  O        1.6149610    -1.2856280    -1.4517330
  O        1.6149580     1.2891350    -1.4486230
  C       -0.4817510     0.0005820    -0.4824320
  C       -1.1321599    -1.2029188    -0.3296351
  C       -1.1416150     1.2211910    -0.3244870
  C       -3.1954030    -0.0001810     0.1494170
  C        1.9826530    -0.0010090     0.8356960
  C       -2.4997500    -1.2060900    -0.0161970
  C       -2.4997550     1.2061250    -0.0133040
  C       -4.6532730    -0.0006360     0.5253300
  H       -0.6057720    -2.1536140    -0.4772800
  H       -0.6057800     2.1547590    -0.4721140
  H       -3.0298860    -2.1498930     0.0955450
  H       -3.0298940     2.1496560     0.1007020
  H       -5.1606490     0.8856040     0.1349280
  H       -5.1606620    -0.8858980     0.1327310
  H       -4.7748820    -0.0019860     1.6139510
units angstrom
no_reorient  #important for SAPT in psi4, default
symmetry c1  #important for SAPT in psi4, default
}

set PROPERTIES_ORIGIN ["COM"]
properties('MP2/aug-cc-pvtz', properties = ['dipole'])
--------------------------------------------------------------------------

    Molecular point group: c1
  Charge       = 0
  Multiplicity = 1
  Basis Set: AUG-CC-PVTZ
    Blend: AUG-CC-PVTZ
  Basis Set: (AUG-CC-PVTZ AUX)
    Blend: AUG-CC-PVTZ-JKFIT

    Orbital Energies [Eh]
    ---------------------

    Doubly Occupied:

       1A    -92.216306     2A    -26.371658     3A    -26.371595
       4A    -26.369063     5A    -20.574195     6A    -20.574135
       7A    -11.550322     8A    -11.291678     9A    -11.286865
      10A    -11.284201    11A    -11.283973    12A    -11.265757
      13A    -11.265067    14A    -11.252092    15A     -9.185050
      16A     -6.869906    17A     -6.869180    18A     -6.868883
      19A     -1.757045    20A     -1.665353    21A     -1.664498
      22A     -1.466061    23A     -1.358582    24A     -1.199270
      25A     -1.102061    26A     -1.052174    27A     -1.039293
      28A     -0.980857    29A     -0.917677    30A     -0.870725
      31A     -0.856615    32A     -0.850720    33A     -0.844785
      34A     -0.797145    35A     -0.743295    36A     -0.736790
      37A     -0.725912    38A     -0.695635    39A     -0.693365
      40A     -0.684397    41A     -0.678230    42A     -0.670069
      43A     -0.666176    44A     -0.647125    45A     -0.639920
      46A     -0.623304    47A     -0.604737    48A     -0.570347
      49A     -0.544745    50A     -0.533698    51A     -0.526434
      52A     -0.523134    53A     -0.514803    54A     -0.497157
      55A     -0.468080    56A     -0.375921    57A     -0.370484

  @DF-RHF Final Energy: -1152.83011874340218

   => Energetics <=

    Nuclear Repulsion Energy =           1102.9936323881170210
    One-Electron Energy =               -3781.8344093499326846
    Two-Electron Energy =                1526.0106582184134822
    Total Energy =                      -1152.8301187434021813
  Basis Set: (AUG-CC-PVTZ AUX)
    Blend: AUG-CC-PVTZ-RI
    Molecular point group: c1

    Geometry (in Angstrom), charge = 0, multiplicity = 1:

       Center              X                  Y                   Z               Mass
    ------------   -----------------  -----------------  -----------------  -----------------
         S            1.115914090594     0.000116611239    -0.870839318105    31.972071174400
         F            1.459139090594    -1.094233388761     1.494369681895    18.998403162730
         F            3.186251090594    -0.001827388761     0.722222681895    18.998403162730
         F            1.459168090594     1.088763611239     1.496995681895    18.998403162730
         O            1.486692090594    -1.286550388761    -1.463497318105    15.994914619570
         O            1.486689090594     1.288212611239    -1.460387318105    15.994914619570
         C           -0.610019909406    -0.000340388761    -0.494196318105    12.000000000000
         C           -1.260428809406    -1.203841188761    -0.341399418105    12.000000000000
         C           -1.269883909406     1.220268611239    -0.336251318105    12.000000000000
         C           -3.323671909406    -0.001103388761     0.137652681895    12.000000000000
         C            1.854384090594    -0.001931388761     0.823931681895    12.000000000000
         C           -2.628018909406    -1.207012388761    -0.027961318105    12.000000000000
         C           -2.628023909406     1.205202611239    -0.025068318105    12.000000000000
         C           -4.781541909406    -0.001558388761     0.513565681895    12.000000000000
         H           -0.734040909406    -2.154536388761    -0.489044318105     1.007825032230
         H           -0.734048909406     2.153836611239    -0.483878318105     1.007825032230
         H           -3.158154909406    -2.150815388761     0.083780681895     1.007825032230
         H           -3.158162909406     2.148733611239     0.088937681895     1.007825032230
         H           -5.288917909406     0.884681611239     0.123163681895     1.007825032230
         H           -5.288930909406    -0.886820388761     0.120966681895     1.007825032230
         H           -4.903150909406    -0.002908388761     1.602186681895     1.007825032230

  Basis Set: AUG-CC-PVTZ
    Blend: AUG-CC-PVTZ
  Basis Set: (AUG-CC-PVTZ AUX)
    Blend: AUG-CC-PVTZ-JKFIT
	 Reference Energy          =   -1152.8301187434021813 [Eh]
	 Singles Energy            =      -0.0000000000000000 [Eh]
	 Same-Spin Energy          =      -0.7697097969143319 [Eh]
	 Opposite-Spin Energy      =      -2.2426812723085101 [Eh]
	 Correlation Energy        =      -3.0123910692228422 [Eh]
	 Total Energy              =   -1155.8425098126249395 [Eh]

	 ================> DF-SCS-MP2 Energies <==================
	-----------------------------------------------------------
	 SCS Same-Spin Scale       =       0.3333333333333333 [-]
	 SCS Opposite-Spin Scale   =       1.2000000000000000 [-]
	 SCS Same-Spin Energy      =      -0.2565699323047773 [Eh]
	 SCS Opposite-Spin Energy  =      -2.6912175267702119 [Eh]
	 SCS Correlation Energy    =      -2.9477874590749891 [Eh]
	 SCS Total Energy          =   -1155.7779062024771974 [Eh]
	-----------------------------------------------------------

  Dipole Moment: [D]
     X:    -5.4090      Y:    -0.0115      Z:     2.1332     Total:     5.8144

*** Psi4 exiting successfully. Buy a developer a beer!
