                               Psi4 1.4a3.dev225

  ==> Input File <==

--------------------------------------------------------------------------
#psi4
#
memory 32 gb

molecule  {
0 1
  S        1.2441830     0.0010390    -0.8590750
  F        1.5874080    -1.0933110     1.5061340
  F        3.3145200    -0.0009050     0.7339870
  F        1.5874370     1.0896860     1.5087600
  O        1.6149610    -1.2856280    -1.4517330
  O        1.6149580     1.2891350    -1.4486230
  C       -0.4817510     0.0005820    -0.4824320
  C       -1.1416100    -1.2204050    -0.3274150
  C       -1.1416150     1.2211910    -0.3244870
  C       -3.1954030    -0.0001810     0.1494170
  C        1.9826530    -0.0010090     0.8356960
  C       -2.3817000    -1.1247536    -0.0475638
  C       -2.4997550     1.2061250    -0.0133040
  C       -4.6532730    -0.0006360     0.5253300
  H       -0.6057720    -2.1536140    -0.4772800
  H       -0.6057800     2.1547590    -0.4721140
  H       -3.0298860    -2.1498930     0.0955450
  H       -3.0298940     2.1496560     0.1007020
  H       -5.1606490     0.8856040     0.1349280
  H       -5.1606620    -0.8858980     0.1327310
  H       -4.7748820    -0.0019860     1.6139510
units angstrom
no_reorient  #important for SAPT in psi4, default
symmetry c1  #important for SAPT in psi4, default
}

set PROPERTIES_ORIGIN ["COM"]
properties('MP2/aug-cc-pvtz', properties = ['dipole'])
--------------------------------------------------------------------------

    Molecular point group: c1
  Charge       = 0
  Multiplicity = 1
  Basis Set: AUG-CC-PVTZ
    Blend: AUG-CC-PVTZ
  Basis Set: (AUG-CC-PVTZ AUX)
    Blend: AUG-CC-PVTZ-JKFIT

    Orbital Energies [Eh]
    ---------------------

    Doubly Occupied:

       1A    -92.215013     2A    -26.371439     3A    -26.371096
       4A    -26.368520     5A    -20.573792     6A    -20.572827
       7A    -11.549634     8A    -11.292348     9A    -11.290259
      10A    -11.284885    11A    -11.267856    12A    -11.265291
      13A    -11.262613    14A    -11.257693    15A     -9.183795
      16A     -6.868650    17A     -6.867907    18A     -6.867636
      19A     -1.756627    20A     -1.665019    21A     -1.664028
      22A     -1.465193    23A     -1.357792    24A     -1.212218
      25A     -1.100576    26A     -1.068046    27A     -1.039450
      28A     -0.984990    29A     -0.918615    30A     -0.862445
      31A     -0.859021    32A     -0.850332    33A     -0.847229
      34A     -0.796119    35A     -0.743323    36A     -0.736545
      37A     -0.727464    38A     -0.696994    39A     -0.693524
      40A     -0.690011    41A     -0.677875    42A     -0.669958
      43A     -0.665822    44A     -0.648373    45A     -0.632686
      46A     -0.615802    47A     -0.608603    48A     -0.571833
      49A     -0.558830    50A     -0.543217    51A     -0.522891
      52A     -0.516747    53A     -0.496874    54A     -0.493844
      55A     -0.465502    56A     -0.386866    57A     -0.371209

  @DF-RHF Final Energy: -1152.80163567004684

   => Energetics <=

    Nuclear Repulsion Energy =           1105.7535537822489005
    One-Electron Energy =               -3787.2828837710458174
    Two-Electron Energy =                1528.7276943187503093
    Total Energy =                      -1152.8016356700468350
  Basis Set: (AUG-CC-PVTZ AUX)
    Blend: AUG-CC-PVTZ-RI
    Molecular point group: c1

    Geometry (in Angstrom), charge = 0, multiplicity = 1:

       Center              X                  Y                   Z               Mass
    ------------   -----------------  -----------------  -----------------  -----------------
         S            1.110096547479    -0.003303753710    -0.869277970591    31.972071174400
         F            1.453321547479    -1.097653753710     1.495931029409    18.998403162730
         F            3.180433547479    -0.005247753710     0.723784029409    18.998403162730
         F            1.453350547479     1.085343246290     1.498557029409    18.998403162730
         O            1.480874547479    -1.289970753710    -1.461935970591    15.994914619570
         O            1.480871547479     1.284792246290    -1.458825970591    15.994914619570
         C           -0.615837452521    -0.003760753710    -0.492634970591    12.000000000000
         C           -1.275696452521    -1.224747753710    -0.337617970591    12.000000000000
         C           -1.275701452521     1.216848246290    -0.334689970591    12.000000000000
         C           -3.329489452521    -0.004523753710     0.139214029409    12.000000000000
         C            1.848566547479    -0.005351753710     0.825493029409    12.000000000000
         C           -2.515786452521    -1.129096353710    -0.057766770591    12.000000000000
         C           -2.633841452521     1.201782246290    -0.023506970591    12.000000000000
         C           -4.787359452521    -0.004978753710     0.515127029409    12.000000000000
         H           -0.739858452521    -2.157956753710    -0.487482970591     1.007825032230
         H           -0.739866452521     2.150416246290    -0.482316970591     1.007825032230
         H           -3.163972452521    -2.154235753710     0.085342029409     1.007825032230
         H           -3.163980452521     2.145313246290     0.090499029409     1.007825032230
         H           -5.294735452521     0.881261246290     0.124725029409     1.007825032230
         H           -5.294748452521    -0.890240753710     0.122528029409     1.007825032230
         H           -4.908968452521    -0.006328753710     1.603748029409     1.007825032230

  Basis Set: AUG-CC-PVTZ
    Blend: AUG-CC-PVTZ
  Basis Set: (AUG-CC-PVTZ AUX)
    Blend: AUG-CC-PVTZ-JKFIT
	 Reference Energy          =   -1152.8016356700468350 [Eh]
	 Singles Energy            =      -0.0000000000000000 [Eh]
	 Same-Spin Energy          =      -0.7704374997186201 [Eh]
	 Opposite-Spin Energy      =      -2.2439655103772487 [Eh]
	 Correlation Energy        =      -3.0144030100958688 [Eh]
	 Total Energy              =   -1155.8160386801428103 [Eh]

	 ================> DF-SCS-MP2 Energies <==================
	-----------------------------------------------------------
	 SCS Same-Spin Scale       =       0.3333333333333333 [-]
	 SCS Opposite-Spin Scale   =       1.2000000000000000 [-]
	 SCS Same-Spin Energy      =      -0.2568124999062067 [Eh]
	 SCS Opposite-Spin Energy  =      -2.6927586124526983 [Eh]
	 SCS Correlation Energy    =      -2.9495711123589050 [Eh]
	 SCS Total Energy          =   -1155.7512067824056885 [Eh]
	-----------------------------------------------------------

  Dipole Moment: [D]
     X:    -5.4487      Y:     0.1524      Z:     2.1441     Total:     5.8574

*** Psi4 exiting successfully. Buy a developer a beer!
