                               Psi4 1.4a3.dev225

  ==> Input File <==

--------------------------------------------------------------------------
#psi4
#
memory 32 gb

molecule  {
0 1
  S        1.2441830     0.0010390    -0.8590750
  F        1.5874080    -1.0933110     1.5061340
  F        3.3145200    -0.0009050     0.7339870
  F        1.5874370     1.0896860     1.5087600
  O        1.6149610    -1.2856280    -1.4517330
  O        1.6149580     1.2891350    -1.4486230
  C       -0.4817510     0.0005820    -0.4824320
  C       -1.1652352    -1.2641205    -0.3218649
  C       -1.1416150     1.2211910    -0.3244870
  C       -3.1954030    -0.0001810     0.1494170
  C        1.9826530    -0.0010090     0.8356960
  C       -2.4997500    -1.2060900    -0.0161970
  C       -2.4997550     1.2061250    -0.0133040
  C       -4.6532730    -0.0006360     0.5253300
  H       -0.6057720    -2.1536140    -0.4772800
  H       -0.6057800     2.1547590    -0.4721140
  H       -3.0298860    -2.1498930     0.0955450
  H       -3.0298940     2.1496560     0.1007020
  H       -5.1606490     0.8856040     0.1349280
  H       -5.1606620    -0.8858980     0.1327310
  H       -4.7748820    -0.0019860     1.6139510
units angstrom
no_reorient  #important for SAPT in psi4, default
symmetry c1  #important for SAPT in psi4, default
}

set PROPERTIES_ORIGIN ["COM"]
properties('MP2/aug-cc-pvtz', properties = ['dipole'])
--------------------------------------------------------------------------

    Molecular point group: c1
  Charge       = 0
  Multiplicity = 1
  Basis Set: AUG-CC-PVTZ
    Blend: AUG-CC-PVTZ
  Basis Set: (AUG-CC-PVTZ AUX)
    Blend: AUG-CC-PVTZ-JKFIT

    Orbital Energies [Eh]
    ---------------------

    Doubly Occupied:

       1A    -92.215531     2A    -26.370925     3A    -26.370781
       4A    -26.368249     5A    -20.573330     6A    -20.573165
       7A    -11.549332     8A    -11.295849     9A    -11.289164
      10A    -11.286045    11A    -11.285392    12A    -11.265244
      13A    -11.263547    14A    -11.253211    15A     -9.184123
      16A     -6.868988    17A     -6.868259    18A     -6.867986
      19A     -1.756255    20A     -1.664589    21A     -1.663721
      22A     -1.465011    23A     -1.357696    24A     -1.195461
      25A     -1.097611    26A     -1.057329    27A     -1.038426
      28A     -0.980705    29A     -0.916103    30A     -0.867842
      31A     -0.857409    32A     -0.849964    33A     -0.845358
      34A     -0.795725    35A     -0.742258    36A     -0.736077
      37A     -0.725393    38A     -0.695001    39A     -0.692861
      40A     -0.683603    41A     -0.677503    42A     -0.675181
      43A     -0.666149    44A     -0.647212    45A     -0.636311
      46A     -0.627847    47A     -0.605537    48A     -0.568998
      49A     -0.548490    50A     -0.530443    51A     -0.525534
      52A     -0.520920    53A     -0.513607    54A     -0.496731
      55A     -0.467330    56A     -0.377716    57A     -0.368743

  @DF-RHF Final Energy: -1152.82742873873349

   => Energetics <=

    Nuclear Repulsion Energy =           1101.6103146798229773
    One-Electron Energy =               -3779.0999468665090717
    Two-Electron Energy =                1524.6622034479528338
    Total Energy =                      -1152.8274287387334880
  Basis Set: (AUG-CC-PVTZ AUX)
    Blend: AUG-CC-PVTZ-RI
    Molecular point group: c1

    Geometry (in Angstrom), charge = 0, multiplicity = 1:

       Center              X                  Y                   Z               Mass
    ------------   -----------------  -----------------  -----------------  -----------------
         S            1.117685887657     0.003395099787    -0.871255556734    31.972071174400
         F            1.460910887657    -1.090954900213     1.493953443266    18.998403162730
         F            3.188022887657     0.001451099787     0.721806443266    18.998403162730
         F            1.460939887657     1.092042099787     1.496579443266    18.998403162730
         O            1.488463887657    -1.283271900213    -1.463913556734    15.994914619570
         O            1.488460887657     1.291491099787    -1.460803556734    15.994914619570
         C           -0.608248112343     0.002938099787    -0.494612556734    12.000000000000
         C           -1.291732312343    -1.261764400213    -0.334045456734    12.000000000000
         C           -1.268112112343     1.223547099787    -0.336667556734    12.000000000000
         C           -3.321900112343     0.002175099787     0.137236443266    12.000000000000
         C            1.856155887657     0.001347099787     0.823515443266    12.000000000000
         C           -2.626247112343    -1.203733900213    -0.028377556734    12.000000000000
         C           -2.626252112343     1.208481099787    -0.025484556734    12.000000000000
         C           -4.779770112343     0.001720099787     0.513149443266    12.000000000000
         H           -0.732269112343    -2.151257900213    -0.489460556734     1.007825032230
         H           -0.732277112343     2.157115099787    -0.484294556734     1.007825032230
         H           -3.156383112343    -2.147536900213     0.083364443266     1.007825032230
         H           -3.156391112343     2.152012099787     0.088521443266     1.007825032230
         H           -5.287146112343     0.887960099787     0.122747443266     1.007825032230
         H           -5.287159112343    -0.883541900213     0.120550443266     1.007825032230
         H           -4.901379112343     0.000370099787     1.601770443266     1.007825032230

  Basis Set: AUG-CC-PVTZ
    Blend: AUG-CC-PVTZ
  Basis Set: (AUG-CC-PVTZ AUX)
    Blend: AUG-CC-PVTZ-JKFIT
	 Reference Energy          =   -1152.8274287387334880 [Eh]
	 Singles Energy            =      -0.0000000000000000 [Eh]
	 Same-Spin Energy          =      -0.7695834948257596 [Eh]
	 Opposite-Spin Energy      =      -2.2428997895063092 [Eh]
	 Correlation Energy        =      -3.0124832843320686 [Eh]
	 Total Energy              =   -1155.8399120230656081 [Eh]

	 ================> DF-SCS-MP2 Energies <==================
	-----------------------------------------------------------
	 SCS Same-Spin Scale       =       0.3333333333333333 [-]
	 SCS Opposite-Spin Scale   =       1.2000000000000000 [-]
	 SCS Same-Spin Energy      =      -0.2565278316085865 [Eh]
	 SCS Opposite-Spin Energy  =      -2.6914797474075711 [Eh]
	 SCS Correlation Energy    =      -2.9480075790161577 [Eh]
	 SCS Total Energy          =   -1155.7754363177496089 [Eh]
	-----------------------------------------------------------

  Dipole Moment: [D]
     X:    -5.4529      Y:     0.0177      Z:     2.1395     Total:     5.8576

*** Psi4 exiting successfully. Buy a developer a beer!
