                               Psi4 1.4a3.dev225

  ==> Input File <==

--------------------------------------------------------------------------
#psi4
#
memory 32 gb

molecule  {
0 1
  S        1.2441830     0.0010390    -0.8590750
  F        1.5874080    -1.0933110     1.5061340
  F        3.3145200    -0.0009050     0.7339870
  F        1.5874370     1.0896860     1.5087600
  O        1.5908610    -1.3092419    -1.4133404
  O        1.6149580     1.2891350    -1.4486230
  C       -0.4817510     0.0005820    -0.4824320
  C       -1.1416100    -1.2204050    -0.3274150
  C       -1.1416150     1.2211910    -0.3244870
  C       -3.1954030    -0.0001810     0.1494170
  C        1.9826530    -0.0010090     0.8356960
  C       -2.4997500    -1.2060900    -0.0161970
  C       -2.4997550     1.2061250    -0.0133040
  C       -4.6532730    -0.0006360     0.5253300
  H       -0.6057720    -2.1536140    -0.4772800
  H       -0.6057800     2.1547590    -0.4721140
  H       -3.0298860    -2.1498930     0.0955450
  H       -3.0298940     2.1496560     0.1007020
  H       -5.1606490     0.8856040     0.1349280
  H       -5.1606620    -0.8858980     0.1327310
  H       -4.7748820    -0.0019860     1.6139510
units angstrom
no_reorient  #important for SAPT in psi4, default
symmetry c1  #important for SAPT in psi4, default
}

set PROPERTIES_ORIGIN ["COM"]
properties('MP2/aug-cc-pvtz', properties = ['dipole'])
--------------------------------------------------------------------------

    Molecular point group: c1
  Charge       = 0
  Multiplicity = 1
  Basis Set: AUG-CC-PVTZ
    Blend: AUG-CC-PVTZ
  Basis Set: (AUG-CC-PVTZ AUX)
    Blend: AUG-CC-PVTZ-JKFIT

    Orbital Energies [Eh]
    ---------------------

    Doubly Occupied:

       1A    -92.216649     2A    -26.370574     3A    -26.370492
       4A    -26.368388     5A    -20.576895     6A    -20.574249
       7A    -11.549020     8A    -11.291855     9A    -11.286915
      10A    -11.283846    11A    -11.283599    12A    -11.264443
      13A    -11.264372    14A    -11.251985    15A     -9.185266
      16A     -6.870128    17A     -6.869444    18A     -6.869083
      19A     -1.756115    20A     -1.664293    21A     -1.663737
      22A     -1.466548    23A     -1.361190    24A     -1.197168
      25A     -1.099661    26A     -1.052873    27A     -1.038069
      28A     -0.980234    29A     -0.916521    30A     -0.868980
      31A     -0.856334    32A     -0.849764    33A     -0.844478
      34A     -0.796607    35A     -0.743017    36A     -0.735910
      37A     -0.725617    38A     -0.694777    39A     -0.692620
      40A     -0.683517    41A     -0.677367    42A     -0.670796
      43A     -0.666074    44A     -0.648675    45A     -0.638346
      46A     -0.624521    47A     -0.604501    48A     -0.569553
      49A     -0.544997    50A     -0.531813    51A     -0.526327
      52A     -0.524493    53A     -0.514705    54A     -0.499412
      55A     -0.467320    56A     -0.373275    57A     -0.371589

  @DF-RHF Final Energy: -1152.82982249819770

   => Energetics <=

    Nuclear Repulsion Energy =           1103.1087723310988622
    One-Electron Energy =               -3782.0992018742676919
    Two-Electron Energy =                1526.1606070449711297
    Total Energy =                      -1152.8298224981977000
  Basis Set: (AUG-CC-PVTZ AUX)
    Blend: AUG-CC-PVTZ-RI
    Molecular point group: c1

    Geometry (in Angstrom), charge = 0, multiplicity = 1:

       Center              X                  Y                   Z               Mass
    ------------   -----------------  -----------------  -----------------  -----------------
         S            1.118141109228     0.002739403837    -0.873699557233    31.972071174400
         F            1.461366109228    -1.091610596163     1.491509442767    18.998403162730
         F            3.188478109228     0.000795403837     0.719362442767    18.998403162730
         F            1.461395109228     1.091386403837     1.494135442767    18.998403162730
         O            1.464819109228    -1.307541496163    -1.427964957233    15.994914619570
         O            1.488916109228     1.290835403837    -1.463247557233    15.994914619570
         C           -0.607792890772     0.002282403837    -0.497056557233    12.000000000000
         C           -1.267651890772    -1.218704596163    -0.342039557233    12.000000000000
         C           -1.267656890772     1.222891403837    -0.339111557233    12.000000000000
         C           -3.321444890772     0.001519403837     0.134792442767    12.000000000000
         C            1.856611109228     0.000691403837     0.821071442767    12.000000000000
         C           -2.625791890772    -1.204389596163    -0.030821557233    12.000000000000
         C           -2.625796890772     1.207825403837    -0.027928557233    12.000000000000
         C           -4.779314890772     0.001064403837     0.510705442767    12.000000000000
         H           -0.731813890772    -2.151913596163    -0.491904557233     1.007825032230
         H           -0.731821890772     2.156459403837    -0.486738557233     1.007825032230
         H           -3.155927890772    -2.148192596163     0.080920442767     1.007825032230
         H           -3.155935890772     2.151356403837     0.086077442767     1.007825032230
         H           -5.286690890772     0.887304403837     0.120303442767     1.007825032230
         H           -5.286703890772    -0.884197596163     0.118106442767     1.007825032230
         H           -4.900923890772    -0.000285596163     1.599326442767     1.007825032230

  Basis Set: AUG-CC-PVTZ
    Blend: AUG-CC-PVTZ
  Basis Set: (AUG-CC-PVTZ AUX)
    Blend: AUG-CC-PVTZ-JKFIT
	 Reference Energy          =   -1152.8298224981977000 [Eh]
	 Singles Energy            =      -0.0000000000000000 [Eh]
	 Same-Spin Energy          =      -0.7698526719842673 [Eh]
	 Opposite-Spin Energy      =      -2.2429698393137123 [Eh]
	 Correlation Energy        =      -3.0128225112979798 [Eh]
	 Total Energy              =   -1155.8426450094957545 [Eh]

	 ================> DF-SCS-MP2 Energies <==================
	-----------------------------------------------------------
	 SCS Same-Spin Scale       =       0.3333333333333333 [-]
	 SCS Opposite-Spin Scale   =       1.2000000000000000 [-]
	 SCS Same-Spin Energy      =      -0.2566175573280891 [Eh]
	 SCS Opposite-Spin Energy  =      -2.6915638071764545 [Eh]
	 SCS Correlation Energy    =      -2.9481813645045434 [Eh]
	 SCS Total Energy          =   -1155.7780038627022350 [Eh]
	-----------------------------------------------------------

  Dipole Moment: [D]
     X:    -5.3437      Y:     0.0451      Z:     2.0409     Total:     5.7204

*** Psi4 exiting successfully. Buy a developer a beer!
