                               Psi4 1.4a3.dev225

  ==> Input File <==

--------------------------------------------------------------------------
#psi4
#
memory 32 gb

molecule  {
0 1
  S        1.2441830     0.0010390    -0.8590750
  F        1.5874080    -1.0933110     1.5061340
  F        3.3145200    -0.0009050     0.7339870
  F        1.5874370     1.0896860     1.5087600
  O        1.6149610    -1.2856280    -1.4517330
  O        1.6149580     1.2891350    -1.4486230
  C       -0.4817510     0.0005820    -0.4824320
  C       -1.1416100    -1.2204050    -0.3274150
  C       -1.1506782     1.3667510    -0.3228152
  C       -3.1954030    -0.0001810     0.1494170
  C        1.9826530    -0.0010090     0.8356960
  C       -2.4997500    -1.2060900    -0.0161970
  C       -2.4997550     1.2061250    -0.0133040
  C       -4.6532730    -0.0006360     0.5253300
  H       -0.6057720    -2.1536140    -0.4772800
  H       -0.6057800     2.1547590    -0.4721140
  H       -3.0298860    -2.1498930     0.0955450
  H       -3.0298940     2.1496560     0.1007020
  H       -5.1606490     0.8856040     0.1349280
  H       -5.1606620    -0.8858980     0.1327310
  H       -4.7748820    -0.0019860     1.6139510
units angstrom
no_reorient  #important for SAPT in psi4, default
symmetry c1  #important for SAPT in psi4, default
}

set PROPERTIES_ORIGIN ["COM"]
properties('MP2/aug-cc-pvtz', properties = ['dipole'])
--------------------------------------------------------------------------

    Molecular point group: c1
  Charge       = 0
  Multiplicity = 1
  Basis Set: AUG-CC-PVTZ
    Blend: AUG-CC-PVTZ
  Basis Set: (AUG-CC-PVTZ AUX)
    Blend: AUG-CC-PVTZ-JKFIT

    Orbital Energies [Eh]
    ---------------------

    Doubly Occupied:

       1A    -92.213233     2A    -26.370071     3A    -26.369765
       4A    -26.367211     5A    -20.572313     6A    -20.571035
       7A    -11.548020     8A    -11.302356     9A    -11.291372
      10A    -11.290974    11A    -11.287754    12A    -11.269774
      13A    -11.267530    14A    -11.254295    15A     -9.181915
      16A     -6.866764    17A     -6.866020    18A     -6.865778
      19A     -1.755294    20A     -1.663696    21A     -1.662745
      22A     -1.463479    23A     -1.356302    24A     -1.188650
      25A     -1.094334    26A     -1.058172    27A     -1.037008
      28A     -0.978980    29A     -0.915386    30A     -0.876348
      31A     -0.856834    32A     -0.849043    33A     -0.844566
      34A     -0.791245    35A     -0.741461    36A     -0.735205
      37A     -0.726903    38A     -0.699488    39A     -0.693890
      40A     -0.690275    41A     -0.678150    42A     -0.676337
      43A     -0.665013    44A     -0.647493    45A     -0.633839
      46A     -0.626554    47A     -0.605868    48A     -0.567010
      49A     -0.554706    50A     -0.528468    51A     -0.523147
      52A     -0.518234    53A     -0.508905    54A     -0.495046
      55A     -0.462733    56A     -0.379505    57A     -0.363287

  @DF-RHF Final Energy: -1152.80148545012366

   => Energetics <=

    Nuclear Repulsion Energy =           1099.6912489337105399
    One-Electron Energy =               -3775.2459059520124356
    Two-Electron Energy =                1522.7531715681782316
    Total Energy =                      -1152.8014854501236641
  Basis Set: (AUG-CC-PVTZ AUX)
    Blend: AUG-CC-PVTZ-RI
    Molecular point group: c1

    Geometry (in Angstrom), charge = 0, multiplicity = 1:

       Center              X                  Y                   Z               Mass
    ------------   -----------------  -----------------  -----------------  -----------------
         S            1.116905821903    -0.006744121169    -0.871047801686    31.972071174400
         F            1.460130821903    -1.101094121169     1.494161198314    18.998403162730
         F            3.187242821903    -0.008688121169     0.722014198314    18.998403162730
         F            1.460159821903     1.081902878831     1.496787198314    18.998403162730
         O            1.487683821903    -1.293411121169    -1.463705801686    15.994914619570
         O            1.487680821903     1.281351878831    -1.460595801686    15.994914619570
         C           -0.609028178097    -0.007201121169    -0.494404801686    12.000000000000
         C           -1.268887178097    -1.228188121169    -0.339387801686    12.000000000000
         C           -1.277955378097     1.358967878831    -0.334788001686    12.000000000000
         C           -3.322680178097    -0.007964121169     0.137444198314    12.000000000000
         C            1.855375821903    -0.008792121169     0.823723198314    12.000000000000
         C           -2.627027178097    -1.213873121169    -0.028169801686    12.000000000000
         C           -2.627032178097     1.198341878831    -0.025276801686    12.000000000000
         C           -4.780550178097    -0.008419121169     0.513357198314    12.000000000000
         H           -0.733049178097    -2.161397121169    -0.489252801686     1.007825032230
         H           -0.733057178097     2.146975878831    -0.484086801686     1.007825032230
         H           -3.157163178097    -2.157676121169     0.083572198314     1.007825032230
         H           -3.157171178097     2.141872878831     0.088729198314     1.007825032230
         H           -5.287926178097     0.877820878831     0.122955198314     1.007825032230
         H           -5.287939178097    -0.893681121169     0.120758198314     1.007825032230
         H           -4.902159178097    -0.009769121169     1.601978198314     1.007825032230

  Basis Set: AUG-CC-PVTZ
    Blend: AUG-CC-PVTZ
  Basis Set: (AUG-CC-PVTZ AUX)
    Blend: AUG-CC-PVTZ-JKFIT
	 Reference Energy          =   -1152.8014854501236641 [Eh]
	 Singles Energy            =      -0.0000000000000000 [Eh]
	 Same-Spin Energy          =      -0.7700019656551939 [Eh]
	 Opposite-Spin Energy      =      -2.2450999940415386 [Eh]
	 Correlation Energy        =      -3.0151019596967323 [Eh]
	 Total Energy              =   -1155.8165874098203858 [Eh]

	 ================> DF-SCS-MP2 Energies <==================
	-----------------------------------------------------------
	 SCS Same-Spin Scale       =       0.3333333333333333 [-]
	 SCS Opposite-Spin Scale   =       1.2000000000000000 [-]
	 SCS Same-Spin Energy      =      -0.2566673218850646 [Eh]
	 SCS Opposite-Spin Energy  =      -2.6941199928498460 [Eh]
	 SCS Correlation Energy    =      -2.9507873147349106 [Eh]
	 SCS Total Energy          =   -1155.7522727648586169 [Eh]
	-----------------------------------------------------------

  Dipole Moment: [D]
     X:    -5.5522      Y:    -0.0419      Z:     2.1535     Total:     5.9554

*** Psi4 exiting successfully. Buy a developer a beer!
