                               Psi4 1.4a3.dev225

  ==> Input File <==

--------------------------------------------------------------------------
#psi4
#
memory 32 gb

molecule  {
0 1
  S        1.2441830     0.0010390    -0.8590750
  F        1.5874080    -1.0933110     1.5061340
  F        3.3145200    -0.0009050     0.7339870
  F        1.5874370     1.0896860     1.5087600
  O        1.6149610    -1.2856280    -1.4517330
  O        1.6149580     1.2891350    -1.4486230
  C       -0.4817510     0.0005820    -0.4824320
  C       -1.1416100    -1.2204050    -0.3274150
  C       -1.1416150     1.2211910    -0.3244870
  C       -3.1954030    -0.0001810     0.1494170
  C        1.9826530    -0.0010090     0.8356960
  C       -2.5202022    -1.2183835    -0.0107832
  C       -2.4997550     1.2061250    -0.0133040
  C       -4.6532730    -0.0006360     0.5253300
  H       -0.6057720    -2.1536140    -0.4772800
  H       -0.6057800     2.1547590    -0.4721140
  H       -3.0298860    -2.1498930     0.0955450
  H       -3.0298940     2.1496560     0.1007020
  H       -5.1606490     0.8856040     0.1349280
  H       -5.1606620    -0.8858980     0.1327310
  H       -4.7748820    -0.0019860     1.6139510
units angstrom
no_reorient  #important for SAPT in psi4, default
symmetry c1  #important for SAPT in psi4, default
}

set PROPERTIES_ORIGIN ["COM"]
properties('MP2/aug-cc-pvtz', properties = ['dipole'])
--------------------------------------------------------------------------

    Molecular point group: c1
  Charge       = 0
  Multiplicity = 1
  Basis Set: AUG-CC-PVTZ
    Blend: AUG-CC-PVTZ
  Basis Set: (AUG-CC-PVTZ AUX)
    Blend: AUG-CC-PVTZ-JKFIT

    Orbital Energies [Eh]
    ---------------------

    Doubly Occupied:

       1A    -92.216321     2A    -26.371504     3A    -26.371442
       4A    -26.368918     5A    -20.574131     6A    -20.573979
       7A    -11.550148     8A    -11.293262     9A    -11.287397
      10A    -11.287370    11A    -11.284661    12A    -11.265676
      13A    -11.265205    14A    -11.251555    15A     -9.185005
      16A     -6.869865    17A     -6.869140    18A     -6.868847
      19A     -1.756892    20A     -1.665199    21A     -1.664354
      22A     -1.465908    23A     -1.358471    24A     -1.196254
      25A     -1.100994    26A     -1.051786    27A     -1.038780
      28A     -0.980076    29A     -0.917070    30A     -0.871686
      31A     -0.856376    32A     -0.850575    33A     -0.844574
      34A     -0.797217    35A     -0.743047    36A     -0.736637
      37A     -0.725622    38A     -0.695407    39A     -0.693218
      40A     -0.682804    41A     -0.678064    42A     -0.672662
      43A     -0.666754    44A     -0.646987    45A     -0.640769
      46A     -0.625278    47A     -0.604430    48A     -0.570068
      49A     -0.543227    50A     -0.531439    51A     -0.529094
      52A     -0.522999    53A     -0.514398    54A     -0.497148
      55A     -0.468002    56A     -0.374616    57A     -0.370094

  @DF-RHF Final Energy: -1152.82962874906002

   => Energetics <=

    Nuclear Repulsion Energy =           1102.0975630862219532
    One-Electron Energy =               -3780.0475784279974505
    Two-Electron Energy =                1525.1203865927157040
    Total Energy =                      -1152.8296287490600207
  Basis Set: (AUG-CC-PVTZ AUX)
    Blend: AUG-CC-PVTZ-RI
    Molecular point group: c1

    Geometry (in Angstrom), charge = 0, multiplicity = 1:

       Center              X                  Y                   Z               Mass
    ------------   -----------------  -----------------  -----------------  -----------------
         S            1.117515914532     0.001711867668    -0.871248255336    31.972071174400
         F            1.460740914532    -1.092638132332     1.493960744664    18.998403162730
         F            3.187852914532    -0.000232132332     0.721813744664    18.998403162730
         F            1.460769914532     1.090358867668     1.496586744664    18.998403162730
         O            1.488293914532    -1.284955132332    -1.463906255336    15.994914619570
         O            1.488290914532     1.289807867668    -1.460796255336    15.994914619570
         C           -0.608418085468     0.001254867668    -0.494605255336    12.000000000000
         C           -1.268277085468    -1.219732132332    -0.339588255336    12.000000000000
         C           -1.268282085468     1.221863867668    -0.336660255336    12.000000000000
         C           -3.322070085468     0.000491867668     0.137243744664    12.000000000000
         C            1.855985914532    -0.000336132332     0.823522744664    12.000000000000
         C           -2.646869285468    -1.217710632332    -0.022956455336    12.000000000000
         C           -2.626422085468     1.206797867668    -0.025477255336    12.000000000000
         C           -4.779940085468     0.000036867668     0.513156744664    12.000000000000
         H           -0.732439085468    -2.152941132332    -0.489453255336     1.007825032230
         H           -0.732447085468     2.155431867668    -0.484287255336     1.007825032230
         H           -3.156553085468    -2.149220132332     0.083371744664     1.007825032230
         H           -3.156561085468     2.150328867668     0.088528744664     1.007825032230
         H           -5.287316085468     0.886276867668     0.122754744664     1.007825032230
         H           -5.287329085468    -0.885225132332     0.120557744664     1.007825032230
         H           -4.901549085468    -0.001313132332     1.601777744664     1.007825032230

  Basis Set: AUG-CC-PVTZ
    Blend: AUG-CC-PVTZ
  Basis Set: (AUG-CC-PVTZ AUX)
    Blend: AUG-CC-PVTZ-JKFIT
	 Reference Energy          =   -1152.8296287490600207 [Eh]
	 Singles Energy            =      -0.0000000000000000 [Eh]
	 Same-Spin Energy          =      -0.7696280411692433 [Eh]
	 Opposite-Spin Energy      =      -2.2427785111118603 [Eh]
	 Correlation Energy        =      -3.0124065522811039 [Eh]
	 Total Energy              =   -1155.8420353013411841 [Eh]

	 ================> DF-SCS-MP2 Energies <==================
	-----------------------------------------------------------
	 SCS Same-Spin Scale       =       0.3333333333333333 [-]
	 SCS Opposite-Spin Scale   =       1.2000000000000000 [-]
	 SCS Same-Spin Energy      =      -0.2565426803897478 [Eh]
	 SCS Opposite-Spin Energy  =      -2.6913342133342324 [Eh]
	 SCS Correlation Energy    =      -2.9478768937239801 [Eh]
	 SCS Total Energy          =   -1155.7775056427840354 [Eh]
	-----------------------------------------------------------

  Dipole Moment: [D]
     X:    -5.4106      Y:    -0.0183      Z:     2.1323     Total:     5.8156

*** Psi4 exiting successfully. Buy a developer a beer!
