                               Psi4 1.4a3.dev225

  ==> Input File <==

--------------------------------------------------------------------------
#psi4
#
memory 32 gb

molecule  {
0 1
  S        1.2441830     0.0010390    -0.8590750
  F        1.5874080    -1.0933110     1.5061340
  F        3.3145200    -0.0009050     0.7339870
  F        1.5874370     1.0896860     1.5087600
  O        1.6149610    -1.2856280    -1.4517330
  O        1.6149580     1.2891350    -1.4486230
  C       -0.4817510     0.0005820    -0.4824320
  C       -1.1416100    -1.2204050    -0.3274150
  C       -1.1416150     1.2211910    -0.3244870
  C       -3.1954030    -0.0001810     0.1494170
  C        1.9826530    -0.0010090     0.8356960
  C       -2.5408601    -1.2303060    -0.0053206
  C       -2.4997550     1.2061250    -0.0133040
  C       -4.6532730    -0.0006360     0.5253300
  H       -0.6057720    -2.1536140    -0.4772800
  H       -0.6057800     2.1547590    -0.4721140
  H       -3.0298860    -2.1498930     0.0955450
  H       -3.0298940     2.1496560     0.1007020
  H       -5.1606490     0.8856040     0.1349280
  H       -5.1606620    -0.8858980     0.1327310
  H       -4.7748820    -0.0019860     1.6139510
units angstrom
no_reorient  #important for SAPT in psi4, default
symmetry c1  #important for SAPT in psi4, default
}

set PROPERTIES_ORIGIN ["COM"]
properties('MP2/aug-cc-pvtz', properties = ['dipole'])
--------------------------------------------------------------------------

    Molecular point group: c1
  Charge       = 0
  Multiplicity = 1
  Basis Set: AUG-CC-PVTZ
    Blend: AUG-CC-PVTZ
  Basis Set: (AUG-CC-PVTZ AUX)
    Blend: AUG-CC-PVTZ-JKFIT

    Orbital Energies [Eh]
    ---------------------

    Doubly Occupied:

       1A    -92.216548     2A    -26.371614     3A    -26.371496
       4A    -26.369018     5A    -20.574364     6A    -20.574067
       7A    -11.550272     8A    -11.293574     9A    -11.290099
      10A    -11.287301    11A    -11.284761    12A    -11.266295
      13A    -11.265346    14A    -11.250701    15A     -9.185222
      16A     -6.870082    17A     -6.869360    18A     -6.869063
      19A     -1.756980    20A     -1.665280    21A     -1.664444
      22A     -1.466065    23A     -1.358621    24A     -1.194644
      25A     -1.101335    26A     -1.050241    27A     -1.038418
      28A     -0.979263    29A     -0.916996    30A     -0.873726
      31A     -0.856003    32A     -0.850659    33A     -0.844116
      34A     -0.797701    35A     -0.743127    36A     -0.736700
      37A     -0.725568    38A     -0.695405    39A     -0.693269
      40A     -0.681833    41A     -0.678125    42A     -0.674719
      43A     -0.667082    44A     -0.647145    45A     -0.642281
      46A     -0.625062    47A     -0.603916    48A     -0.570240
      49A     -0.541241    50A     -0.532436    51A     -0.529099
      52A     -0.523144    53A     -0.513973    54A     -0.497213
      55A     -0.467928    56A     -0.375302    57A     -0.367971

  @DF-RHF Final Energy: -1152.82708537809208

   => Energetics <=

    Nuclear Repulsion Energy =           1101.6139226135755962
    One-Electron Energy =               -3779.0691095274046347
    Two-Electron Energy =                1524.6281015357369597
    Total Energy =                      -1152.8270853780920788
  Basis Set: (AUG-CC-PVTZ AUX)
    Blend: AUG-CC-PVTZ-RI
    Molecular point group: c1

    Geometry (in Angstrom), charge = 0, multiplicity = 1:

       Center              X                  Y                   Z               Mass
    ------------   -----------------  -----------------  -----------------  -----------------
         S            1.118622529031     0.002350539138    -0.871540879095    31.972071174400
         F            1.461847529031    -1.091999460862     1.493668120905    18.998403162730
         F            3.188959529031     0.000406539138     0.721521120905    18.998403162730
         F            1.461876529031     1.090997539138     1.496294120905    18.998403162730
         O            1.489400529031    -1.284316460862    -1.464198879095    15.994914619570
         O            1.489397529031     1.290446539138    -1.461088879095    15.994914619570
         C           -0.607311470969     0.001893539138    -0.494897879095    12.000000000000
         C           -1.267170470969    -1.219093460862    -0.339880879095    12.000000000000
         C           -1.267175470969     1.222502539138    -0.336952879095    12.000000000000
         C           -3.320963470969     0.001130539138     0.136951120905    12.000000000000
         C            1.857092529031     0.000302539138     0.823230120905    12.000000000000
         C           -2.666420570969    -1.228994460862    -0.017786479095    12.000000000000
         C           -2.625315470969     1.207436539138    -0.025769879095    12.000000000000
         C           -4.778833470969     0.000675539138     0.512864120905    12.000000000000
         H           -0.731332470969    -2.152302460862    -0.489745879095     1.007825032230
         H           -0.731340470969     2.156070539138    -0.484579879095     1.007825032230
         H           -3.155446470969    -2.148581460862     0.083079120905     1.007825032230
         H           -3.155454470969     2.150967539138     0.088236120905     1.007825032230
         H           -5.286209470969     0.886915539138     0.122462120905     1.007825032230
         H           -5.286222470969    -0.884586460862     0.120265120905     1.007825032230
         H           -4.900442470969    -0.000674460862     1.601485120905     1.007825032230

  Basis Set: AUG-CC-PVTZ
    Blend: AUG-CC-PVTZ
  Basis Set: (AUG-CC-PVTZ AUX)
    Blend: AUG-CC-PVTZ-JKFIT
	 Reference Energy          =   -1152.8270853780920788 [Eh]
	 Singles Energy            =      -0.0000000000000000 [Eh]
	 Same-Spin Energy          =      -0.7695932359460219 [Eh]
	 Opposite-Spin Energy      =      -2.2429670951946750 [Eh]
	 Correlation Energy        =      -3.0125603311406968 [Eh]
	 Total Energy              =   -1155.8396457092328546 [Eh]

	 ================> DF-SCS-MP2 Energies <==================
	-----------------------------------------------------------
	 SCS Same-Spin Scale       =       0.3333333333333333 [-]
	 SCS Opposite-Spin Scale   =       1.2000000000000000 [-]
	 SCS Same-Spin Energy      =      -0.2565310786486740 [Eh]
	 SCS Opposite-Spin Energy  =      -2.6915605142336099 [Eh]
	 SCS Correlation Energy    =      -2.9480915928822840 [Eh]
	 SCS Total Energy          =   -1155.7751769709743712 [Eh]
	-----------------------------------------------------------

  Dipole Moment: [D]
     X:    -5.3975      Y:    -0.0316      Z:     2.1292     Total:     5.8024

*** Psi4 exiting successfully. Buy a developer a beer!
