                               Psi4 1.4a3.dev225

  ==> Input File <==

--------------------------------------------------------------------------
#psi4
#
memory 32 gb

molecule  {
0 1
  S        1.2441830     0.0010390    -0.8590750
  F        1.5874080    -1.0933110     1.5061340
  F        3.3145200    -0.0009050     0.7339870
  F        1.5874370     1.0896860     1.5087600
  O        1.6149610    -1.2856280    -1.4517330
  O        1.6149580     1.2891350    -1.4486230
  C       -0.4817510     0.0005820    -0.4824320
  C       -1.1416100    -1.2204050    -0.3274150
  C       -1.1416150     1.2211910    -0.3244870
  C       -3.1954030    -0.0001810     0.1494170
  C        1.9826530    -0.0010090     0.8356960
  C       -2.4997500    -1.2060900    -0.0161970
  C       -2.4997550     1.2061250    -0.0133040
  C       -4.6532730    -0.0006360     0.5253300
  H       -0.6057720    -2.1536140    -0.4772800
  H       -0.6057800     2.1547590    -0.4721140
  H       -3.1273148    -2.3233459     0.1160810
  H       -3.0298940     2.1496560     0.1007020
  H       -5.1606490     0.8856040     0.1349280
  H       -5.1606620    -0.8858980     0.1327310
  H       -4.7748820    -0.0019860     1.6139510
units angstrom
no_reorient  #important for SAPT in psi4, default
symmetry c1  #important for SAPT in psi4, default
}

set PROPERTIES_ORIGIN ["COM"]
properties('MP2/aug-cc-pvtz', properties = ['dipole'])
--------------------------------------------------------------------------

    Molecular point group: c1
  Charge       = 0
  Multiplicity = 1
  Basis Set: AUG-CC-PVTZ
    Blend: AUG-CC-PVTZ
  Basis Set: (AUG-CC-PVTZ AUX)
    Blend: AUG-CC-PVTZ-JKFIT

    Orbital Energies [Eh]
    ---------------------

    Doubly Occupied:

       1A    -92.216983     2A    -26.371898     3A    -26.371834
       4A    -26.369306     5A    -20.574687     6A    -20.574569
       7A    -11.550620     8A    -11.294446     9A    -11.289855
      10A    -11.287027    11A    -11.285667    12A    -11.285528
      13A    -11.266764    14A    -11.252213    15A     -9.185657
      16A     -6.870518    17A     -6.869797    18A     -6.869498
      19A     -1.757282    20A     -1.665587    21A     -1.664734
      22A     -1.466479    23A     -1.359024    24A     -1.198725
      25A     -1.100994    26A     -1.051270    27A     -1.039614
      28A     -0.980639    29A     -0.917543    30A     -0.864310
      31A     -0.857359    32A     -0.850958    33A     -0.845350
      34A     -0.792072    35A     -0.742500    36A     -0.737018
      37A     -0.724523    38A     -0.695931    39A     -0.693567
      40A     -0.684886    41A     -0.678462    42A     -0.669504
      43A     -0.665706    44A     -0.647775    45A     -0.633630
      46A     -0.611153    47A     -0.604745    48A     -0.563771
      49A     -0.546076    50A     -0.533652    51A     -0.524018
      52A     -0.517498    53A     -0.511515    54A     -0.497763
      55A     -0.468095    56A     -0.375250    57A     -0.373553

  @DF-RHF Final Energy: -1152.80826029909645

   => Energetics <=

    Nuclear Repulsion Energy =           1101.5502373438901031
    One-Electron Energy =               -3778.9181993291267645
    Two-Electron Energy =                1524.5597016861399879
    Total Energy =                      -1152.8082602990964460
  Basis Set: (AUG-CC-PVTZ AUX)
    Blend: AUG-CC-PVTZ-RI
    Molecular point group: c1

    Geometry (in Angstrom), charge = 0, multiplicity = 1:

       Center              X                  Y                   Z               Mass
    ------------   -----------------  -----------------  -----------------  -----------------
         S            1.116858649332     0.001833683412    -0.871050636781    31.972071174400
         F            1.460083649332    -1.092516316588     1.494158363219    18.998403162730
         F            3.187195649332    -0.000110316588     0.722011363219    18.998403162730
         F            1.460112649332     1.090480683412     1.496784363219    18.998403162730
         O            1.487636649332    -1.284833316588    -1.463708636781    15.994914619570
         O            1.487633649332     1.289929683412    -1.460598636781    15.994914619570
         C           -0.609075350668     0.001376683412    -0.494407636781    12.000000000000
         C           -1.268934350668    -1.219610316588    -0.339390636781    12.000000000000
         C           -1.268939350668     1.221985683412    -0.336462636781    12.000000000000
         C           -3.322727350668     0.000613683412     0.137441363219    12.000000000000
         C            1.855328649332    -0.000214316588     0.823720363219    12.000000000000
         C           -2.627074350668    -1.205295316588    -0.028172636781    12.000000000000
         C           -2.627079350668     1.206919683412    -0.025279636781    12.000000000000
         C           -4.780597350668     0.000158683412     0.513354363219    12.000000000000
         H           -0.733096350668    -2.152819316588    -0.489255636781     1.007825032230
         H           -0.733104350668     2.155553683412    -0.484089636781     1.007825032230
         H           -3.254639150668    -2.322551216588     0.104105363219     1.007825032230
         H           -3.157218350668     2.150450683412     0.088726363219     1.007825032230
         H           -5.287973350668     0.886398683412     0.122952363219     1.007825032230
         H           -5.287986350668    -0.885103316588     0.120755363219     1.007825032230
         H           -4.902206350668    -0.001191316588     1.601975363219     1.007825032230

  Basis Set: AUG-CC-PVTZ
    Blend: AUG-CC-PVTZ
  Basis Set: (AUG-CC-PVTZ AUX)
    Blend: AUG-CC-PVTZ-JKFIT
	 Reference Energy          =   -1152.8082602990964460 [Eh]
	 Singles Energy            =      -0.0000000000000000 [Eh]
	 Same-Spin Energy          =      -0.7702729764539367 [Eh]
	 Opposite-Spin Energy      =      -2.2449847268845100 [Eh]
	 Correlation Energy        =      -3.0152577033384467 [Eh]
	 Total Energy              =   -1155.8235180024348665 [Eh]

	 ================> DF-SCS-MP2 Energies <==================
	-----------------------------------------------------------
	 SCS Same-Spin Scale       =       0.3333333333333333 [-]
	 SCS Opposite-Spin Scale   =       1.2000000000000000 [-]
	 SCS Same-Spin Energy      =      -0.2567576588179789 [Eh]
	 SCS Opposite-Spin Energy  =      -2.6939816722614118 [Eh]
	 SCS Correlation Energy    =      -2.9507393310793906 [Eh]
	 SCS Total Energy          =   -1155.7589996301758219 [Eh]
	-----------------------------------------------------------

  Dipole Moment: [D]
     X:    -5.3601      Y:     0.0590      Z:     2.1250     Total:     5.7663

*** Psi4 exiting successfully. Buy a developer a beer!
