                               Psi4 1.4a3.dev225

  ==> Input File <==

--------------------------------------------------------------------------
#psi4
#
memory 32 gb

molecule  {
0 1
  S        1.2441830     0.0010390    -0.8590750
  F        1.5874080    -1.0933110     1.5061340
  F        3.3145200    -0.0009050     0.7339870
  F        1.5874370     1.0896860     1.5087600
  O        1.6149610    -1.2856280    -1.4517330
  O        1.6149580     1.2891350    -1.4486230
  C       -0.4817510     0.0005820    -0.4824320
  C       -1.1416100    -1.2204050    -0.3274150
  C       -1.1416150     1.2211910    -0.3244870
  C       -3.3147075    -0.0815266     0.1755818
  C        1.9826530    -0.0010090     0.8356960
  C       -2.4997500    -1.2060900    -0.0161970
  C       -2.4997550     1.2061250    -0.0133040
  C       -4.6532730    -0.0006360     0.5253300
  H       -0.6057720    -2.1536140    -0.4772800
  H       -0.6057800     2.1547590    -0.4721140
  H       -3.0298860    -2.1498930     0.0955450
  H       -3.0298940     2.1496560     0.1007020
  H       -5.1606490     0.8856040     0.1349280
  H       -5.1606620    -0.8858980     0.1327310
  H       -4.7748820    -0.0019860     1.6139510
units angstrom
no_reorient  #important for SAPT in psi4, default
symmetry c1  #important for SAPT in psi4, default
}

set PROPERTIES_ORIGIN ["COM"]
properties('MP2/aug-cc-pvtz', properties = ['dipole'])
--------------------------------------------------------------------------

    Molecular point group: c1
  Charge       = 0
  Multiplicity = 1
  Basis Set: AUG-CC-PVTZ
    Blend: AUG-CC-PVTZ
  Basis Set: (AUG-CC-PVTZ AUX)
    Blend: AUG-CC-PVTZ-JKFIT

    Orbital Energies [Eh]
    ---------------------

    Doubly Occupied:

       1A    -92.214991     2A    -26.370504     3A    -26.370477
       4A    -26.368003     5A    -20.573028     6A    -20.572848
       7A    -11.549083     8A    -11.298459     9A    -11.292032
      10A    -11.287521    11A    -11.280058    12A    -11.274806
      13A    -11.265303    14A    -11.251421    15A     -9.183695
      16A     -6.868553    17A     -6.867824    18A     -6.867543
      19A     -1.755935    20A     -1.664220    21A     -1.663432
      22A     -1.464784    23A     -1.357382    24A     -1.190548
      25A     -1.114132    26A     -1.047767    27A     -1.043322
      28A     -0.988284    29A     -0.916693    30A     -0.865370
      31A     -0.852309    32A     -0.849608    33A     -0.841025
      34A     -0.793301    35A     -0.741886    36A     -0.735675
      37A     -0.725018    38A     -0.694621    39A     -0.692895
      40A     -0.683493    41A     -0.680305    42A     -0.677148
      43A     -0.666141    44A     -0.647330    45A     -0.634388
      46A     -0.620060    47A     -0.617261    48A     -0.584309
      49A     -0.570601    50A     -0.527924    51A     -0.522051
      52A     -0.513467    53A     -0.497567    54A     -0.492901
      55A     -0.467333    56A     -0.375290    57A     -0.356248

  @DF-RHF Final Energy: -1152.80129641531926

   => Energetics <=

    Nuclear Repulsion Energy =           1100.8260320075860363
    One-Electron Energy =               -3777.4783077591623623
    Two-Electron Energy =                1523.8509793362570690
    Total Energy =                      -1152.8012964153192570
  Basis Set: (AUG-CC-PVTZ AUX)
    Blend: AUG-CC-PVTZ-RI
    Molecular point group: c1

    Geometry (in Angstrom), charge = 0, multiplicity = 1:

       Center              X                  Y                   Z               Mass
    ------------   -----------------  -----------------  -----------------  -----------------
         S            1.122811292496     0.005410891046    -0.872359857070    31.972071174400
         F            1.466036292496    -1.088939108954     1.492849142930    18.998403162730
         F            3.193148292496     0.003466891046     0.720702142930    18.998403162730
         F            1.466065292496     1.094057891046     1.495475142930    18.998403162730
         O            1.493589292496    -1.281256108954    -1.465017857070    15.994914619570
         O            1.493586292496     1.293506891046    -1.461907857070    15.994914619570
         C           -0.603122707504     0.004953891046    -0.495716857070    12.000000000000
         C           -1.262981707504    -1.216033108954    -0.340699857070    12.000000000000
         C           -1.262986707504     1.225562891046    -0.337771857070    12.000000000000
         C           -3.436079207504    -0.077154708954     0.162296942930    12.000000000000
         C            1.861281292496     0.003362891046     0.822411142930    12.000000000000
         C           -2.621121707504    -1.201718108954    -0.029481857070    12.000000000000
         C           -2.621126707504     1.210496891046    -0.026588857070    12.000000000000
         C           -4.774644707504     0.003735891046     0.512045142930    12.000000000000
         H           -0.727143707504    -2.149242108954    -0.490564857070     1.007825032230
         H           -0.727151707504     2.159130891046    -0.485398857070     1.007825032230
         H           -3.151257707504    -2.145521108954     0.082260142930     1.007825032230
         H           -3.151265707504     2.154027891046     0.087417142930     1.007825032230
         H           -5.282020707504     0.889975891046     0.121643142930     1.007825032230
         H           -5.282033707504    -0.881526108954     0.119446142930     1.007825032230
         H           -4.896253707504     0.002385891046     1.600666142930     1.007825032230

  Basis Set: AUG-CC-PVTZ
    Blend: AUG-CC-PVTZ
  Basis Set: (AUG-CC-PVTZ AUX)
    Blend: AUG-CC-PVTZ-JKFIT
	 Reference Energy          =   -1152.8012964153192570 [Eh]
	 Singles Energy            =      -0.0000000000000000 [Eh]
	 Same-Spin Energy          =      -0.7715278527434922 [Eh]
	 Opposite-Spin Energy      =      -2.2461127142125510 [Eh]
	 Correlation Energy        =      -3.0176405669560431 [Eh]
	 Total Energy              =   -1155.8189369822753179 [Eh]

	 ================> DF-SCS-MP2 Energies <==================
	-----------------------------------------------------------
	 SCS Same-Spin Scale       =       0.3333333333333333 [-]
	 SCS Opposite-Spin Scale   =       1.2000000000000000 [-]
	 SCS Same-Spin Energy      =      -0.2571759509144974 [Eh]
	 SCS Opposite-Spin Energy  =      -2.6953352570550613 [Eh]
	 SCS Correlation Energy    =      -2.9525112079695588 [Eh]
	 SCS Total Energy          =   -1155.7538076232888216 [Eh]
	-----------------------------------------------------------

  Dipole Moment: [D]
     X:    -5.6976      Y:     0.0207      Z:     2.2169     Total:     6.1138

*** Psi4 exiting successfully. Buy a developer a beer!
