                               Psi4 1.4a3.dev225

  ==> Input File <==

--------------------------------------------------------------------------
#psi4
#
memory 32 gb

molecule  {
0 1
  S        1.2441830     0.0010390    -0.8590750
  F        1.5874080    -1.0933110     1.5061340
  F        3.3145200    -0.0009050     0.7339870
  F        1.5874370     1.0896860     1.5087600
  O        1.6149610    -1.2856280    -1.4517330
  O        1.6149580     1.2891350    -1.4486230
  C       -0.4817510     0.0005820    -0.4824320
  C       -1.1416100    -1.2204050    -0.3274150
  C       -1.1416150     1.2211910    -0.3244870
  C       -3.1954030    -0.0001810     0.1494170
  C        1.9826530    -0.0010090     0.8356960
  C       -2.4997500    -1.2060900    -0.0161970
  C       -2.4997550     1.2061250    -0.0133040
  C       -4.6339065    -0.0006300     0.5203363
  H       -0.6057720    -2.1536140    -0.4772800
  H       -0.6057800     2.1547590    -0.4721140
  H       -3.0298860    -2.1498930     0.0955450
  H       -3.0298940     2.1496560     0.1007020
  H       -5.1606490     0.8856040     0.1349280
  H       -5.1606620    -0.8858980     0.1327310
  H       -4.7748820    -0.0019860     1.6139510
units angstrom
no_reorient  #important for SAPT in psi4, default
symmetry c1  #important for SAPT in psi4, default
}

set PROPERTIES_ORIGIN ["COM"]
properties('MP2/aug-cc-pvtz', properties = ['dipole'])
--------------------------------------------------------------------------

    Molecular point group: c1
  Charge       = 0
  Multiplicity = 1
  Basis Set: AUG-CC-PVTZ
    Blend: AUG-CC-PVTZ
  Basis Set: (AUG-CC-PVTZ AUX)
    Blend: AUG-CC-PVTZ-JKFIT

    Orbital Energies [Eh]
    ---------------------

    Doubly Occupied:

       1A    -92.216114     2A    -26.371428     3A    -26.371406
       4A    -26.368837     5A    -20.573927     6A    -20.573908
       7A    -11.550047     8A    -11.293021     9A    -11.286750
      10A    -11.284692    11A    -11.284590    12A    -11.265131
      13A    -11.265091    14A    -11.253018    15A     -9.184809
      16A     -6.869668    17A     -6.868942    18A     -6.868652
      19A     -1.756829    20A     -1.665145    21A     -1.664285
      22A     -1.465775    23A     -1.358345    24A     -1.198602
      25A     -1.102558    26A     -1.053728    27A     -1.039502
      28A     -0.980922    29A     -0.916717    30A     -0.870096
      31A     -0.856637    32A     -0.850515    33A     -0.844908
      34A     -0.796920    35A     -0.743046    36A     -0.736606
      37A     -0.725917    38A     -0.695488    39A     -0.693274
      40A     -0.684230    41A     -0.678024    42A     -0.672565
      43A     -0.666643    44A     -0.647114    45A     -0.639583
      46A     -0.625207    47A     -0.603211    48A     -0.566591
      49A     -0.549851    50A     -0.531833    51A     -0.525372
      52A     -0.522697    53A     -0.514752    54A     -0.497064
      55A     -0.468113    56A     -0.373392    57A     -0.372384

  @DF-RHF Final Energy: -1152.82985263692308

   => Energetics <=

    Nuclear Repulsion Energy =           1102.9878384041476238
    One-Electron Energy =               -3781.8264375173944245
    Two-Electron Energy =                1526.0087464763237222
    Total Energy =                      -1152.8298526369230785
  Basis Set: (AUG-CC-PVTZ AUX)
    Blend: AUG-CC-PVTZ-RI
    Molecular point group: c1

    Geometry (in Angstrom), charge = 0, multiplicity = 1:

       Center              X                  Y                   Z               Mass
    ------------   -----------------  -----------------  -----------------  -----------------
         S            1.115382883065     0.001053000841    -0.870690740274    31.972071174400
         F            1.458607883065    -1.093296999159     1.494518259726    18.998403162730
         F            3.185719883065    -0.000890999159     0.722371259726    18.998403162730
         F            1.458636883065     1.089700000841     1.497144259726    18.998403162730
         O            1.486160883065    -1.285613999159    -1.463348740274    15.994914619570
         O            1.486157883065     1.289149000841    -1.460238740274    15.994914619570
         C           -0.610551116935     0.000596000841    -0.494047740274    12.000000000000
         C           -1.270410116935    -1.220390999159    -0.339030740274    12.000000000000
         C           -1.270415116935     1.221205000841    -0.336102740274    12.000000000000
         C           -3.324203116935    -0.000166999159     0.137801259726    12.000000000000
         C            1.853852883065    -0.000994999159     0.824080259726    12.000000000000
         C           -2.628550116935    -1.206075999159    -0.027812740274    12.000000000000
         C           -2.628555116935     1.206139000841    -0.024919740274    12.000000000000
         C           -4.762706616935    -0.000615999159     0.508720559726    12.000000000000
         H           -0.734572116935    -2.153599999159    -0.488895740274     1.007825032230
         H           -0.734580116935     2.154773000841    -0.483729740274     1.007825032230
         H           -3.158686116935    -2.149878999159     0.083929259726     1.007825032230
         H           -3.158694116935     2.149670000841     0.089086259726     1.007825032230
         H           -5.289449116935     0.885618000841     0.123312259726     1.007825032230
         H           -5.289462116935    -0.885883999159     0.121115259726     1.007825032230
         H           -4.903682116935    -0.001971999159     1.602335259726     1.007825032230

  Basis Set: AUG-CC-PVTZ
    Blend: AUG-CC-PVTZ
  Basis Set: (AUG-CC-PVTZ AUX)
    Blend: AUG-CC-PVTZ-JKFIT
	 Reference Energy          =   -1152.8298526369230785 [Eh]
	 Singles Energy            =      -0.0000000000000000 [Eh]
	 Same-Spin Energy          =      -0.7698783537109725 [Eh]
	 Opposite-Spin Energy      =      -2.2428732170526731 [Eh]
	 Correlation Energy        =      -3.0127515707636454 [Eh]
	 Total Energy              =   -1155.8426042076866906 [Eh]

	 ================> DF-SCS-MP2 Energies <==================
	-----------------------------------------------------------
	 SCS Same-Spin Scale       =       0.3333333333333333 [-]
	 SCS Opposite-Spin Scale   =       1.2000000000000000 [-]
	 SCS Same-Spin Energy      =      -0.2566261179036575 [Eh]
	 SCS Opposite-Spin Energy  =      -2.6914478604632075 [Eh]
	 SCS Correlation Energy    =      -2.9480739783668648 [Eh]
	 SCS Total Energy          =   -1155.7779266152899709 [Eh]
	-----------------------------------------------------------

  Dipole Moment: [D]
     X:    -5.4288      Y:    -0.0026      Z:     2.1379     Total:     5.8346

*** Psi4 exiting successfully. Buy a developer a beer!
