                               Psi4 1.4a3.dev225

  ==> Input File <==

--------------------------------------------------------------------------
#psi4
#
memory 32 gb

molecule  {
0 1
  S        1.2441830     0.0010390    -0.8590750
  F        1.5874080    -1.0933110     1.5061340
  F        3.3145200    -0.0009050     0.7339870
  F        1.5874370     1.0896860     1.5087600
  O        1.6149610    -1.2856280    -1.4517330
  O        1.6149580     1.2891350    -1.4486230
  C       -0.6771524     0.0005303    -0.4397904
  C       -1.1416100    -1.2204050    -0.3274150
  C       -1.1416150     1.2211910    -0.3244870
  C       -3.1954030    -0.0001810     0.1494170
  C        1.9826530    -0.0010090     0.8356960
  C       -2.4997500    -1.2060900    -0.0161970
  C       -2.4997550     1.2061250    -0.0133040
  C       -4.6532730    -0.0006360     0.5253300
  H       -0.6057720    -2.1536140    -0.4772800
  H       -0.6057800     2.1547590    -0.4721140
  H       -3.0298860    -2.1498930     0.0955450
  H       -3.0298940     2.1496560     0.1007020
  H       -5.1606490     0.8856040     0.1349280
  H       -5.1606620    -0.8858980     0.1327310
  H       -4.7748820    -0.0019860     1.6139510
units angstrom
no_reorient  #important for SAPT in psi4, default
symmetry c1  #important for SAPT in psi4, default
}

set PROPERTIES_ORIGIN ["COM"]
properties('MP2/aug-cc-pvtz', properties = ['dipole'])
--------------------------------------------------------------------------

    Molecular point group: c1
  Charge       = 0
  Multiplicity = 1
  Basis Set: AUG-CC-PVTZ
    Blend: AUG-CC-PVTZ
  Basis Set: (AUG-CC-PVTZ AUX)
    Blend: AUG-CC-PVTZ-JKFIT

    Orbital Energies [Eh]
    ---------------------

    Doubly Occupied:

       1A    -92.202717     2A    -26.370615     3A    -26.370593
       4A    -26.367197     5A    -20.570810     6A    -20.570790
       7A    -11.547892     8A    -11.301337     9A    -11.279108
      10A    -11.272552    11A    -11.272466    12A    -11.268663
      13A    -11.268594    14A    -11.249579    15A     -9.172378
      16A     -6.856937    17A     -6.855972    18A     -6.855874
      19A     -1.755648    20A     -1.664321    21A     -1.662946
      22A     -1.457840    23A     -1.353694    24A     -1.221354
      25A     -1.095528    26A     -1.071478    27A     -1.035048
      28A     -0.969109    29A     -0.913027    30A     -0.882611
      31A     -0.851411    32A     -0.849447    33A     -0.835855
      34A     -0.797693    35A     -0.742243    36A     -0.735459
      37A     -0.726436    38A     -0.694515    39A     -0.692300
      40A     -0.692094    41A     -0.677033    42A     -0.666219
      43A     -0.660718    44A     -0.649798    45A     -0.640591
      46A     -0.630878    47A     -0.604950    48A     -0.569764
      49A     -0.552305    50A     -0.544988    51A     -0.537384
      52A     -0.519115    53A     -0.505561    54A     -0.493736
      55A     -0.433746    56A     -0.378117    57A     -0.376904

  @DF-RHF Final Energy: -1152.79488979988560

   => Energetics <=

    Nuclear Repulsion Energy =           1101.1113400036042549
    One-Electron Energy =               -3778.2205711758397229
    Two-Electron Energy =                1524.3143413723498725
    Total Energy =                      -1152.7948897998855955
  Basis Set: (AUG-CC-PVTZ AUX)
    Blend: AUG-CC-PVTZ-RI
    Molecular point group: c1

    Geometry (in Angstrom), charge = 0, multiplicity = 1:

       Center              X                  Y                   Z               Mass
    ------------   -----------------  -----------------  -----------------  -----------------
         S            1.126887695850     0.001056091748    -0.873242495953    31.972071174400
         F            1.470112695850    -1.093293908252     1.491966504047    18.998403162730
         F            3.197224695850    -0.000887908252     0.719819504047    18.998403162730
         F            1.470141695850     1.089703091748     1.494592504047    18.998403162730
         O            1.497665695850    -1.285610908252    -1.465900495953    15.994914619570
         O            1.497662695850     1.289152091748    -1.462790495953    15.994914619570
         C           -0.794447704150     0.000547391748    -0.453957895953    12.000000000000
         C           -1.258905304150    -1.220387908252    -0.341582495953    12.000000000000
         C           -1.258910304150     1.221208091748    -0.338654495953    12.000000000000
         C           -3.312698304150    -0.000163908252     0.135249504047    12.000000000000
         C            1.865357695850    -0.000991908252     0.821528504047    12.000000000000
         C           -2.617045304150    -1.206072908252    -0.030364495953    12.000000000000
         C           -2.617050304150     1.206142091748    -0.027471495953    12.000000000000
         C           -4.770568304150    -0.000618908252     0.511162504047    12.000000000000
         H           -0.723067304150    -2.153596908252    -0.491447495953     1.007825032230
         H           -0.723075304150     2.154776091748    -0.486281495953     1.007825032230
         H           -3.147181304150    -2.149875908252     0.081377504047     1.007825032230
         H           -3.147189304150     2.149673091748     0.086534504047     1.007825032230
         H           -5.277944304150     0.885621091748     0.120760504047     1.007825032230
         H           -5.277957304150    -0.885880908252     0.118563504047     1.007825032230
         H           -4.892177304150    -0.001968908252     1.599783504047     1.007825032230

  Basis Set: AUG-CC-PVTZ
    Blend: AUG-CC-PVTZ
  Basis Set: (AUG-CC-PVTZ AUX)
    Blend: AUG-CC-PVTZ-JKFIT
	 Reference Energy          =   -1152.7948897998855955 [Eh]
	 Singles Energy            =      -0.0000000000000000 [Eh]
	 Same-Spin Energy          =      -0.7710539813475540 [Eh]
	 Opposite-Spin Energy      =      -2.2447030576649039 [Eh]
	 Correlation Energy        =      -3.0157570390124580 [Eh]
	 Total Energy              =   -1155.8106468388980375 [Eh]

	 ================> DF-SCS-MP2 Energies <==================
	-----------------------------------------------------------
	 SCS Same-Spin Scale       =       0.3333333333333333 [-]
	 SCS Opposite-Spin Scale   =       1.2000000000000000 [-]
	 SCS Same-Spin Energy      =      -0.2570179937825180 [Eh]
	 SCS Opposite-Spin Energy  =      -2.6936436691978844 [Eh]
	 SCS Correlation Energy    =      -2.9506616629804023 [Eh]
	 SCS Total Energy          =   -1155.7455514628659330 [Eh]
	-----------------------------------------------------------

  Dipole Moment: [D]
     X:    -5.2248      Y:    -0.0025      Z:     2.0712     Total:     5.6204

*** Psi4 exiting successfully. Buy a developer a beer!
