                               Psi4 1.4a3.dev225

  ==> Input File <==

--------------------------------------------------------------------------
#psi4
#
memory 32 gb

molecule  {
0 1
  S        1.2441830     0.0010390    -0.8590750
  F        1.5874080    -1.0933110     1.5061340
  F        3.3145200    -0.0009050     0.7339870
  F        1.5874370     1.0896860     1.5087600
  O        1.6149610    -1.2856280    -1.4517330
  O        1.6149580     1.2891350    -1.4486230
  C       -0.4817510     0.0005820    -0.4824320
  C       -1.1474274    -1.0746846    -0.3253279
  C       -1.1416150     1.2211910    -0.3244870
  C       -3.1954030    -0.0001810     0.1494170
  C        1.9826530    -0.0010090     0.8356960
  C       -2.4997500    -1.2060900    -0.0161970
  C       -2.4997550     1.2061250    -0.0133040
  C       -4.6532730    -0.0006360     0.5253300
  H       -0.6057720    -2.1536140    -0.4772800
  H       -0.6057800     2.1547590    -0.4721140
  H       -3.0298860    -2.1498930     0.0955450
  H       -3.0298940     2.1496560     0.1007020
  H       -5.1606490     0.8856040     0.1349280
  H       -5.1606620    -0.8858980     0.1327310
  H       -4.7748820    -0.0019860     1.6139510
units angstrom
no_reorient  #important for SAPT in psi4, default
symmetry c1  #important for SAPT in psi4, default
}

set PROPERTIES_ORIGIN ["COM"]
properties('MP2/aug-cc-pvtz', properties = ['dipole'])
--------------------------------------------------------------------------

    Molecular point group: c1
  Charge       = 0
  Multiplicity = 1
  Basis Set: AUG-CC-PVTZ
    Blend: AUG-CC-PVTZ
  Basis Set: (AUG-CC-PVTZ AUX)
    Blend: AUG-CC-PVTZ-JKFIT

    Orbital Energies [Eh]
    ---------------------

    Doubly Occupied:

       1A    -92.219276     2A    -26.373309     3A    -26.372750
       4A    -26.370732     5A    -20.577182     6A    -20.575635
       7A    -11.552450     8A    -11.284669     9A    -11.282381
      10A    -11.281176    11A    -11.278071    12A    -11.263352
      13A    -11.263127    14A    -11.250684    15A     -9.188005
      16A     -6.872873    17A     -6.872168    18A     -6.871794
      19A     -1.758527    20A     -1.666754    21A     -1.665966
      22A     -1.468198    23A     -1.360465    24A     -1.213494
      25A     -1.109127    26A     -1.049204    27A     -1.041843
      28A     -0.983335    29A     -0.921947    30A     -0.874255
      31A     -0.856644    32A     -0.852123    33A     -0.843302
      34A     -0.798488    35A     -0.745288    36A     -0.738110
      37A     -0.727795    38A     -0.697613    39A     -0.694937
      40A     -0.691012    41A     -0.679658    42A     -0.670010
      43A     -0.657744    44A     -0.652731    45A     -0.643338
      46A     -0.605699    47A     -0.604149    48A     -0.571471
      49A     -0.546569    50A     -0.542374    51A     -0.526034
      52A     -0.521517    53A     -0.507712    54A     -0.495379
      55A     -0.467719    56A     -0.385233    57A     -0.367209

  @DF-RHF Final Energy: -1152.80269466667028

   => Energetics <=

    Nuclear Repulsion Energy =           1105.5210143094866453
    One-Electron Energy =               -3786.7421965225248641
    Two-Electron Energy =                1528.4184875463681692
    Total Energy =                      -1152.8026946666702770
  Basis Set: (AUG-CC-PVTZ AUX)
    Blend: AUG-CC-PVTZ-RI
    Molecular point group: c1

    Geometry (in Angstrom), charge = 0, multiplicity = 1:

       Center              X                  Y                   Z               Mass
    ------------   -----------------  -----------------  -----------------  -----------------
         S            1.116731948986    -0.006752713570    -0.871070048720    31.972071174400
         F            1.459956948986    -1.101102713570     1.494138951280    18.998403162730
         F            3.187068948986    -0.008696713570     0.721991951280    18.998403162730
         F            1.459985948986     1.081894286430     1.496764951280    18.998403162730
         O            1.487509948986    -1.293419713570    -1.463728048720    15.994914619570
         O            1.487506948986     1.281343286430    -1.460618048720    15.994914619570
         C           -0.609202051014    -0.007209713570    -0.494427048720    12.000000000000
         C           -1.274878451014    -1.082476313570    -0.337322948720    12.000000000000
         C           -1.269066051014     1.213399286430    -0.336482048720    12.000000000000
         C           -3.322854051014    -0.007972713570     0.137421951280    12.000000000000
         C            1.855201948986    -0.008800713570     0.823700951280    12.000000000000
         C           -2.627201051014    -1.213881713570    -0.028192048720    12.000000000000
         C           -2.627206051014     1.198333286430    -0.025299048720    12.000000000000
         C           -4.780724051014    -0.008427713570     0.513334951280    12.000000000000
         H           -0.733223051014    -2.161405713570    -0.489275048720     1.007825032230
         H           -0.733231051014     2.146967286430    -0.484109048720     1.007825032230
         H           -3.157337051014    -2.157684713570     0.083549951280     1.007825032230
         H           -3.157345051014     2.141864286430     0.088706951280     1.007825032230
         H           -5.288100051014     0.877812286430     0.122932951280     1.007825032230
         H           -5.288113051014    -0.893689713570     0.120735951280     1.007825032230
         H           -4.902333051014    -0.009777713570     1.601955951280     1.007825032230

  Basis Set: AUG-CC-PVTZ
    Blend: AUG-CC-PVTZ
  Basis Set: (AUG-CC-PVTZ AUX)
    Blend: AUG-CC-PVTZ-JKFIT
	 Reference Energy          =   -1152.8026946666702770 [Eh]
	 Singles Energy            =      -0.0000000000000000 [Eh]
	 Same-Spin Energy          =      -0.7701466474640098 [Eh]
	 Opposite-Spin Energy      =      -2.2435570717957853 [Eh]
	 Correlation Energy        =      -3.0137037192597953 [Eh]
	 Total Energy              =   -1155.8163983859301425 [Eh]

	 ================> DF-SCS-MP2 Energies <==================
	-----------------------------------------------------------
	 SCS Same-Spin Scale       =       0.3333333333333333 [-]
	 SCS Opposite-Spin Scale   =       1.2000000000000000 [-]
	 SCS Same-Spin Energy      =      -0.2567155491546699 [Eh]
	 SCS Opposite-Spin Energy  =      -2.6922684861549424 [Eh]
	 SCS Correlation Energy    =      -2.9489840353096124 [Eh]
	 SCS Total Energy          =   -1155.7516787019799267 [Eh]
	-----------------------------------------------------------

  Dipole Moment: [D]
     X:    -5.3008      Y:    -0.0003      Z:     2.1228     Total:     5.7100

*** Psi4 exiting successfully. Buy a developer a beer!
