                               Psi4 1.4a3.dev225

  ==> Input File <==

--------------------------------------------------------------------------
#psi4
#
memory 32 gb

molecule  {
0 1
  S        1.2294976    -0.0269047    -0.8524027
  F        1.5874080    -1.0933110     1.5061340
  F        3.3145200    -0.0009050     0.7339870
  F        1.5874370     1.0896860     1.5087600
  O        1.6149610    -1.2856280    -1.4517330
  O        1.6149580     1.2891350    -1.4486230
  C       -0.4817510     0.0005820    -0.4824320
  C       -1.1416100    -1.2204050    -0.3274150
  C       -1.1416150     1.2211910    -0.3244870
  C       -3.1954030    -0.0001810     0.1494170
  C        1.9826530    -0.0010090     0.8356960
  C       -2.4997500    -1.2060900    -0.0161970
  C       -2.4997550     1.2061250    -0.0133040
  C       -4.6532730    -0.0006360     0.5253300
  H       -0.6057720    -2.1536140    -0.4772800
  H       -0.6057800     2.1547590    -0.4721140
  H       -3.0298860    -2.1498930     0.0955450
  H       -3.0298940     2.1496560     0.1007020
  H       -5.1606490     0.8856040     0.1349280
  H       -5.1606620    -0.8858980     0.1327310
  H       -4.7748820    -0.0019860     1.6139510
units angstrom
no_reorient  #important for SAPT in psi4, default
symmetry c1  #important for SAPT in psi4, default
}

set PROPERTIES_ORIGIN ["COM"]
properties('MP2/aug-cc-pvtz', properties = ['dipole'])
--------------------------------------------------------------------------

    Molecular point group: c1
  Charge       = 0
  Multiplicity = 1
  Basis Set: AUG-CC-PVTZ
    Blend: AUG-CC-PVTZ
  Basis Set: (AUG-CC-PVTZ AUX)
    Blend: AUG-CC-PVTZ-JKFIT

    Orbital Energies [Eh]
    ---------------------

    Doubly Occupied:

       1A    -92.215401     2A    -26.371131     3A    -26.370970
       4A    -26.368682     5A    -20.577495     6A    -20.566558
       7A    -11.549905     8A    -11.293530     9A    -11.289191
      10A    -11.286362    11A    -11.286186    12A    -11.266194
      13A    -11.266146    14A    -11.253416    15A     -9.184320
      16A     -6.869139    17A     -6.868496    18A     -6.868049
      19A     -1.756528    20A     -1.664955    21A     -1.663862
      22A     -1.464225    23A     -1.349972    24A     -1.199857
      25A     -1.103377    26A     -1.054972    27A     -1.039213
      28A     -0.982814    29A     -0.917638    30A     -0.871296
      31A     -0.857294    32A     -0.850229    33A     -0.845790
      34A     -0.797491    35A     -0.742366    36A     -0.736485
      37A     -0.725799    38A     -0.695285    39A     -0.692964
      40A     -0.685077    41A     -0.677732    42A     -0.672300
      43A     -0.665543    44A     -0.644187    45A     -0.638968
      46A     -0.626393    47A     -0.605973    48A     -0.570904
      49A     -0.546444    50A     -0.534137    51A     -0.527434
      52A     -0.519728    53A     -0.513287    54A     -0.491935
      55A     -0.467897    56A     -0.375732    57A     -0.373450

  @DF-RHF Final Energy: -1152.82813309981907

   => Energetics <=

    Nuclear Repulsion Energy =           1102.8502516803016533
    One-Electron Energy =               -3781.5553592964815834
    Two-Electron Energy =                1525.8769745163606331
    Total Energy =                      -1152.8281330998190697
  Basis Set: (AUG-CC-PVTZ AUX)
    Blend: AUG-CC-PVTZ-RI
    Molecular point group: c1

    Geometry (in Angstrom), charge = 0, multiplicity = 1:

       Center              X                  Y                   Z               Mass
    ------------   -----------------  -----------------  -----------------  -----------------
         S            1.103830891159    -0.022902116300    -0.865238248992    31.972071174400
         F            1.461741291159    -1.089308416300     1.493298451008    18.998403162730
         F            3.188853291159     0.003097583700     0.721151451008    18.998403162730
         F            1.461770291159     1.093688583700     1.495924451008    18.998403162730
         O            1.489294291159    -1.281625416300    -1.464568548992    15.994914619570
         O            1.489291291159     1.293137583700    -1.461458548992    15.994914619570
         C           -0.607417708841     0.004584583700    -0.495267548992    12.000000000000
         C           -1.267276708841    -1.216402416300    -0.340250548992    12.000000000000
         C           -1.267281708841     1.225193583700    -0.337322548992    12.000000000000
         C           -3.321069708841     0.003821583700     0.136581451008    12.000000000000
         C            1.856986291159     0.002993583700     0.822860451008    12.000000000000
         C           -2.625416708841    -1.202087416300    -0.029032548992    12.000000000000
         C           -2.625421708841     1.210127583700    -0.026139548992    12.000000000000
         C           -4.778939708841     0.003366583700     0.512494451008    12.000000000000
         H           -0.731438708841    -2.149611416300    -0.490115548992     1.007825032230
         H           -0.731446708841     2.158761583700    -0.484949548992     1.007825032230
         H           -3.155552708841    -2.145890416300     0.082709451008     1.007825032230
         H           -3.155560708841     2.153658583700     0.087866451008     1.007825032230
         H           -5.286315708841     0.889606583700     0.122092451008     1.007825032230
         H           -5.286328708841    -0.881895416300     0.119895451008     1.007825032230
         H           -4.900548708841     0.002016583700     1.601115451008     1.007825032230

  Basis Set: AUG-CC-PVTZ
    Blend: AUG-CC-PVTZ
  Basis Set: (AUG-CC-PVTZ AUX)
    Blend: AUG-CC-PVTZ-JKFIT
	 Reference Energy          =   -1152.8281330998190697 [Eh]
	 Singles Energy            =      -0.0000000000000000 [Eh]
	 Same-Spin Energy          =      -0.7698888071205910 [Eh]
	 Opposite-Spin Energy      =      -2.2430247877399987 [Eh]
	 Correlation Energy        =      -3.0129135948605898 [Eh]
	 Total Energy              =   -1155.8410466946795623 [Eh]

	 ================> DF-SCS-MP2 Energies <==================
	-----------------------------------------------------------
	 SCS Same-Spin Scale       =       0.3333333333333333 [-]
	 SCS Opposite-Spin Scale   =       1.2000000000000000 [-]
	 SCS Same-Spin Energy      =      -0.2566296023735303 [Eh]
	 SCS Opposite-Spin Energy  =      -2.6916297452879983 [Eh]
	 SCS Correlation Energy    =      -2.9482593476615286 [Eh]
	 SCS Total Energy          =   -1155.7763924474807027 [Eh]
	-----------------------------------------------------------

  Dipole Moment: [D]
     X:    -5.6045      Y:    -0.2218      Z:     2.2071     Total:     6.0275

*** Psi4 exiting successfully. Buy a developer a beer!
