                               Psi4 1.4a3.dev225

  ==> Input File <==

--------------------------------------------------------------------------
#psi4
#
memory 32 gb

molecule  {
0 1
  S        1.2441830     0.0010390    -0.8590750
  F        1.5874080    -1.0933110     1.5061340
  F        3.3145200    -0.0009050     0.7339870
  F        1.5874370     1.0896860     1.5087600
  O        1.6149610    -1.2856280    -1.4517330
  O        1.6149580     1.2891350    -1.4486230
  C       -0.4817510     0.0005820    -0.4824320
  C       -1.1416100    -1.2204050    -0.3274150
  C       -1.1429843     1.2698083    -0.3243084
  C       -3.1954030    -0.0001810     0.1494170
  C        1.9826530    -0.0010090     0.8356960
  C       -2.4997500    -1.2060900    -0.0161970
  C       -2.4997550     1.2061250    -0.0133040
  C       -4.6532730    -0.0006360     0.5253300
  H       -0.6057720    -2.1536140    -0.4772800
  H       -0.6057800     2.1547590    -0.4721140
  H       -3.0298860    -2.1498930     0.0955450
  H       -3.0298940     2.1496560     0.1007020
  H       -5.1606490     0.8856040     0.1349280
  H       -5.1606620    -0.8858980     0.1327310
  H       -4.7748820    -0.0019860     1.6139510
units angstrom
no_reorient  #important for SAPT in psi4, default
symmetry c1  #important for SAPT in psi4, default
}

set PROPERTIES_ORIGIN ["COM"]
properties('MP2/aug-cc-pvtz', properties = ['dipole'])
--------------------------------------------------------------------------

    Molecular point group: c1
  Charge       = 0
  Multiplicity = 1
  Basis Set: AUG-CC-PVTZ
    Blend: AUG-CC-PVTZ
  Basis Set: (AUG-CC-PVTZ AUX)
    Blend: AUG-CC-PVTZ-JKFIT

    Orbital Energies [Eh]
    ---------------------

    Doubly Occupied:

       1A    -92.215104     2A    -26.370958     3A    -26.370827
       4A    -26.368256     5A    -20.573373     6A    -20.572903
       7A    -11.549320     8A    -11.296498     9A    -11.288655
      10A    -11.286791    11A    -11.285661    12A    -11.266321
      13A    -11.265855    14A    -11.253044    15A     -9.183796
      16A     -6.868652    17A     -6.867919    18A     -6.867649
      19A     -1.756288    20A     -1.664637    21A     -1.663741
      22A     -1.464988    23A     -1.357648    24A     -1.194294
      25A     -1.098313    26A     -1.055117    27A     -1.038257
      28A     -0.980175    29A     -0.916263    30A     -0.870245
      31A     -0.857181    32A     -0.849997    33A     -0.845197
      34A     -0.795210    35A     -0.742362    36A     -0.736109
      37A     -0.725511    38A     -0.694931    39A     -0.692937
      40A     -0.682443    41A     -0.677974    42A     -0.677386
      43A     -0.666244    44A     -0.646946    45A     -0.635258
      46A     -0.629392    47A     -0.605223    48A     -0.569025
      49A     -0.548141    50A     -0.530050    51A     -0.527184
      52A     -0.521476    53A     -0.513309    54A     -0.496611
      55A     -0.466674    56A     -0.374887    57A     -0.369898

  @DF-RHF Final Energy: -1152.82692964929356

   => Energetics <=

    Nuclear Repulsion Energy =           1101.6187431694900170
    One-Electron Energy =               -3779.1131374898131980
    Two-Electron Energy =                1524.6674646710298475
    Total Energy =                      -1152.8269296492935609
  Basis Set: (AUG-CC-PVTZ AUX)
    Blend: AUG-CC-PVTZ-RI
    Molecular point group: c1

    Geometry (in Angstrom), charge = 0, multiplicity = 1:

       Center              X                  Y                   Z               Mass
    ------------   -----------------  -----------------  -----------------  -----------------
         S            1.116493670557    -0.001551037778    -0.870967813073    31.972071174400
         F            1.459718670557    -1.095901037778     1.494241186927    18.998403162730
         F            3.186830670557    -0.003495037778     0.722094186927    18.998403162730
         F            1.459747670557     1.087095962222     1.496867186927    18.998403162730
         O            1.487271670557    -1.288218037778    -1.463625813073    15.994914619570
         O            1.487268670557     1.286544962222    -1.460515813073    15.994914619570
         C           -0.609440329443    -0.002008037778    -0.494324813073    12.000000000000
         C           -1.269299329443    -1.222995037778    -0.339307813073    12.000000000000
         C           -1.270673629443     1.267218262222    -0.336201213073    12.000000000000
         C           -3.323092329443    -0.002771037778     0.137524186927    12.000000000000
         C            1.854963670557    -0.003599037778     0.823803186927    12.000000000000
         C           -2.627439329443    -1.208680037778    -0.028089813073    12.000000000000
         C           -2.627444329443     1.203534962222    -0.025196813073    12.000000000000
         C           -4.780962329443    -0.003226037778     0.513437186927    12.000000000000
         H           -0.733461329443    -2.156204037778    -0.489172813073     1.007825032230
         H           -0.733469329443     2.152168962222    -0.484006813073     1.007825032230
         H           -3.157575329443    -2.152483037778     0.083652186927     1.007825032230
         H           -3.157583329443     2.147065962222     0.088809186927     1.007825032230
         H           -5.288338329443     0.883013962222     0.123035186927     1.007825032230
         H           -5.288351329443    -0.888488037778     0.120838186927     1.007825032230
         H           -4.902571329443    -0.004576037778     1.602058186927     1.007825032230

  Basis Set: AUG-CC-PVTZ
    Blend: AUG-CC-PVTZ
  Basis Set: (AUG-CC-PVTZ AUX)
    Blend: AUG-CC-PVTZ-JKFIT
	 Reference Energy          =   -1152.8269296492935609 [Eh]
	 Singles Energy            =      -0.0000000000000000 [Eh]
	 Same-Spin Energy          =      -0.7697055828729301 [Eh]
	 Opposite-Spin Energy      =      -2.2431185712310793 [Eh]
	 Correlation Energy        =      -3.0128241541040093 [Eh]
	 Total Energy              =   -1155.8397538033975707 [Eh]

	 ================> DF-SCS-MP2 Energies <==================
	-----------------------------------------------------------
	 SCS Same-Spin Scale       =       0.3333333333333333 [-]
	 SCS Opposite-Spin Scale   =       1.2000000000000000 [-]
	 SCS Same-Spin Energy      =      -0.2565685276243100 [Eh]
	 SCS Opposite-Spin Energy  =      -2.6917422854772952 [Eh]
	 SCS Correlation Energy    =      -2.9483108131016054 [Eh]
	 SCS Total Energy          =   -1155.7752404623952316 [Eh]
	-----------------------------------------------------------

  Dipole Moment: [D]
     X:    -5.4648      Y:    -0.0135      Z:     2.1407     Total:     5.8691

*** Psi4 exiting successfully. Buy a developer a beer!
