                               Psi4 1.4a3.dev225

  ==> Input File <==

--------------------------------------------------------------------------
#psi4
#
memory 32 gb

molecule  {
0 1
  S        1.2441830     0.0010390    -0.8590750
  F        1.5874080    -1.0933110     1.5061340
  F        3.3145200    -0.0009050     0.7339870
  F        1.5874370     1.0896860     1.5087600
  O        1.6149610    -1.2856280    -1.4517330
  O        1.6149580     1.2891350    -1.4486230
  C       -0.4817510     0.0005820    -0.4824320
  C       -1.1416100    -1.2204050    -0.3274150
  C       -1.1510652     1.2386718    -0.3222250
  C       -3.1954030    -0.0001810     0.1494170
  C        1.9826530    -0.0010090     0.8356960
  C       -2.4997500    -1.2060900    -0.0161970
  C       -2.4997550     1.2061250    -0.0133040
  C       -4.6532730    -0.0006360     0.5253300
  H       -0.6057720    -2.1536140    -0.4772800
  H       -0.6057800     2.1547590    -0.4721140
  H       -3.0298860    -2.1498930     0.0955450
  H       -3.0298940     2.1496560     0.1007020
  H       -5.1606490     0.8856040     0.1349280
  H       -5.1606620    -0.8858980     0.1327310
  H       -4.7748820    -0.0019860     1.6139510
units angstrom
no_reorient  #important for SAPT in psi4, default
symmetry c1  #important for SAPT in psi4, default
}

set PROPERTIES_ORIGIN ["COM"]
properties('MP2/aug-cc-pvtz', properties = ['dipole'])
--------------------------------------------------------------------------

    Molecular point group: c1
  Charge       = 0
  Multiplicity = 1
  Basis Set: AUG-CC-PVTZ
    Blend: AUG-CC-PVTZ
  Basis Set: (AUG-CC-PVTZ AUX)
    Blend: AUG-CC-PVTZ-JKFIT

    Orbital Energies [Eh]
    ---------------------

    Doubly Occupied:

       1A    -92.215877     2A    -26.371209     3A    -26.371147
       4A    -26.368591     5A    -20.573672     6A    -20.573607
       7A    -11.549747     8A    -11.294215     9A    -11.288201
      10A    -11.285195    11A    -11.284940    12A    -11.265144
      13A    -11.264457    14A    -11.252744    15A     -9.184529
      16A     -6.869391    17A     -6.868663    18A     -6.868380
      19A     -1.756587    20A     -1.664909    21A     -1.664048
      22A     -1.465459    23A     -1.358076    24A     -1.196898
      25A     -1.099411    26A     -1.055083    27A     -1.038773
      28A     -0.980829    29A     -0.916715    30A     -0.868855
      31A     -0.857069    32A     -0.850281    33A     -0.845211
      34A     -0.796448    35A     -0.742690    36A     -0.736377
      37A     -0.725566    38A     -0.695250    39A     -0.693034
      40A     -0.683491    41A     -0.677787    42A     -0.672879
      43A     -0.666385    44A     -0.647076    45A     -0.637589
      46A     -0.626686    47A     -0.605199    48A     -0.569584
      49A     -0.546703    50A     -0.531635    51A     -0.526080
      52A     -0.522084    53A     -0.514379    54A     -0.496961
      55A     -0.467808    56A     -0.374695    57A     -0.371559

  @DF-RHF Final Energy: -1152.82999102694271

   => Energetics <=

    Nuclear Repulsion Energy =           1102.1950078667282469
    One-Electron Energy =               -3780.2582795105554396
    Two-Electron Energy =                1525.2332806168844854
    Total Energy =                      -1152.8299910269427073
  Basis Set: (AUG-CC-PVTZ AUX)
    Blend: AUG-CC-PVTZ-RI
    Molecular point group: c1

    Geometry (in Angstrom), charge = 0, multiplicity = 1:

       Center              X                  Y                   Z               Mass
    ------------   -----------------  -----------------  -----------------  -----------------
         S            1.116926552946     0.000116900509    -0.871079417866    31.972071174400
         F            1.460151552946    -1.094233099491     1.494129582134    18.998403162730
         F            3.187263552946    -0.001827099491     0.721982582134    18.998403162730
         F            1.460180552946     1.088763900509     1.496755582134    18.998403162730
         O            1.487704552946    -1.286550099491    -1.463737417866    15.994914619570
         O            1.487701552946     1.288212900509    -1.460627417866    15.994914619570
         C           -0.609007447054    -0.000340099491    -0.494436417866    12.000000000000
         C           -1.268866447054    -1.221327099491    -0.339419417866    12.000000000000
         C           -1.278321647054     1.237749700509    -0.334229417866    12.000000000000
         C           -3.322659447054    -0.001103099491     0.137412582134    12.000000000000
         C            1.855396552946    -0.001931099491     0.823691582134    12.000000000000
         C           -2.627006447054    -1.207012099491    -0.028201417866    12.000000000000
         C           -2.627011447054     1.205202900509    -0.025308417866    12.000000000000
         C           -4.780529447054    -0.001558099491     0.513325582134    12.000000000000
         H           -0.733028447054    -2.154536099491    -0.489284417866     1.007825032230
         H           -0.733036447054     2.153836900509    -0.484118417866     1.007825032230
         H           -3.157142447054    -2.150815099491     0.083540582134     1.007825032230
         H           -3.157150447054     2.148733900509     0.088697582134     1.007825032230
         H           -5.287905447054     0.884681900509     0.122923582134     1.007825032230
         H           -5.287918447054    -0.886820099491     0.120726582134     1.007825032230
         H           -4.902138447054    -0.002908099491     1.601946582134     1.007825032230

  Basis Set: AUG-CC-PVTZ
    Blend: AUG-CC-PVTZ
  Basis Set: (AUG-CC-PVTZ AUX)
    Blend: AUG-CC-PVTZ-JKFIT
	 Reference Energy          =   -1152.8299910269427073 [Eh]
	 Singles Energy            =      -0.0000000000000000 [Eh]
	 Same-Spin Energy          =      -0.7696466273867988 [Eh]
	 Opposite-Spin Energy      =      -2.2427331016867718 [Eh]
	 Correlation Energy        =      -3.0123797290735705 [Eh]
	 Total Energy              =   -1155.8423707560161802 [Eh]

	 ================> DF-SCS-MP2 Energies <==================
	-----------------------------------------------------------
	 SCS Same-Spin Scale       =       0.3333333333333333 [-]
	 SCS Opposite-Spin Scale   =       1.2000000000000000 [-]
	 SCS Same-Spin Energy      =      -0.2565488757955996 [Eh]
	 SCS Opposite-Spin Energy  =      -2.6912797220241260 [Eh]
	 SCS Correlation Energy    =      -2.9478285978197256 [Eh]
	 SCS Total Energy          =   -1155.7778196247625146 [Eh]
	-----------------------------------------------------------

  Dipole Moment: [D]
     X:    -5.4349      Y:    -0.0111      Z:     2.1369     Total:     5.8400

*** Psi4 exiting successfully. Buy a developer a beer!
