                               Psi4 1.4a3.dev225

  ==> Input File <==

--------------------------------------------------------------------------
#psi4
#
memory 32 gb

molecule  {
0 1
  S        1.2432631    -0.0606107    -0.8583178
  F        1.5874080    -1.0933110     1.5061340
  F        3.3145200    -0.0009050     0.7339870
  F        1.5874370     1.0896860     1.5087600
  O        1.6149610    -1.2856280    -1.4517330
  O        1.6149580     1.2891350    -1.4486230
  C       -0.4817510     0.0005820    -0.4824320
  C       -1.1416100    -1.2204050    -0.3274150
  C       -1.1416150     1.2211910    -0.3244870
  C       -3.1954030    -0.0001810     0.1494170
  C        1.9826530    -0.0010090     0.8356960
  C       -2.4997500    -1.2060900    -0.0161970
  C       -2.4997550     1.2061250    -0.0133040
  C       -4.6532730    -0.0006360     0.5253300
  H       -0.6057720    -2.1536140    -0.4772800
  H       -0.6057800     2.1547590    -0.4721140
  H       -3.0298860    -2.1498930     0.0955450
  H       -3.0298940     2.1496560     0.1007020
  H       -5.1606490     0.8856040     0.1349280
  H       -5.1606620    -0.8858980     0.1327310
  H       -4.7748820    -0.0019860     1.6139510
units angstrom
no_reorient  #important for SAPT in psi4, default
symmetry c1  #important for SAPT in psi4, default
}

set PROPERTIES_ORIGIN ["COM"]
properties('MP2/aug-cc-pvtz', properties = ['dipole'])
--------------------------------------------------------------------------

    Molecular point group: c1
  Charge       = 0
  Multiplicity = 1
  Basis Set: AUG-CC-PVTZ
    Blend: AUG-CC-PVTZ
  Basis Set: (AUG-CC-PVTZ AUX)
    Blend: AUG-CC-PVTZ-JKFIT

    Orbital Energies [Eh]
    ---------------------

    Doubly Occupied:

       1A    -92.214706     2A    -26.371511     3A    -26.371157
       4A    -26.368767     5A    -20.585645     6A    -20.561581
       7A    -11.550009     8A    -11.293114     9A    -11.287549
      10A    -11.284777    11A    -11.284465    12A    -11.265168
      13A    -11.265100    14A    -11.252434    15A     -9.184111
      16A     -6.868876    17A     -6.868415    18A     -6.867746
      19A     -1.756773    20A     -1.665269    21A     -1.664035
      22A     -1.480719    23A     -1.344969    24A     -1.197997
      25A     -1.100737    26A     -1.053648    27A     -1.038881
      28A     -0.980917    29A     -0.917195    30A     -0.869902
      31A     -0.856935    32A     -0.850416    33A     -0.844917
      34A     -0.797139    35A     -0.743745    36A     -0.736553
      37A     -0.726577    38A     -0.695539    39A     -0.693189
      40A     -0.684314    41A     -0.677972    42A     -0.672467
      43A     -0.669551    44A     -0.647667    45A     -0.640162
      46A     -0.625186    47A     -0.605002    48A     -0.569964
      49A     -0.547897    50A     -0.534205    51A     -0.526560
      52A     -0.522445    53A     -0.514283    54A     -0.489757
      55A     -0.464442    56A     -0.374089    57A     -0.372162

  @DF-RHF Final Energy: -1152.82386537797265

   => Energetics <=

    Nuclear Repulsion Energy =           1102.6693317395602207
    One-Electron Energy =               -3781.1877778757275337
    Two-Electron Energy =                1525.6945807581946610
    Total Energy =                      -1152.8238653779726519
  Basis Set: (AUG-CC-PVTZ AUX)
    Blend: AUG-CC-PVTZ-RI
    Molecular point group: c1

    Geometry (in Angstrom), charge = 0, multiplicity = 1:

       Center              X                  Y                   Z               Mass
    ------------   -----------------  -----------------  -----------------  -----------------
         S            1.115631711716    -0.051797431231    -0.870309117008    31.972071174400
         F            1.459776611716    -1.084497731231     1.494142682992    18.998403162730
         F            3.186888611716     0.007908268769     0.721995682992    18.998403162730
         F            1.459805611716     1.098499268769     1.496768682992    18.998403162730
         O            1.487329611716    -1.276814731231    -1.463724317008    15.994914619570
         O            1.487326611716     1.297948268769    -1.460614317008    15.994914619570
         C           -0.609382388284     0.009395268769    -0.494423317008    12.000000000000
         C           -1.269241388284    -1.211591731231    -0.339406317008    12.000000000000
         C           -1.269246388284     1.230004268769    -0.336478317008    12.000000000000
         C           -3.323034388284     0.008632268769     0.137425682992    12.000000000000
         C            1.855021611716     0.007804268769     0.823704682992    12.000000000000
         C           -2.627381388284    -1.197276731231    -0.028188317008    12.000000000000
         C           -2.627386388284     1.214938268769    -0.025295317008    12.000000000000
         C           -4.780904388284     0.008177268769     0.513338682992    12.000000000000
         H           -0.733403388284    -2.144800731231    -0.489271317008     1.007825032230
         H           -0.733411388284     2.163572268769    -0.484105317008     1.007825032230
         H           -3.157517388284    -2.141079731231     0.083553682992     1.007825032230
         H           -3.157525388284     2.158469268769     0.088710682992     1.007825032230
         H           -5.288280388284     0.894417268769     0.122936682992     1.007825032230
         H           -5.288293388284    -0.877084731231     0.120739682992     1.007825032230
         H           -4.902513388284     0.006827268769     1.601959682992     1.007825032230

  Basis Set: AUG-CC-PVTZ
    Blend: AUG-CC-PVTZ
  Basis Set: (AUG-CC-PVTZ AUX)
    Blend: AUG-CC-PVTZ-JKFIT
	 Reference Energy          =   -1152.8238653779726519 [Eh]
	 Singles Energy            =      -0.0000000000000000 [Eh]
	 Same-Spin Energy          =      -0.7695285618842855 [Eh]
	 Opposite-Spin Energy      =      -2.2425394488329702 [Eh]
	 Correlation Energy        =      -3.0120680107172557 [Eh]
	 Total Energy              =   -1155.8359333886899094 [Eh]

	 ================> DF-SCS-MP2 Energies <==================
	-----------------------------------------------------------
	 SCS Same-Spin Scale       =       0.3333333333333333 [-]
	 SCS Opposite-Spin Scale   =       1.2000000000000000 [-]
	 SCS Same-Spin Energy      =      -0.2565095206280952 [Eh]
	 SCS Opposite-Spin Energy  =      -2.6910473385995641 [Eh]
	 SCS Correlation Energy    =      -2.9475568592276593 [Eh]
	 SCS Total Energy          =   -1155.7714222372003405 [Eh]
	-----------------------------------------------------------

  Dipole Moment: [D]
     X:    -5.4370      Y:    -0.4855      Z:     2.1499     Total:     5.8668

*** Psi4 exiting successfully. Buy a developer a beer!
