                               Psi4 1.4a3.dev225

  ==> Input File <==

--------------------------------------------------------------------------
#psi4
#
memory 32 gb

molecule  {
0 1
  S        1.2441830     0.0010390    -0.8590750
  F        1.5874080    -1.0933110     1.5061340
  F        3.3145200    -0.0009050     0.7339870
  F        1.5874370     1.0896860     1.5087600
  O        1.6149610    -1.2856280    -1.4517330
  O        1.6149580     1.2891350    -1.4486230
  C       -0.4817510     0.0005820    -0.4824320
  C       -1.1416100    -1.2204050    -0.3274150
  C       -1.1416150     1.2211910    -0.3244870
  C       -3.1954030    -0.0001810     0.1494170
  C        1.9826530    -0.0010090     0.8356960
  C       -2.5827677    -1.2530233     0.0057444
  C       -2.4997550     1.2061250    -0.0133040
  C       -4.6532730    -0.0006360     0.5253300
  H       -0.6057720    -2.1536140    -0.4772800
  H       -0.6057800     2.1547590    -0.4721140
  H       -3.0298860    -2.1498930     0.0955450
  H       -3.0298940     2.1496560     0.1007020
  H       -5.1606490     0.8856040     0.1349280
  H       -5.1606620    -0.8858980     0.1327310
  H       -4.7748820    -0.0019860     1.6139510
units angstrom
no_reorient  #important for SAPT in psi4, default
symmetry c1  #important for SAPT in psi4, default
}

set PROPERTIES_ORIGIN ["COM"]
properties('MP2/aug-cc-pvtz', properties = ['dipole'])
--------------------------------------------------------------------------

    Molecular point group: c1
  Charge       = 0
  Multiplicity = 1
  Basis Set: AUG-CC-PVTZ
    Blend: AUG-CC-PVTZ
  Basis Set: (AUG-CC-PVTZ AUX)
    Blend: AUG-CC-PVTZ-JKFIT

    Orbital Energies [Eh]
    ---------------------

    Doubly Occupied:

       1A    -92.216998     2A    -26.371855     3A    -26.371622
       4A    -26.369230     5A    -20.574836     6A    -20.574258
       7A    -11.550533     8A    -11.295682     9A    -11.293817
      10A    -11.287416    11A    -11.285058    12A    -11.267661
      13A    -11.265713    14A    -11.249045    15A     -9.185654
      16A     -6.870513    17A     -6.869798    18A     -6.869494
      19A     -1.757172    20A     -1.665465    21A     -1.664636
      22A     -1.466389    23A     -1.358932    24A     -1.191839
      25A     -1.102141    26A     -1.048108    27A     -1.037270
      28A     -0.977584    29A     -0.916928    30A     -0.878031
      31A     -0.855471    32A     -0.850847    33A     -0.843232
      34A     -0.799044    35A     -0.743338    36A     -0.736845
      37A     -0.725606    38A     -0.695463    39A     -0.693443
      40A     -0.681458    41A     -0.679794    42A     -0.678187
      43A     -0.667588    44A     -0.648301    45A     -0.643037
      46A     -0.623946    47A     -0.602973    48A     -0.570783
      49A     -0.540976    50A     -0.533358    51A     -0.525946
      52A     -0.523174    53A     -0.512607    54A     -0.497281
      55A     -0.467502    56A     -0.376792    57A     -0.363981

  @DF-RHF Final Energy: -1152.81719552528966

   => Energetics <=

    Nuclear Repulsion Energy =           1100.6779305074544482
    One-Electron Energy =               -3777.1609473762164271
    Two-Electron Energy =                1523.6658213434725440
    Total Energy =                      -1152.8171955252896623
  Basis Set: (AUG-CC-PVTZ AUX)
    Blend: AUG-CC-PVTZ-RI
    Molecular point group: c1

    Geometry (in Angstrom), charge = 0, multiplicity = 1:

       Center              X                  Y                   Z               Mass
    ------------   -----------------  -----------------  -----------------  -----------------
         S            1.120867459918     0.003567472784    -0.872133615503    31.972071174400
         F            1.464092459918    -1.090782527216     1.493075384497    18.998403162730
         F            3.191204459918     0.001623472784     0.720928384497    18.998403162730
         F            1.464121459918     1.092214472784     1.495701384497    18.998403162730
         O            1.491645459918    -1.283099527216    -1.464791615503    15.994914619570
         O            1.491642459918     1.291663472784    -1.461681615503    15.994914619570
         C           -0.605066540082     0.003110472784    -0.495490615503    12.000000000000
         C           -1.264925540082    -1.217876527216    -0.340473615503    12.000000000000
         C           -1.264930540082     1.223719472784    -0.337545615503    12.000000000000
         C           -3.318718540082     0.002347472784     0.136358384497    12.000000000000
         C            1.859337459918     0.001519472784     0.822637384497    12.000000000000
         C           -2.706083240082    -1.250494827216    -0.007314215503    12.000000000000
         C           -2.623070540082     1.208653472784    -0.026362615503    12.000000000000
         C           -4.776588540082     0.001892472784     0.512271384497    12.000000000000
         H           -0.729087540082    -2.151085527216    -0.490338615503     1.007825032230
         H           -0.729095540082     2.157287472784    -0.485172615503     1.007825032230
         H           -3.153201540082    -2.147364527216     0.082486384497     1.007825032230
         H           -3.153209540082     2.152184472784     0.087643384497     1.007825032230
         H           -5.283964540082     0.888132472784     0.121869384497     1.007825032230
         H           -5.283977540082    -0.883369527216     0.119672384497     1.007825032230
         H           -4.898197540082     0.000542472784     1.600892384497     1.007825032230

  Basis Set: AUG-CC-PVTZ
    Blend: AUG-CC-PVTZ
  Basis Set: (AUG-CC-PVTZ AUX)
    Blend: AUG-CC-PVTZ-JKFIT
	 Reference Energy          =   -1152.8171955252896623 [Eh]
	 Singles Energy            =      -0.0000000000000000 [Eh]
	 Same-Spin Energy          =      -0.7695795946003303 [Eh]
	 Opposite-Spin Energy      =      -2.2436168618635302 [Eh]
	 Correlation Energy        =      -3.0131964564638603 [Eh]
	 Total Energy              =   -1155.8303919817535643 [Eh]

	 ================> DF-SCS-MP2 Energies <==================
	-----------------------------------------------------------
	 SCS Same-Spin Scale       =       0.3333333333333333 [-]
	 SCS Opposite-Spin Scale   =       1.2000000000000000 [-]
	 SCS Same-Spin Energy      =      -0.2565265315334434 [Eh]
	 SCS Opposite-Spin Energy  =      -2.6923402342362359 [Eh]
	 SCS Correlation Energy    =      -2.9488667657696794 [Eh]
	 SCS Total Energy          =   -1155.7660622910593702 [Eh]
	-----------------------------------------------------------

  Dipole Moment: [D]
     X:    -5.3680      Y:    -0.0512      Z:     2.1224     Total:     5.7725

*** Psi4 exiting successfully. Buy a developer a beer!
