                               Psi4 1.4a3.dev225

  ==> Input File <==

--------------------------------------------------------------------------
#psi4
#
memory 32 gb

molecule  {
0 1
  S        1.2441830     0.0010390    -0.8590750
  F        1.5874080    -1.0933110     1.5061340
  F        3.3145200    -0.0009050     0.7339870
  F        1.5874370     1.0896860     1.5087600
  O        1.6149610    -1.2856280    -1.4517330
  O        1.6149580     1.2891350    -1.4486230
  C       -0.4817510     0.0005820    -0.4824320
  C       -1.1416100    -1.2204050    -0.3274150
  C       -1.1416150     1.2211910    -0.3244870
  C       -3.1954030    -0.0001810     0.1494170
  C        1.9826530    -0.0010090     0.8356960
  C       -2.4997500    -1.2060900    -0.0161970
  C       -2.4997550     1.2061250    -0.0133040
  C       -4.4596075    -0.0005756     0.4753932
  H       -0.6057720    -2.1536140    -0.4772800
  H       -0.6057800     2.1547590    -0.4721140
  H       -3.0298860    -2.1498930     0.0955450
  H       -3.0298940     2.1496560     0.1007020
  H       -5.1606490     0.8856040     0.1349280
  H       -5.1606620    -0.8858980     0.1327310
  H       -4.7748820    -0.0019860     1.6139510
units angstrom
no_reorient  #important for SAPT in psi4, default
symmetry c1  #important for SAPT in psi4, default
}

set PROPERTIES_ORIGIN ["COM"]
properties('MP2/aug-cc-pvtz', properties = ['dipole'])
--------------------------------------------------------------------------

    Molecular point group: c1
  Charge       = 0
  Multiplicity = 1
  Basis Set: AUG-CC-PVTZ
    Blend: AUG-CC-PVTZ
  Basis Set: (AUG-CC-PVTZ AUX)
    Blend: AUG-CC-PVTZ-JKFIT

    Orbital Energies [Eh]
    ---------------------

    Doubly Occupied:

       1A    -92.216108     2A    -26.371464     3A    -26.371443
       4A    -26.368834     5A    -20.573903     6A    -20.573884
       7A    -11.550045     8A    -11.293009     9A    -11.284910
      10A    -11.284805    11A    -11.276313    12A    -11.265397
      13A    -11.265329    14A    -11.262612    15A     -9.184786
      16A     -6.869644    17A     -6.868921    18A     -6.868633
      19A     -1.756853    20A     -1.665185    21A     -1.664298
      22A     -1.465753    23A     -1.358329    24A     -1.207936
      25A     -1.125572    26A     -1.054805    27A     -1.043835
      28A     -0.983215    29A     -0.912457    30A     -0.874271
      31A     -0.854206    32A     -0.850546    33A     -0.842075
      34A     -0.797311    35A     -0.743597    36A     -0.736737
      37A     -0.728471    38A     -0.696357    39A     -0.696260
      40A     -0.688734    41A     -0.688040    42A     -0.678083
      43A     -0.667239    44A     -0.647879    45A     -0.645546
      46A     -0.625284    47A     -0.596469    48A     -0.577707
      49A     -0.548977    50A     -0.523041    51A     -0.522796
      52A     -0.511946    53A     -0.502749    54A     -0.494720
      55A     -0.468577    56A     -0.373205    57A     -0.364000

  @DF-RHF Final Energy: -1152.77778495177745

   => Energetics <=

    Nuclear Repulsion Energy =           1106.8473832322263206
    One-Electron Energy =               -3789.3841334611174716
    Two-Electron Energy =                1529.7589652771134752
    Total Energy =                      -1152.7777849517774484
  Basis Set: (AUG-CC-PVTZ AUX)
    Blend: AUG-CC-PVTZ-RI
    Molecular point group: c1

    Geometry (in Angstrom), charge = 0, multiplicity = 1:

       Center              X                  Y                   Z               Mass
    ------------   -----------------  -----------------  -----------------  -----------------
         S            1.106045932042     0.001050086710    -0.868283201943    31.972071174400
         F            1.449270932042    -1.093299913290     1.496925798057    18.998403162730
         F            3.176382932042    -0.000893913290     0.724778798057    18.998403162730
         F            1.449299932042     1.089697086710     1.499551798057    18.998403162730
         O            1.476823932042    -1.285616913290    -1.460941201943    15.994914619570
         O            1.476820932042     1.289146086710    -1.457831201943    15.994914619570
         C           -0.619888067958     0.000593086710    -0.491640201943    12.000000000000
         C           -1.279747067958    -1.220393913290    -0.336623201943    12.000000000000
         C           -1.279752067958     1.221202086710    -0.333695201943    12.000000000000
         C           -3.333540067958    -0.000169913290     0.140208798057    12.000000000000
         C            1.844515932042    -0.000997913290     0.826487798057    12.000000000000
         C           -2.637887067958    -1.206078913290    -0.025405201943    12.000000000000
         C           -2.637892067958     1.206136086710    -0.022512201943    12.000000000000
         C           -4.597744567958    -0.000564513290     0.466184998057    12.000000000000
         H           -0.743909067958    -2.153602913290    -0.486488201943     1.007825032230
         H           -0.743917067958     2.154770086710    -0.481322201943     1.007825032230
         H           -3.168023067958    -2.149881913290     0.086336798057     1.007825032230
         H           -3.168031067958     2.149667086710     0.091493798057     1.007825032230
         H           -5.298786067958     0.885615086710     0.125719798057     1.007825032230
         H           -5.298799067958    -0.885886913290     0.123522798057     1.007825032230
         H           -4.913019067958    -0.001974913290     1.604742798057     1.007825032230

  Basis Set: AUG-CC-PVTZ
    Blend: AUG-CC-PVTZ
  Basis Set: (AUG-CC-PVTZ AUX)
    Blend: AUG-CC-PVTZ-JKFIT
	 Reference Energy          =   -1152.7777849517774484 [Eh]
	 Singles Energy            =      -0.0000000000000000 [Eh]
	 Same-Spin Energy          =      -0.7733577330428956 [Eh]
	 Opposite-Spin Energy      =      -2.2474872464162208 [Eh]
	 Correlation Energy        =      -3.0208449794591163 [Eh]
	 Total Energy              =   -1155.7986299312365190 [Eh]

	 ================> DF-SCS-MP2 Energies <==================
	-----------------------------------------------------------
	 SCS Same-Spin Scale       =       0.3333333333333333 [-]
	 SCS Opposite-Spin Scale   =       1.2000000000000000 [-]
	 SCS Same-Spin Energy      =      -0.2577859110142985 [Eh]
	 SCS Opposite-Spin Energy  =      -2.6969846956994648 [Eh]
	 SCS Correlation Energy    =      -2.9547706067137631 [Eh]
	 SCS Total Energy          =   -1155.7325555584911854 [Eh]
	-----------------------------------------------------------

  Dipole Moment: [D]
     X:    -5.4880      Y:    -0.0026      Z:     2.1700     Total:     5.9015

*** Psi4 exiting successfully. Buy a developer a beer!
