                               Psi4 1.4a3.dev225

  ==> Input File <==

--------------------------------------------------------------------------
#psi4
#
memory 32 gb

molecule  {
0 1
  S        1.2441830     0.0010390    -0.8590750
  F        1.5874080    -1.0933110     1.5061340
  F        3.3145200    -0.0009050     0.7339870
  F        1.5874370     1.0896860     1.5087600
  O        1.6617770    -1.2337281    -1.5263060
  O        1.6149580     1.2891350    -1.4486230
  C       -0.4817510     0.0005820    -0.4824320
  C       -1.1416100    -1.2204050    -0.3274150
  C       -1.1416150     1.2211910    -0.3244870
  C       -3.1954030    -0.0001810     0.1494170
  C        1.9826530    -0.0010090     0.8356960
  C       -2.4997500    -1.2060900    -0.0161970
  C       -2.4997550     1.2061250    -0.0133040
  C       -4.6532730    -0.0006360     0.5253300
  H       -0.6057720    -2.1536140    -0.4772800
  H       -0.6057800     2.1547590    -0.4721140
  H       -3.0298860    -2.1498930     0.0955450
  H       -3.0298940     2.1496560     0.1007020
  H       -5.1606490     0.8856040     0.1349280
  H       -5.1606620    -0.8858980     0.1327310
  H       -4.7748820    -0.0019860     1.6139510
units angstrom
no_reorient  #important for SAPT in psi4, default
symmetry c1  #important for SAPT in psi4, default
}

set PROPERTIES_ORIGIN ["COM"]
properties('MP2/aug-cc-pvtz', properties = ['dipole'])
--------------------------------------------------------------------------

    Molecular point group: c1
  Charge       = 0
  Multiplicity = 1
  Basis Set: AUG-CC-PVTZ
    Blend: AUG-CC-PVTZ
  Basis Set: (AUG-CC-PVTZ AUX)
    Blend: AUG-CC-PVTZ-JKFIT

    Orbital Energies [Eh]
    ---------------------

    Doubly Occupied:

       1A    -92.214855     2A    -26.373132     3A    -26.372994
       4A    -26.369672     5A    -20.572973     6A    -20.567668
       7A    -11.552034     8A    -11.295222     9A    -11.288733
      10A    -11.286477    11A    -11.286033    12A    -11.266472
      13A    -11.266351    14A    -11.253258    15A     -9.183746
      16A     -6.868594    17A     -6.867794    18A     -6.867622
      19A     -1.758164    20A     -1.666765    21A     -1.665271
      22A     -1.464257    23A     -1.352216    24A     -1.199627
      25A     -1.102691    26A     -1.055032    27A     -1.040861
      28A     -0.982075    29A     -0.918461    30A     -0.871164
      31A     -0.857799    32A     -0.851916    33A     -0.846101
      34A     -0.797314    35A     -0.743029    36A     -0.737882
      37A     -0.725824    38A     -0.696720    39A     -0.694279
      40A     -0.684581    41A     -0.679220    42A     -0.672395
      43A     -0.666843    44A     -0.643515    45A     -0.639450
      46A     -0.626489    47A     -0.605866    48A     -0.570780
      49A     -0.546943    50A     -0.534114    51A     -0.527383
      52A     -0.517650    53A     -0.514397    54A     -0.491595
      55A     -0.469197    56A     -0.375315    57A     -0.373629

  @DF-RHF Final Energy: -1152.83014545067135

   => Energetics <=

    Nuclear Repulsion Energy =           1101.6496795545172063
    One-Electron Energy =               -3779.1187755844930507
    Two-Electron Energy =                1524.6389505793044918
    Total Energy =                      -1152.8301454506713526
  Basis Set: (AUG-CC-PVTZ AUX)
    Blend: AUG-CC-PVTZ-RI
    Molecular point group: c1

    Geometry (in Angstrom), charge = 0, multiplicity = 1:

       Center              X                  Y                   Z               Mass
    ------------   -----------------  -----------------  -----------------  -----------------
         S            1.113077559298    -0.002652438577    -0.865633578386    31.972071174400
         F            1.456302559298    -1.097002438577     1.499575421614    18.998403162730
         F            3.183414559298    -0.004596438577     0.727428421614    18.998403162730
         F            1.456331559298     1.085994561423     1.502201421614    18.998403162730
         O            1.530671559298    -1.237419538577    -1.532864578386    15.994914619570
         O            1.483852559298     1.285443561423    -1.455181578386    15.994914619570
         C           -0.612856440702    -0.003109438577    -0.488990578386    12.000000000000
         C           -1.272715440702    -1.224096438577    -0.333973578386    12.000000000000
         C           -1.272720440702     1.217499561423    -0.331045578386    12.000000000000
         C           -3.326508440702    -0.003872438577     0.142858421614    12.000000000000
         C            1.851547559298    -0.004700438577     0.829137421614    12.000000000000
         C           -2.630855440702    -1.209781438577    -0.022755578386    12.000000000000
         C           -2.630860440702     1.202433561423    -0.019862578386    12.000000000000
         C           -4.784378440702    -0.004327438577     0.518771421614    12.000000000000
         H           -0.736877440702    -2.157305438577    -0.483838578386     1.007825032230
         H           -0.736885440702     2.151067561423    -0.478672578386     1.007825032230
         H           -3.160991440702    -2.153584438577     0.088986421614     1.007825032230
         H           -3.160999440702     2.145964561423     0.094143421614     1.007825032230
         H           -5.291754440702     0.881912561423     0.128369421614     1.007825032230
         H           -5.291767440702    -0.889589438577     0.126172421614     1.007825032230
         H           -4.905987440702    -0.005677438577     1.607392421614     1.007825032230

  Basis Set: AUG-CC-PVTZ
    Blend: AUG-CC-PVTZ
  Basis Set: (AUG-CC-PVTZ AUX)
    Blend: AUG-CC-PVTZ-JKFIT
	 Reference Energy          =   -1152.8301454506713526 [Eh]
	 Singles Energy            =      -0.0000000000000000 [Eh]
	 Same-Spin Energy          =      -0.7694405402782543 [Eh]
	 Opposite-Spin Energy      =      -2.2423138741309976 [Eh]
	 Correlation Energy        =      -3.0117544144092516 [Eh]
	 Total Energy              =   -1155.8418998650806770 [Eh]

	 ================> DF-SCS-MP2 Energies <==================
	-----------------------------------------------------------
	 SCS Same-Spin Scale       =       0.3333333333333333 [-]
	 SCS Opposite-Spin Scale   =       1.2000000000000000 [-]
	 SCS Same-Spin Energy      =      -0.2564801800927514 [Eh]
	 SCS Opposite-Spin Energy  =      -2.6907766489571969 [Eh]
	 SCS Correlation Energy    =      -2.9472568290499481 [Eh]
	 SCS Total Energy          =   -1155.7774022797214002 [Eh]
	-----------------------------------------------------------

  Dipole Moment: [D]
     X:    -5.5736      Y:    -0.1079      Z:     2.3176     Total:     6.0372

*** Psi4 exiting successfully. Buy a developer a beer!
