                               Psi4 1.4a3.dev225

  ==> Input File <==

--------------------------------------------------------------------------
#psi4
#
memory 32 gb

molecule  {
0 1
  S        1.2441830     0.0010390    -0.8590750
  F        1.5874080    -1.0933110     1.5061340
  F        3.3145200    -0.0009050     0.7339870
  F        1.5874370     1.0896860     1.5087600
  O        1.6149610    -1.2856280    -1.4517330
  O        1.6149580     1.2891350    -1.4486230
  C       -0.4817510     0.0005820    -0.4824320
  C       -1.1420878    -1.2447197    -0.3274314
  C       -1.1416150     1.2211910    -0.3244870
  C       -3.1954030    -0.0001810     0.1494170
  C        1.9826530    -0.0010090     0.8356960
  C       -2.4997500    -1.2060900    -0.0161970
  C       -2.4997550     1.2061250    -0.0133040
  C       -4.6532730    -0.0006360     0.5253300
  H       -0.6057720    -2.1536140    -0.4772800
  H       -0.6057800     2.1547590    -0.4721140
  H       -3.0298860    -2.1498930     0.0955450
  H       -3.0298940     2.1496560     0.1007020
  H       -5.1606490     0.8856040     0.1349280
  H       -5.1606620    -0.8858980     0.1327310
  H       -4.7748820    -0.0019860     1.6139510
units angstrom
no_reorient  #important for SAPT in psi4, default
symmetry c1  #important for SAPT in psi4, default
}

set PROPERTIES_ORIGIN ["COM"]
properties('MP2/aug-cc-pvtz', properties = ['dipole'])
--------------------------------------------------------------------------

    Molecular point group: c1
  Charge       = 0
  Multiplicity = 1
  Basis Set: AUG-CC-PVTZ
    Blend: AUG-CC-PVTZ
  Basis Set: (AUG-CC-PVTZ AUX)
    Blend: AUG-CC-PVTZ-JKFIT

    Orbital Energies [Eh]
    ---------------------

    Doubly Occupied:

       1A    -92.215595     2A    -26.371180     3A    -26.371109
       4A    -26.368536     5A    -20.573636     6A    -20.573396
       7A    -11.549670     8A    -11.294786     9A    -11.288091
      10A    -11.285692    11A    -11.285122    12A    -11.265670
      13A    -11.265469    14A    -11.252732    15A     -9.184289
      16A     -6.869147    17A     -6.868416    18A     -6.868138
      19A     -1.756548    20A     -1.664880    21A     -1.664004
      22A     -1.465371    23A     -1.357987    24A     -1.196071
      25A     -1.099476    26A     -1.054364    27A     -1.038629
      28A     -0.980512    29A     -0.916678    30A     -0.869779
      31A     -0.857034    32A     -0.850246    33A     -0.845162
      34A     -0.796077    35A     -0.742665    36A     -0.736343
      37A     -0.725573    38A     -0.695176    39A     -0.693023
      40A     -0.682936    41A     -0.677744    42A     -0.674451
      43A     -0.666445    44A     -0.646931    45A     -0.637043
      46A     -0.627563    47A     -0.605088    48A     -0.569512
      49A     -0.546765    50A     -0.531102    51A     -0.527140
      52A     -0.522104    53A     -0.514067    54A     -0.496869
      55A     -0.467387    56A     -0.373918    57A     -0.371569

  @DF-RHF Final Energy: -1152.82952312988846

   => Energetics <=

    Nuclear Repulsion Energy =           1102.1044952476493108
    One-Electron Energy =               -3780.0782185484417823
    Two-Electron Energy =                1525.1442001709042415
    Total Energy =                      -1152.8295231298884573
  Basis Set: (AUG-CC-PVTZ AUX)
    Blend: AUG-CC-PVTZ-RI
    Molecular point group: c1

    Geometry (in Angstrom), charge = 0, multiplicity = 1:

       Center              X                  Y                   Z               Mass
    ------------   -----------------  -----------------  -----------------  -----------------
         S            1.116445914162     0.002355826358    -0.870957367199    31.972071174400
         F            1.459670914162    -1.091994173642     1.494251632801    18.998403162730
         F            3.186782914162     0.000411826358     0.722104632801    18.998403162730
         F            1.459699914162     1.091002826358     1.496877632801    18.998403162730
         O            1.487223914162    -1.284311173642    -1.463615367199    15.994914619570
         O            1.487220914162     1.290451826358    -1.460505367199    15.994914619570
         C           -0.609488085838     0.001898826358    -0.494314367199    12.000000000000
         C           -1.269824885838    -1.243402873642    -0.339313767199    12.000000000000
         C           -1.269352085838     1.222507826358    -0.336369367199    12.000000000000
         C           -3.323140085838     0.001135826358     0.137534632801    12.000000000000
         C            1.854915914162     0.000307826358     0.823813632801    12.000000000000
         C           -2.627487085838    -1.204773173642    -0.028079367199    12.000000000000
         C           -2.627492085838     1.207441826358    -0.025186367199    12.000000000000
         C           -4.781010085838     0.000680826358     0.513447632801    12.000000000000
         H           -0.733509085838    -2.152297173642    -0.489162367199     1.007825032230
         H           -0.733517085838     2.156075826358    -0.483996367199     1.007825032230
         H           -3.157623085838    -2.148576173642     0.083662632801     1.007825032230
         H           -3.157631085838     2.150972826358     0.088819632801     1.007825032230
         H           -5.288386085838     0.886920826358     0.123045632801     1.007825032230
         H           -5.288399085838    -0.884581173642     0.120848632801     1.007825032230
         H           -4.902619085838    -0.000669173642     1.602068632801     1.007825032230

  Basis Set: AUG-CC-PVTZ
    Blend: AUG-CC-PVTZ
  Basis Set: (AUG-CC-PVTZ AUX)
    Blend: AUG-CC-PVTZ-JKFIT
	 Reference Energy          =   -1152.8295231298884573 [Eh]
	 Singles Energy            =      -0.0000000000000000 [Eh]
	 Same-Spin Energy          =      -0.7696832960318357 [Eh]
	 Opposite-Spin Energy      =      -2.2428534477002993 [Eh]
	 Correlation Energy        =      -3.0125367437321349 [Eh]
	 Total Energy              =   -1155.8420598736206557 [Eh]

	 ================> DF-SCS-MP2 Energies <==================
	-----------------------------------------------------------
	 SCS Same-Spin Scale       =       0.3333333333333333 [-]
	 SCS Opposite-Spin Scale   =       1.2000000000000000 [-]
	 SCS Same-Spin Energy      =      -0.2565610986772786 [Eh]
	 SCS Opposite-Spin Energy  =      -2.6914241372403591 [Eh]
	 SCS Correlation Energy    =      -2.9479852359176375 [Eh]
	 SCS Total Energy          =   -1155.7775083658061703 [Eh]
	-----------------------------------------------------------

  Dipole Moment: [D]
     X:    -5.4435      Y:     0.0024      Z:     2.1379     Total:     5.8482

*** Psi4 exiting successfully. Buy a developer a beer!
