                               Psi4 1.4a3.dev225

  ==> Input File <==

--------------------------------------------------------------------------
#psi4
#
memory 32 gb

molecule  {
0 1
  S        1.2441830     0.0010390    -0.8590750
  F        1.5874080    -1.0933110     1.5061340
  F        3.3145200    -0.0009050     0.7339870
  F        1.5874370     1.0896860     1.5087600
  O        1.6149610    -1.2856280    -1.4517330
  O        1.6149580     1.2891350    -1.4486230
  C       -0.4817510     0.0005820    -0.4824320
  C       -1.1416100    -1.2204050    -0.3274150
  C       -1.1416150     1.2211910    -0.3244870
  C       -3.1954030    -0.0001810     0.1494170
  C        1.9826530    -0.0010090     0.8356960
  C       -2.4997500    -1.2060900    -0.0161970
  C       -2.4997550     1.2061250    -0.0133040
  C       -4.6532730    -0.0006360     0.5253300
  H       -0.6057720    -2.1536140    -0.4772800
  H       -0.6057800     2.1547590    -0.4721140
  H       -3.0298860    -2.1498930     0.0955450
  H       -3.0542513     2.1930067     0.1059400
  H       -5.1606490     0.8856040     0.1349280
  H       -5.1606620    -0.8858980     0.1327310
  H       -4.7748820    -0.0019860     1.6139510
units angstrom
no_reorient  #important for SAPT in psi4, default
symmetry c1  #important for SAPT in psi4, default
}

set PROPERTIES_ORIGIN ["COM"]
properties('MP2/aug-cc-pvtz', properties = ['dipole'])
--------------------------------------------------------------------------

    Molecular point group: c1
  Charge       = 0
  Multiplicity = 1
  Basis Set: AUG-CC-PVTZ
    Blend: AUG-CC-PVTZ
  Basis Set: (AUG-CC-PVTZ AUX)
    Blend: AUG-CC-PVTZ-JKFIT

    Orbital Energies [Eh]
    ---------------------

    Doubly Occupied:

       1A    -92.216284     2A    -26.371506     3A    -26.371481
       4A    -26.368923     5A    -20.574069     6A    -20.574037
       7A    -11.550153     8A    -11.293305     9A    -11.288010
      10A    -11.285040    11A    -11.284757    12A    -11.270698
      13A    -11.265459    14A    -11.252357    15A     -9.184975
      16A     -6.869834    17A     -6.869109    18A     -6.868817
      19A     -1.756908    20A     -1.665220    21A     -1.664366
      22A     -1.465909    23A     -1.358473    24A     -1.198064
      25A     -1.100665    26A     -1.052704    27A     -1.039144
      28A     -0.980718    29A     -0.917205    30A     -0.867746
      31A     -0.856947    32A     -0.850591    33A     -0.845077
      34A     -0.795298    35A     -0.742765    36A     -0.736667
      37A     -0.725285    38A     -0.695534    39A     -0.693250
      40A     -0.684057    41A     -0.678097    42A     -0.670323
      43A     -0.666181    44A     -0.647197    45A     -0.636099
      46A     -0.622546    47A     -0.604930    48A     -0.568532
      49A     -0.545699    50A     -0.532788    51A     -0.524898
      52A     -0.522336    53A     -0.514672    54A     -0.497217
      55A     -0.468048    56A     -0.374231    57A     -0.372529

  @DF-RHF Final Energy: -1152.82804327771896

   => Energetics <=

    Nuclear Repulsion Energy =           1102.3123188402078085
    One-Electron Energy =               -3780.4852583319584483
    Two-Electron Energy =                1525.3448962140316780
    Total Energy =                      -1152.8280432777189617
  Basis Set: (AUG-CC-PVTZ AUX)
    Blend: AUG-CC-PVTZ-RI
    Molecular point group: c1

    Geometry (in Angstrom), charge = 0, multiplicity = 1:

       Center              X                  Y                   Z               Mass
    ------------   -----------------  -----------------  -----------------  -----------------
         S            1.116529902102     0.000858288312    -0.870981811382    31.972071174400
         F            1.459754902102    -1.093491711688     1.494227188618    18.998403162730
         F            3.186866902102    -0.001085711688     0.722080188618    18.998403162730
         F            1.459783902102     1.089505288312     1.496853188618    18.998403162730
         O            1.487307902102    -1.285808711688    -1.463639811382    15.994914619570
         O            1.487304902102     1.288954288312    -1.460529811382    15.994914619570
         C           -0.609404097898     0.000401288312    -0.494338811382    12.000000000000
         C           -1.269263097898    -1.220585711688    -0.339321811382    12.000000000000
         C           -1.269268097898     1.221010288312    -0.336393811382    12.000000000000
         C           -3.323056097898    -0.000361711688     0.137510188618    12.000000000000
         C            1.854999902102    -0.001189711688     0.823789188618    12.000000000000
         C           -2.627403097898    -1.206270711688    -0.028103811382    12.000000000000
         C           -2.627408097898     1.205944288312    -0.025210811382    12.000000000000
         C           -4.780926097898    -0.000816711688     0.513423188618    12.000000000000
         H           -0.733425097898    -2.153794711688    -0.489186811382     1.007825032230
         H           -0.733433097898     2.154578288312    -0.484020811382     1.007825032230
         H           -3.157539097898    -2.150073711688     0.083638188618     1.007825032230
         H           -3.181904397898     2.192825988312     0.094033188618     1.007825032230
         H           -5.288302097898     0.885423288312     0.123021188618     1.007825032230
         H           -5.288315097898    -0.886078711688     0.120824188618     1.007825032230
         H           -4.902535097898    -0.002166711688     1.602044188618     1.007825032230

  Basis Set: AUG-CC-PVTZ
    Blend: AUG-CC-PVTZ
  Basis Set: (AUG-CC-PVTZ AUX)
    Blend: AUG-CC-PVTZ-JKFIT
	 Reference Energy          =   -1152.8280432777189617 [Eh]
	 Singles Energy            =      -0.0000000000000000 [Eh]
	 Same-Spin Energy          =      -0.7698104648736699 [Eh]
	 Opposite-Spin Energy      =      -2.2431271379522384 [Eh]
	 Correlation Energy        =      -3.0129376028259083 [Eh]
	 Total Energy              =   -1155.8409808805449757 [Eh]

	 ================> DF-SCS-MP2 Energies <==================
	-----------------------------------------------------------
	 SCS Same-Spin Scale       =       0.3333333333333333 [-]
	 SCS Opposite-Spin Scale   =       1.2000000000000000 [-]
	 SCS Same-Spin Energy      =      -0.2566034882912233 [Eh]
	 SCS Opposite-Spin Energy  =      -2.6917525655426862 [Eh]
	 SCS Correlation Energy    =      -2.9483560538339093 [Eh]
	 SCS Total Energy          =   -1155.7763993315529660 [Eh]
	-----------------------------------------------------------

  Dipole Moment: [D]
     X:    -5.4098      Y:    -0.0136      Z:     2.1331     Total:     5.8152

*** Psi4 exiting successfully. Buy a developer a beer!
