                               Psi4 1.4a3.dev225

  ==> Input File <==

--------------------------------------------------------------------------
#psi4
#
memory 32 gb

molecule  {
0 1
  S        1.2441830     0.0010390    -0.8590750
  F        1.5874080    -1.0933110     1.5061340
  F        3.3145200    -0.0009050     0.7339870
  F        1.5874370     1.0896860     1.5087600
  O        1.6149610    -1.2856280    -1.4517330
  O        1.6149580     1.2891350    -1.4486230
  C       -0.4817510     0.0005820    -0.4824320
  C       -1.1416100    -1.2204050    -0.3274150
  C       -1.1416150     1.2211910    -0.3244870
  C       -3.1954030    -0.0001810     0.1494170
  C        1.9826530    -0.0010090     0.8356960
  C       -2.4997500    -1.2060900    -0.0161970
  C       -2.4997550     1.2061250    -0.0133040
  C       -4.6532730    -0.0006360     0.5253300
  H       -0.6057720    -2.1536140    -0.4772800
  H       -0.6057800     2.1547590    -0.4721140
  H       -3.0298860    -2.1498930     0.0955450
  H       -3.0298940     2.1496560     0.1007020
  H       -5.1374447     0.8450728     0.1527826
  H       -5.1606620    -0.8858980     0.1327310
  H       -4.7748820    -0.0019860     1.6139510
units angstrom
no_reorient  #important for SAPT in psi4, default
symmetry c1  #important for SAPT in psi4, default
}

set PROPERTIES_ORIGIN ["COM"]
properties('MP2/aug-cc-pvtz', properties = ['dipole'])
--------------------------------------------------------------------------

    Molecular point group: c1
  Charge       = 0
  Multiplicity = 1
  Basis Set: AUG-CC-PVTZ
    Blend: AUG-CC-PVTZ
  Basis Set: (AUG-CC-PVTZ AUX)
    Blend: AUG-CC-PVTZ-JKFIT

    Orbital Energies [Eh]
    ---------------------

    Doubly Occupied:

       1A    -92.216017     2A    -26.371346     3A    -26.371324
       4A    -26.368763     5A    -20.573839     6A    -20.573820
       7A    -11.549960     8A    -11.292871     9A    -11.287170
      10A    -11.284573    11A    -11.284404    12A    -11.265054
      13A    -11.264784    14A    -11.246419    15A     -9.184713
      16A     -6.869572    17A     -6.868844    18A     -6.868556
      19A     -1.756750    20A     -1.665063    21A     -1.664210
      22A     -1.465686    23A     -1.358258    24A     -1.197941
      25A     -1.101293    26A     -1.053491    27A     -1.039477
      28A     -0.983435    29A     -0.918135    30A     -0.869682
      31A     -0.857246    32A     -0.850435    33A     -0.845305
      34A     -0.796848    35A     -0.742993    36A     -0.736524
      37A     -0.725846    38A     -0.695426    39A     -0.693163
      40A     -0.684454    41A     -0.677951    42A     -0.671566
      43A     -0.666391    44A     -0.647340    45A     -0.638885
      46A     -0.625146    47A     -0.607120    48A     -0.575389
      49A     -0.545694    50A     -0.532631    51A     -0.526797
      52A     -0.522618    53A     -0.514639    54A     -0.497024
      55A     -0.467911    56A     -0.373935    57A     -0.372180

  @DF-RHF Final Energy: -1152.82961545586340

   => Energetics <=

    Nuclear Repulsion Energy =           1102.8238644659841157
    One-Electron Energy =               -3781.4931470320843800
    Two-Electron Energy =                1525.8396671102368600
    Total Energy =                      -1152.8296154558634043
  Basis Set: (AUG-CC-PVTZ AUX)
    Blend: AUG-CC-PVTZ-RI
    Molecular point group: c1

    Geometry (in Angstrom), charge = 0, multiplicity = 1:

       Center              X                  Y                   Z               Mass
    ------------   -----------------  -----------------  -----------------  -----------------
         S            1.116315923406     0.001235671318    -0.871038573215    31.972071174400
         F            1.459540923406    -1.093114328682     1.494170426785    18.998403162730
         F            3.186652923406    -0.000708328682     0.722023426785    18.998403162730
         F            1.459569923406     1.089882671318     1.496796426785    18.998403162730
         O            1.487093923406    -1.285431328682    -1.463696573215    15.994914619570
         O            1.487090923406     1.289331671318    -1.460586573215    15.994914619570
         C           -0.609618076594     0.000778671318    -0.494395573215    12.000000000000
         C           -1.269477076594    -1.220208328682    -0.339378573215    12.000000000000
         C           -1.269482076594     1.221387671318    -0.336450573215    12.000000000000
         C           -3.323270076594     0.000015671318     0.137453426785    12.000000000000
         C            1.854785923406    -0.000812328682     0.823732426785    12.000000000000
         C           -2.627617076594    -1.205893328682    -0.028160573215    12.000000000000
         C           -2.627622076594     1.206321671318    -0.025267573215    12.000000000000
         C           -4.781140076594    -0.000439328682     0.513366426785    12.000000000000
         H           -0.733639076594    -2.153417328682    -0.489243573215     1.007825032230
         H           -0.733647076594     2.154955671318    -0.484077573215     1.007825032230
         H           -3.157753076594    -2.149696328682     0.083581426785     1.007825032230
         H           -3.157761076594     2.149852671318     0.088738426785     1.007825032230
         H           -5.265311776594     0.845269471318     0.140819026785     1.007825032230
         H           -5.288529076594    -0.885701328682     0.120767426785     1.007825032230
         H           -4.902749076594    -0.001789328682     1.601987426785     1.007825032230

  Basis Set: AUG-CC-PVTZ
    Blend: AUG-CC-PVTZ
  Basis Set: (AUG-CC-PVTZ AUX)
    Blend: AUG-CC-PVTZ-JKFIT
	 Reference Energy          =   -1152.8296154558634043 [Eh]
	 Singles Energy            =      -0.0000000000000000 [Eh]
	 Same-Spin Energy          =      -0.7696712675537033 [Eh]
	 Opposite-Spin Energy      =      -2.2423850381962183 [Eh]
	 Correlation Energy        =      -3.0120563057499217 [Eh]
	 Total Energy              =   -1155.8416717616132701 [Eh]

	 ================> DF-SCS-MP2 Energies <==================
	-----------------------------------------------------------
	 SCS Same-Spin Scale       =       0.3333333333333333 [-]
	 SCS Opposite-Spin Scale   =       1.2000000000000000 [-]
	 SCS Same-Spin Energy      =      -0.2565570891845678 [Eh]
	 SCS Opposite-Spin Energy  =      -2.6908620458354617 [Eh]
	 SCS Correlation Energy    =      -2.9474191350200294 [Eh]
	 SCS Total Energy          =   -1155.7770345908834315 [Eh]
	-----------------------------------------------------------

  Dipole Moment: [D]
     X:    -5.4409      Y:     0.0098      Z:     2.1329     Total:     5.8440

*** Psi4 exiting successfully. Buy a developer a beer!
