                               Psi4 1.4a3.dev225

  ==> Input File <==

--------------------------------------------------------------------------
#psi4
#
memory 32 gb

molecule  {
0 1
  S        1.2441830     0.0010390    -0.8590750
  F        1.5874080    -1.0933110     1.5061340
  F        3.3145200    -0.0009050     0.7339870
  F        1.5874370     1.0896860     1.5087600
  O        1.6149610    -1.2856280    -1.4517330
  O        1.6149580     1.2891350    -1.4486230
  C       -0.4817510     0.0005820    -0.4824320
  C       -1.1416100    -1.2204050    -0.3274150
  C       -1.1416150     1.2211910    -0.3244870
  C       -3.1954030    -0.0001810     0.1494170
  C        1.9826530    -0.0010090     0.8356960
  C       -2.4997500    -1.2060900    -0.0161970
  C       -2.4997550     1.2061250    -0.0133040
  C       -4.6532730    -0.0006360     0.5253300
  H       -0.6057720    -2.1536140    -0.4772800
  H       -0.6057800     2.1547590    -0.4721140
  H       -3.0298860    -2.1498930     0.0955450
  H       -3.0396369     2.1669963     0.1027972
  H       -5.1606490     0.8856040     0.1349280
  H       -5.1606620    -0.8858980     0.1327310
  H       -4.7748820    -0.0019860     1.6139510
units angstrom
no_reorient  #important for SAPT in psi4, default
symmetry c1  #important for SAPT in psi4, default
}

set PROPERTIES_ORIGIN ["COM"]
properties('MP2/aug-cc-pvtz', properties = ['dipole'])
--------------------------------------------------------------------------

    Molecular point group: c1
  Charge       = 0
  Multiplicity = 1
  Basis Set: AUG-CC-PVTZ
    Blend: AUG-CC-PVTZ
  Basis Set: (AUG-CC-PVTZ AUX)
    Blend: AUG-CC-PVTZ-JKFIT

    Orbital Energies [Eh]
    ---------------------

    Doubly Occupied:

       1A    -92.216168     2A    -26.371447     3A    -26.371425
       4A    -26.368862     5A    -20.573971     6A    -20.573949
       7A    -11.550078     8A    -11.293116     9A    -11.287719
      10A    -11.284783    11A    -11.284638    12A    -11.267365
      13A    -11.265237    14A    -11.252395    15A     -9.184863
      16A     -6.869722    17A     -6.868995    18A     -6.868705
      19A     -1.756850    20A     -1.665163    21A     -1.664307
      22A     -1.465817    23A     -1.358384    24A     -1.198022
      25A     -1.100677    26A     -1.053220    27A     -1.039070
      28A     -0.980798    29A     -0.917180    30A     -0.868874
      31A     -0.856876    32A     -0.850534    33A     -0.845046
      34A     -0.796194    35A     -0.742890    36A     -0.736614
      37A     -0.725536    38A     -0.695474    39A     -0.693210
      40A     -0.683930    41A     -0.678040    42A     -0.670848
      43A     -0.666319    44A     -0.647110    45A     -0.637544
      46A     -0.624282    47A     -0.604953    48A     -0.569411
      49A     -0.545663    50A     -0.532669    51A     -0.525730
      52A     -0.522614    53A     -0.514682    54A     -0.497130
      55A     -0.468019    56A     -0.374071    57A     -0.372382

  @DF-RHF Final Energy: -1152.82988586459010

   => Energetics <=

    Nuclear Repulsion Energy =           1102.4780845360462536
    One-Electron Energy =               -3780.8167957665546055
    Two-Electron Energy =                1525.5088253659180282
    Total Energy =                      -1152.8298858645900964
  Basis Set: (AUG-CC-PVTZ AUX)
    Blend: AUG-CC-PVTZ-RI
    Molecular point group: c1

    Geometry (in Angstrom), charge = 0, multiplicity = 1:

       Center              X                  Y                   Z               Mass
    ------------   -----------------  -----------------  -----------------  -----------------
         S            1.116464152206     0.000975308586    -0.870967671987    31.972071174400
         F            1.459689152206    -1.093374691414     1.494241328013    18.998403162730
         F            3.186801152206    -0.000968691414     0.722094328013    18.998403162730
         F            1.459718152206     1.089622308586     1.496867328013    18.998403162730
         O            1.487242152206    -1.285691691414    -1.463625671987    15.994914619570
         O            1.487239152206     1.289071308586    -1.460515671987    15.994914619570
         C           -0.609469847794     0.000518308586    -0.494324671987    12.000000000000
         C           -1.269328847794    -1.220468691414    -0.339307671987    12.000000000000
         C           -1.269333847794     1.221127308586    -0.336379671987    12.000000000000
         C           -3.323121847794    -0.000244691414     0.137524328013    12.000000000000
         C            1.854934152206    -0.001072691414     0.823803328013    12.000000000000
         C           -2.627468847794    -1.206153691414    -0.028089671987    12.000000000000
         C           -2.627473847794     1.206061308586    -0.025196671987    12.000000000000
         C           -4.780991847794    -0.000699691414     0.513437328013    12.000000000000
         H           -0.733490847794    -2.153677691414    -0.489172671987     1.007825032230
         H           -0.733498847794     2.154695308586    -0.484006671987     1.007825032230
         H           -3.157604847794    -2.149956691414     0.083652328013     1.007825032230
         H           -3.167355747794     2.166932608586     0.090904528013     1.007825032230
         H           -5.288367847794     0.885540308586     0.123035328013     1.007825032230
         H           -5.288380847794    -0.885961691414     0.120838328013     1.007825032230
         H           -4.902600847794    -0.002049691414     1.602058328013     1.007825032230

  Basis Set: AUG-CC-PVTZ
    Blend: AUG-CC-PVTZ
  Basis Set: (AUG-CC-PVTZ AUX)
    Blend: AUG-CC-PVTZ-JKFIT
	 Reference Energy          =   -1152.8298858645900964 [Eh]
	 Singles Energy            =      -0.0000000000000000 [Eh]
	 Same-Spin Energy          =      -0.7697313082714012 [Eh]
	 Opposite-Spin Energy      =      -2.2428479538191963 [Eh]
	 Correlation Energy        =      -3.0125792620905978 [Eh]
	 Total Energy              =   -1155.8424651266807359 [Eh]

	 ================> DF-SCS-MP2 Energies <==================
	-----------------------------------------------------------
	 SCS Same-Spin Scale       =       0.3333333333333333 [-]
	 SCS Opposite-Spin Scale   =       1.2000000000000000 [-]
	 SCS Same-Spin Energy      =      -0.2565771027571337 [Eh]
	 SCS Opposite-Spin Energy  =      -2.6914175445830355 [Eh]
	 SCS Correlation Energy    =      -2.9479946473401690 [Eh]
	 SCS Total Energy          =   -1155.7778805119303343 [Eh]
	-----------------------------------------------------------

  Dipole Moment: [D]
     X:    -5.4175      Y:    -0.0066      Z:     2.1344     Total:     5.8228

*** Psi4 exiting successfully. Buy a developer a beer!
