                               Psi4 1.4a3.dev225

  ==> Input File <==

--------------------------------------------------------------------------
#psi4
#
memory 32 gb

molecule  {
0 1
  S        1.2441830     0.0010390    -0.8590750
  F        1.5874080    -1.0933110     1.5061340
  F        3.3145200    -0.0009050     0.7339870
  F        1.5874370     1.0896860     1.5087600
  O        1.6268434    -1.2732313    -1.4706614
  O        1.6149580     1.2891350    -1.4486230
  C       -0.4817510     0.0005820    -0.4824320
  C       -1.1416100    -1.2204050    -0.3274150
  C       -1.1416150     1.2211910    -0.3244870
  C       -3.1954030    -0.0001810     0.1494170
  C        1.9826530    -0.0010090     0.8356960
  C       -2.4997500    -1.2060900    -0.0161970
  C       -2.4997550     1.2061250    -0.0133040
  C       -4.6532730    -0.0006360     0.5253300
  H       -0.6057720    -2.1536140    -0.4772800
  H       -0.6057800     2.1547590    -0.4721140
  H       -3.0298860    -2.1498930     0.0955450
  H       -3.0298940     2.1496560     0.1007020
  H       -5.1606490     0.8856040     0.1349280
  H       -5.1606620    -0.8858980     0.1327310
  H       -4.7748820    -0.0019860     1.6139510
units angstrom
no_reorient  #important for SAPT in psi4, default
symmetry c1  #important for SAPT in psi4, default
}

set PROPERTIES_ORIGIN ["COM"]
properties('MP2/aug-cc-pvtz', properties = ['dipole'])
--------------------------------------------------------------------------

    Molecular point group: c1
  Charge       = 0
  Multiplicity = 1
  Basis Set: AUG-CC-PVTZ
    Blend: AUG-CC-PVTZ
  Basis Set: (AUG-CC-PVTZ AUX)
    Blend: AUG-CC-PVTZ-JKFIT

    Orbital Energies [Eh]
    ---------------------

    Doubly Occupied:

       1A    -92.215803     2A    -26.371846     3A    -26.371804
       4A    -26.369040     5A    -20.573699     6A    -20.572374
       7A    -11.550535     8A    -11.293561     9A    -11.287844
      10A    -11.285096    11A    -11.284947    12A    -11.265458
      13A    -11.265410    14A    -11.252636    15A     -9.184543
      16A     -6.869401    17A     -6.868653    18A     -6.868397
      19A     -1.757157    20A     -1.665544    21A     -1.664528
      22A     -1.465374    23A     -1.356851    24A     -1.198426
      25A     -1.101210    26A     -1.053977    27A     -1.039493
      28A     -0.981174    29A     -0.917499    30A     -0.870094
      31A     -0.857076    32A     -0.850860    33A     -0.845302
      34A     -0.796960    35A     -0.742987    36A     -0.736913
      37A     -0.725763    38A     -0.695763    39A     -0.693468
      40A     -0.684030    41A     -0.678316    42A     -0.671579
      43A     -0.666544    44A     -0.646210    45A     -0.638921
      46A     -0.625527    47A     -0.605199    48A     -0.570176
      49A     -0.545972    50A     -0.532989    51A     -0.526547
      52A     -0.521499    53A     -0.514630    54A     -0.495804
      55A     -0.468318    56A     -0.374316    57A     -0.372637

  @DF-RHF Final Energy: -1152.83068160161383

   => Energetics <=

    Nuclear Repulsion Energy =           1102.3444049036959314
    One-Electron Energy =               -3780.5368115017868149
    Two-Electron Energy =                1525.3617249964772782
    Total Energy =                      -1152.8306816016138328
  Basis Set: (AUG-CC-PVTZ AUX)
    Blend: AUG-CC-PVTZ-RI
    Molecular point group: c1

    Geometry (in Angstrom), charge = 0, multiplicity = 1:

       Center              X                  Y                   Z               Mass
    ------------   -----------------  -----------------  -----------------  -----------------
         S            1.115571891012     0.000168172083    -0.869606718586    31.972071174400
         F            1.458796891012    -1.094181827917     1.495602281414    18.998403162730
         F            3.185908891012    -0.001775827917     0.723455281414    18.998403162730
         F            1.458825891012     1.088815172083     1.498228281414    18.998403162730
         O            1.498232291012    -1.274102127917    -1.481193118586    15.994914619570
         O            1.486346891012     1.288264172083    -1.459154718586    15.994914619570
         C           -0.610362108988    -0.000288827917    -0.492963718586    12.000000000000
         C           -1.270221108988    -1.221275827917    -0.337946718586    12.000000000000
         C           -1.270226108988     1.220320172083    -0.335018718586    12.000000000000
         C           -3.324014108988    -0.001051827917     0.138885281414    12.000000000000
         C            1.854041891012    -0.001879827917     0.825164281414    12.000000000000
         C           -2.628361108988    -1.206960827917    -0.026728718586    12.000000000000
         C           -2.628366108988     1.205254172083    -0.023835718586    12.000000000000
         C           -4.781884108988    -0.001506827917     0.514798281414    12.000000000000
         H           -0.734383108988    -2.154484827917    -0.487811718586     1.007825032230
         H           -0.734391108988     2.153888172083    -0.482645718586     1.007825032230
         H           -3.158497108988    -2.150763827917     0.085013281414     1.007825032230
         H           -3.158505108988     2.148785172083     0.090170281414     1.007825032230
         H           -5.289260108988     0.884733172083     0.124396281414     1.007825032230
         H           -5.289273108988    -0.886768827917     0.122199281414     1.007825032230
         H           -4.903493108988    -0.002856827917     1.603419281414     1.007825032230

  Basis Set: AUG-CC-PVTZ
    Blend: AUG-CC-PVTZ
  Basis Set: (AUG-CC-PVTZ AUX)
    Blend: AUG-CC-PVTZ-JKFIT
	 Reference Energy          =   -1152.8306816016138328 [Eh]
	 Singles Energy            =      -0.0000000000000000 [Eh]
	 Same-Spin Energy          =      -0.7696090176768431 [Eh]
	 Opposite-Spin Energy      =      -2.2425652276526060 [Eh]
	 Correlation Energy        =      -3.0121742453294491 [Eh]
	 Total Energy              =   -1155.8428558469433938 [Eh]

	 ================> DF-SCS-MP2 Energies <==================
	-----------------------------------------------------------
	 SCS Same-Spin Scale       =       0.3333333333333333 [-]
	 SCS Opposite-Spin Scale   =       1.2000000000000000 [-]
	 SCS Same-Spin Energy      =      -0.2565363392256144 [Eh]
	 SCS Opposite-Spin Energy  =      -2.6910782731831273 [Eh]
	 SCS Correlation Energy    =      -2.9476146124087417 [Eh]
	 SCS Total Energy          =   -1155.7782962140224754 [Eh]
	-----------------------------------------------------------

  Dipole Moment: [D]
     X:    -5.4609      Y:    -0.0277      Z:     2.1816     Total:     5.8806

*** Psi4 exiting successfully. Buy a developer a beer!
