                               Psi4 1.4a3.dev225

  ==> Input File <==

--------------------------------------------------------------------------
#psi4
#
memory 32 gb

molecule  {
0 1
  S        1.2441830     0.0010390    -0.8590750
  F        1.5874080    -1.0933110     1.5061340
  F        3.3145200    -0.0009050     0.7339870
  F        1.5874370     1.0896860     1.5087600
  O        1.6149610    -1.2856280    -1.4517330
  O        1.6149580     1.2891350    -1.4486230
  C       -0.4817510     0.0005820    -0.4824320
  C       -1.1416100    -1.2204050    -0.3274150
  C       -1.1416150     1.2211910    -0.3244870
  C       -3.1954030    -0.0001810     0.1494170
  C        1.9826530    -0.0010090     0.8356960
  C       -2.4997500    -1.2060900    -0.0161970
  C       -2.4997550     1.2061250    -0.0133040
  C       -4.6726395    -0.0006420     0.5303237
  H       -0.6057720    -2.1536140    -0.4772800
  H       -0.6057800     2.1547590    -0.4721140
  H       -3.0298860    -2.1498930     0.0955450
  H       -3.0298940     2.1496560     0.1007020
  H       -5.1606490     0.8856040     0.1349280
  H       -5.1606620    -0.8858980     0.1327310
  H       -4.7748820    -0.0019860     1.6139510
units angstrom
no_reorient  #important for SAPT in psi4, default
symmetry c1  #important for SAPT in psi4, default
}

set PROPERTIES_ORIGIN ["COM"]
properties('MP2/aug-cc-pvtz', properties = ['dipole'])
--------------------------------------------------------------------------

    Molecular point group: c1
  Charge       = 0
  Multiplicity = 1
  Basis Set: AUG-CC-PVTZ
    Blend: AUG-CC-PVTZ
  Basis Set: (AUG-CC-PVTZ AUX)
    Blend: AUG-CC-PVTZ-JKFIT

    Orbital Energies [Eh]
    ---------------------

    Doubly Occupied:

       1A    -92.216074     2A    -26.371390     3A    -26.371369
       4A    -26.368808     5A    -20.573892     6A    -20.573873
       7A    -11.550012     8A    -11.292966     9A    -11.288256
      10A    -11.284595    11A    -11.284493    12A    -11.265100
      13A    -11.265063    14A    -11.251947    15A     -9.184771
      16A     -6.869631    17A     -6.868903    18A     -6.868614
      19A     -1.756794    20A     -1.665108    21A     -1.664253
      22A     -1.465739    23A     -1.358309    24A     -1.197473
      25A     -1.098972    26A     -1.053498    27A     -1.038553
      28A     -0.980852    29A     -0.917617    30A     -0.869371
      31A     -0.857005    32A     -0.850479    33A     -0.845128
      34A     -0.796759    35A     -0.742930    36A     -0.736556
      37A     -0.725543    38A     -0.695388    39A     -0.693112
      40A     -0.683500    41A     -0.677981    42A     -0.670285
      43A     -0.666079    44A     -0.647011    45A     -0.637879
      46A     -0.625186    47A     -0.606877    48A     -0.573466
      49A     -0.541435    50A     -0.533143    51A     -0.527044
      52A     -0.522671    53A     -0.514499    54A     -0.497076
      55A     -0.467863    56A     -0.374485    57A     -0.372201

  @DF-RHF Final Energy: -1152.83046654831946

   => Energetics <=

    Nuclear Repulsion Energy =           1102.2001914438214953
    One-Electron Energy =               -3780.2655624548201558
    Two-Electron Energy =                1525.2349044626791965
    Total Energy =                      -1152.8304665483194640
  Basis Set: (AUG-CC-PVTZ AUX)
    Blend: AUG-CC-PVTZ-RI
    Molecular point group: c1

    Geometry (in Angstrom), charge = 0, multiplicity = 1:

       Center              X                  Y                   Z               Mass
    ------------   -----------------  -----------------  -----------------  -----------------
         S            1.117457755118     0.001053643664    -0.871225751173    31.972071174400
         F            1.460682755118    -1.093296356336     1.493983248827    18.998403162730
         F            3.187794755118    -0.000890356336     0.721836248827    18.998403162730
         F            1.460711755118     1.089700643664     1.496609248827    18.998403162730
         O            1.488235755118    -1.285613356336    -1.463883751173    15.994914619570
         O            1.488232755118     1.289149643664    -1.460773751173    15.994914619570
         C           -0.608476244882     0.000596643664    -0.494582751173    12.000000000000
         C           -1.268335244882    -1.220390356336    -0.339565751173    12.000000000000
         C           -1.268340244882     1.221205643664    -0.336637751173    12.000000000000
         C           -3.322128244882    -0.000166356336     0.137266248827    12.000000000000
         C            1.855927755118    -0.000994356336     0.823545248827    12.000000000000
         C           -2.626475244882    -1.206075356336    -0.028347751173    12.000000000000
         C           -2.626480244882     1.206139643664    -0.025454751173    12.000000000000
         C           -4.799364744882    -0.000627356336     0.518172948827    12.000000000000
         H           -0.732497244882    -2.153599356336    -0.489430751173     1.007825032230
         H           -0.732505244882     2.154773643664    -0.484264751173     1.007825032230
         H           -3.156611244882    -2.149878356336     0.083394248827     1.007825032230
         H           -3.156619244882     2.149670643664     0.088551248827     1.007825032230
         H           -5.287374244882     0.885618643664     0.122777248827     1.007825032230
         H           -5.287387244882    -0.885883356336     0.120580248827     1.007825032230
         H           -4.901607244882    -0.001971356336     1.601800248827     1.007825032230

  Basis Set: AUG-CC-PVTZ
    Blend: AUG-CC-PVTZ
  Basis Set: (AUG-CC-PVTZ AUX)
    Blend: AUG-CC-PVTZ-JKFIT
	 Reference Energy          =   -1152.8304665483194640 [Eh]
	 Singles Energy            =      -0.0000000000000000 [Eh]
	 Same-Spin Energy          =      -0.7695185949459656 [Eh]
	 Opposite-Spin Energy      =      -2.2425490405890121 [Eh]
	 Correlation Energy        =      -3.0120676355349776 [Eh]
	 Total Energy              =   -1155.8425341838544682 [Eh]

	 ================> DF-SCS-MP2 Energies <==================
	-----------------------------------------------------------
	 SCS Same-Spin Scale       =       0.3333333333333333 [-]
	 SCS Opposite-Spin Scale   =       1.2000000000000000 [-]
	 SCS Same-Spin Energy      =      -0.2565061983153218 [Eh]
	 SCS Opposite-Spin Energy  =      -2.6910588487068146 [Eh]
	 SCS Correlation Energy    =      -2.9475650470221364 [Eh]
	 SCS Total Energy          =   -1155.7780315953416448 [Eh]
	-----------------------------------------------------------

  Dipole Moment: [D]
     X:    -5.4159      Y:    -0.0026      Z:     2.1325     Total:     5.8207

*** Psi4 exiting successfully. Buy a developer a beer!
