                               Psi4 1.4a3.dev225

  ==> Input File <==

--------------------------------------------------------------------------
#psi4
#
memory 32 gb

molecule  {
0 1
  S        1.2441830     0.0010390    -0.8590750
  F        1.5874080    -1.0933110     1.5061340
  F        3.3145200    -0.0009050     0.7339870
  F        1.5874370     1.0896860     1.5087600
  O        1.6149610    -1.2856280    -1.4517330
  O        1.6149580     1.2891350    -1.4486230
  C       -0.4817510     0.0005820    -0.4824320
  C       -1.1416100    -1.2204050    -0.3274150
  C       -1.1416150     1.2211910    -0.3244870
  C       -3.2158528    -0.0128434     0.1539118
  C        1.9826530    -0.0010090     0.8356960
  C       -2.4997500    -1.2060900    -0.0161970
  C       -2.4997550     1.2061250    -0.0133040
  C       -4.6532730    -0.0006360     0.5253300
  H       -0.6057720    -2.1536140    -0.4772800
  H       -0.6057800     2.1547590    -0.4721140
  H       -3.0298860    -2.1498930     0.0955450
  H       -3.0298940     2.1496560     0.1007020
  H       -5.1606490     0.8856040     0.1349280
  H       -5.1606620    -0.8858980     0.1327310
  H       -4.7748820    -0.0019860     1.6139510
units angstrom
no_reorient  #important for SAPT in psi4, default
symmetry c1  #important for SAPT in psi4, default
}

set PROPERTIES_ORIGIN ["COM"]
properties('MP2/aug-cc-pvtz', properties = ['dipole'])
--------------------------------------------------------------------------

    Molecular point group: c1
  Charge       = 0
  Multiplicity = 1
  Basis Set: AUG-CC-PVTZ
    Blend: AUG-CC-PVTZ
  Basis Set: (AUG-CC-PVTZ AUX)
    Blend: AUG-CC-PVTZ-JKFIT

    Orbital Energies [Eh]
    ---------------------

    Doubly Occupied:

       1A    -92.215928     2A    -26.371272     3A    -26.371251
       4A    -26.368701     5A    -20.573778     6A    -20.573742
       7A    -11.549890     8A    -11.292869     9A    -11.289395
      10A    -11.285072    11A    -11.283860    12A    -11.267019
      13A    -11.265031    14A    -11.252259    15A     -9.184627
      16A     -6.869486    17A     -6.868759    18A     -6.868471
      19A     -1.756680    20A     -1.664989    21A     -1.664144
      22A     -1.465616    23A     -1.358190    24A     -1.196405
      25A     -1.102070    26A     -1.052441    27A     -1.039810
      28A     -0.982494    29A     -0.917019    30A     -0.868354
      31A     -0.856461    32A     -0.850363    33A     -0.844715
      34A     -0.796288    35A     -0.742807    36A     -0.736443
      37A     -0.725571    38A     -0.695300    39A     -0.693095
      40A     -0.683623    41A     -0.677872    42A     -0.672368
      43A     -0.666477    44A     -0.647049    45A     -0.638035
      46A     -0.623742    47A     -0.607172    48A     -0.571042
      49A     -0.551603    50A     -0.531817    51A     -0.523392
      52A     -0.521302    53A     -0.514579    54A     -0.496922
      55A     -0.468007    56A     -0.373295    57A     -0.370347

  @DF-RHF Final Energy: -1152.82922325436289

   => Energetics <=

    Nuclear Repulsion Energy =           1102.2680616702602947
    One-Electron Energy =               -3780.3959510553440850
    Two-Electron Energy =                1525.2986661307211307
    Total Energy =                      -1152.8292232543628870
  Basis Set: (AUG-CC-PVTZ AUX)
    Blend: AUG-CC-PVTZ-RI
    Molecular point group: c1

    Geometry (in Angstrom), charge = 0, multiplicity = 1:

       Center              X                  Y                   Z               Mass
    ------------   -----------------  -----------------  -----------------  -----------------
         S            1.117515785968     0.001731629119    -0.871199025805    31.972071174400
         F            1.460740785968    -1.092618370881     1.494009974195    18.998403162730
         F            3.187852785968    -0.000212370881     0.721862974195    18.998403162730
         F            1.460769785968     1.090378629119     1.496635974195    18.998403162730
         O            1.488293785968    -1.284935370881    -1.463857025805    15.994914619570
         O            1.488290785968     1.289827629119    -1.460747025805    15.994914619570
         C           -0.608418214032     0.001274629119    -0.494556025805    12.000000000000
         C           -1.268277214032    -1.219712370881    -0.339539025805    12.000000000000
         C           -1.268282214032     1.221883629119    -0.336611025805    12.000000000000
         C           -3.342520014032    -0.012150770881     0.141787774195    12.000000000000
         C            1.855985785968    -0.000316370881     0.823571974195    12.000000000000
         C           -2.626417214032    -1.205397370881    -0.028321025805    12.000000000000
         C           -2.626422214032     1.206817629119    -0.025428025805    12.000000000000
         C           -4.779940214032     0.000056629119     0.513205974195    12.000000000000
         H           -0.732439214032    -2.152921370881    -0.489404025805     1.007825032230
         H           -0.732447214032     2.155451629119    -0.484238025805     1.007825032230
         H           -3.156553214032    -2.149200370881     0.083420974195     1.007825032230
         H           -3.156561214032     2.150348629119     0.088577974195     1.007825032230
         H           -5.287316214032     0.886296629119     0.122803974195     1.007825032230
         H           -5.287329214032    -0.885205370881     0.120606974195     1.007825032230
         H           -4.901549214032    -0.001293370881     1.601826974195     1.007825032230

  Basis Set: AUG-CC-PVTZ
    Blend: AUG-CC-PVTZ
  Basis Set: (AUG-CC-PVTZ AUX)
    Blend: AUG-CC-PVTZ-JKFIT
	 Reference Energy          =   -1152.8292232543628870 [Eh]
	 Singles Energy            =      -0.0000000000000000 [Eh]
	 Same-Spin Energy          =      -0.7699086992807130 [Eh]
	 Opposite-Spin Energy      =      -2.2430287069151857 [Eh]
	 Correlation Energy        =      -3.0129374061958987 [Eh]
	 Total Energy              =   -1155.8421606605588750 [Eh]

	 ================> DF-SCS-MP2 Energies <==================
	-----------------------------------------------------------
	 SCS Same-Spin Scale       =       0.3333333333333333 [-]
	 SCS Opposite-Spin Scale   =       1.2000000000000000 [-]
	 SCS Same-Spin Energy      =      -0.2566362330935710 [Eh]
	 SCS Opposite-Spin Energy  =      -2.6916344482982226 [Eh]
	 SCS Correlation Energy    =      -2.9482706813917936 [Eh]
	 SCS Total Energy          =   -1155.7774939357545918 [Eh]
	-----------------------------------------------------------

  Dipole Moment: [D]
     X:    -5.4660      Y:     0.0016      Z:     2.1480     Total:     5.8729

*** Psi4 exiting successfully. Buy a developer a beer!
