                               Psi4 1.4a3.dev225

  ==> Input File <==

--------------------------------------------------------------------------
#psi4
#
memory 32 gb

molecule  {
0 1
  S        1.2441830     0.0010390    -0.8590750
  F        1.5874080    -1.0933110     1.5061340
  F        3.3145200    -0.0009050     0.7339870
  F        1.5874370     1.0896860     1.5087600
  O        1.6149610    -1.2856280    -1.4517330
  O        1.6149580     1.2891350    -1.4486230
  C       -0.4880615     0.0006185    -0.5126110
  C       -1.1416100    -1.2204050    -0.3274150
  C       -1.1416150     1.2211910    -0.3244870
  C       -3.1954030    -0.0001810     0.1494170
  C        1.9826530    -0.0010090     0.8356960
  C       -2.4997500    -1.2060900    -0.0161970
  C       -2.4997550     1.2061250    -0.0133040
  C       -4.6532730    -0.0006360     0.5253300
  H       -0.6057720    -2.1536140    -0.4772800
  H       -0.6057800     2.1547590    -0.4721140
  H       -3.0298860    -2.1498930     0.0955450
  H       -3.0298940     2.1496560     0.1007020
  H       -5.1606490     0.8856040     0.1349280
  H       -5.1606620    -0.8858980     0.1327310
  H       -4.7748820    -0.0019860     1.6139510
units angstrom
no_reorient  #important for SAPT in psi4, default
symmetry c1  #important for SAPT in psi4, default
}

set PROPERTIES_ORIGIN ["COM"]
properties('MP2/aug-cc-pvtz', properties = ['dipole'])
--------------------------------------------------------------------------

    Molecular point group: c1
  Charge       = 0
  Multiplicity = 1
  Basis Set: AUG-CC-PVTZ
    Blend: AUG-CC-PVTZ
  Basis Set: (AUG-CC-PVTZ AUX)
    Blend: AUG-CC-PVTZ-JKFIT

    Orbital Energies [Eh]
    ---------------------

    Doubly Occupied:

       1A    -92.215831     2A    -26.371860     3A    -26.371839
       4A    -26.369550     5A    -20.573127     6A    -20.573108
       7A    -11.551027     8A    -11.293095     9A    -11.287710
      10A    -11.284717    11A    -11.284616    12A    -11.265182
      13A    -11.265144    14A    -11.252518    15A     -9.184537
      16A     -6.869370    17A     -6.868697    18A     -6.868370
      19A     -1.757320    20A     -1.665558    21A     -1.664830
      22A     -1.465328    23A     -1.357798    24A     -1.197883
      25A     -1.100444    26A     -1.053581    27A     -1.039161
      28A     -0.981052    29A     -0.917255    30A     -0.869616
      31A     -0.857278    32A     -0.850991    33A     -0.845668
      34A     -0.796816    35A     -0.743070    36A     -0.737002
      37A     -0.725814    38A     -0.695798    39A     -0.693669
      40A     -0.683826    41A     -0.678485    42A     -0.671670
      43A     -0.666065    44A     -0.646709    45A     -0.638629
      46A     -0.625080    47A     -0.605021    48A     -0.570007
      49A     -0.545526    50A     -0.532635    51A     -0.526332
      52A     -0.522194    53A     -0.513912    54A     -0.496408
      55A     -0.467878    56A     -0.374040    57A     -0.372339

  @DF-RHF Final Energy: -1152.83026049244336

   => Energetics <=

    Nuclear Repulsion Energy =           1102.3915435639014504
    One-Electron Energy =               -3780.6376280161771319
    Two-Electron Energy =                1525.4158239598323235
    Total Energy =                      -1152.8302604924433581
  Basis Set: (AUG-CC-PVTZ AUX)
    Blend: AUG-CC-PVTZ-RI
    Molecular point group: c1

    Geometry (in Angstrom), charge = 0, multiplicity = 1:

       Center              X                  Y                   Z               Mass
    ------------   -----------------  -----------------  -----------------  -----------------
         S            1.116758363656     0.001051366999    -0.869341599358    31.972071174400
         F            1.459983363656    -1.093298633001     1.495867400642    18.998403162730
         F            3.187095363656    -0.000892633001     0.723720400642    18.998403162730
         F            1.460012363656     1.089698366999     1.498493400642    18.998403162730
         O            1.487536363656    -1.285615633001    -1.461999599358    15.994914619570
         O            1.487533363656     1.289147366999    -1.458889599358    15.994914619570
         C           -0.615486136344     0.000630866999    -0.522877599358    12.000000000000
         C           -1.269034636344    -1.220392633001    -0.337681599358    12.000000000000
         C           -1.269039636344     1.221203366999    -0.334753599358    12.000000000000
         C           -3.322827636344    -0.000168633001     0.139150400642    12.000000000000
         C            1.855228363656    -0.000996633001     0.825429400642    12.000000000000
         C           -2.627174636344    -1.206077633001    -0.026463599358    12.000000000000
         C           -2.627179636344     1.206137366999    -0.023570599358    12.000000000000
         C           -4.780697636344    -0.000623633001     0.515063400642    12.000000000000
         H           -0.733196636344    -2.153601633001    -0.487546599358     1.007825032230
         H           -0.733204636344     2.154771366999    -0.482380599358     1.007825032230
         H           -3.157310636344    -2.149880633001     0.085278400642     1.007825032230
         H           -3.157318636344     2.149668366999     0.090435400642     1.007825032230
         H           -5.288073636344     0.885616366999     0.124661400642     1.007825032230
         H           -5.288086636344    -0.885885633001     0.122464400642     1.007825032230
         H           -4.902306636344    -0.001973633001     1.603684400642     1.007825032230

  Basis Set: AUG-CC-PVTZ
    Blend: AUG-CC-PVTZ
  Basis Set: (AUG-CC-PVTZ AUX)
    Blend: AUG-CC-PVTZ-JKFIT
	 Reference Energy          =   -1152.8302604924433581 [Eh]
	 Singles Energy            =      -0.0000000000000000 [Eh]
	 Same-Spin Energy          =      -0.7696342704883472 [Eh]
	 Opposite-Spin Energy      =      -2.2426130124167010 [Eh]
	 Correlation Energy        =      -3.0122472829050482 [Eh]
	 Total Energy              =   -1155.8425077753483947 [Eh]

	 ================> DF-SCS-MP2 Energies <==================
	-----------------------------------------------------------
	 SCS Same-Spin Scale       =       0.3333333333333333 [-]
	 SCS Opposite-Spin Scale   =       1.2000000000000000 [-]
	 SCS Same-Spin Energy      =      -0.2565447568294490 [Eh]
	 SCS Opposite-Spin Energy  =      -2.6911356149000412 [Eh]
	 SCS Correlation Energy    =      -2.9476803717294904 [Eh]
	 SCS Total Energy          =   -1155.7779408641729333 [Eh]
	-----------------------------------------------------------

  Dipole Moment: [D]
     X:    -5.4312      Y:    -0.0026      Z:     2.1650     Total:     5.8468

*** Psi4 exiting successfully. Buy a developer a beer!
