                               Psi4 1.4a3.dev225

  ==> Input File <==

--------------------------------------------------------------------------
#psi4
#
memory 32 gb

molecule  {
0 1
  S        1.2441830     0.0010390    -0.8590750
  F        1.5874080    -1.0933110     1.5061340
  F        3.3145200    -0.0009050     0.7339870
  F        1.5874370     1.0896860     1.5087600
  O        1.6844360    -1.2055053    -1.5623957
  O        1.6149580     1.2891350    -1.4486230
  C       -0.4817510     0.0005820    -0.4824320
  C       -1.1416100    -1.2204050    -0.3274150
  C       -1.1416150     1.2211910    -0.3244870
  C       -3.1954030    -0.0001810     0.1494170
  C        1.9826530    -0.0010090     0.8356960
  C       -2.4997500    -1.2060900    -0.0161970
  C       -2.4997550     1.2061250    -0.0133040
  C       -4.6532730    -0.0006360     0.5253300
  H       -0.6057720    -2.1536140    -0.4772800
  H       -0.6057800     2.1547590    -0.4721140
  H       -3.0298860    -2.1498930     0.0955450
  H       -3.0298940     2.1496560     0.1007020
  H       -5.1606490     0.8856040     0.1349280
  H       -5.1606620    -0.8858980     0.1327310
  H       -4.7748820    -0.0019860     1.6139510
units angstrom
no_reorient  #important for SAPT in psi4, default
symmetry c1  #important for SAPT in psi4, default
}

set PROPERTIES_ORIGIN ["COM"]
properties('MP2/aug-cc-pvtz', properties = ['dipole'])
--------------------------------------------------------------------------

    Molecular point group: c1
  Charge       = 0
  Multiplicity = 1
  Basis Set: AUG-CC-PVTZ
    Blend: AUG-CC-PVTZ
  Basis Set: (AUG-CC-PVTZ AUX)
    Blend: AUG-CC-PVTZ-JKFIT

    Orbital Energies [Eh]
    ---------------------

    Doubly Occupied:

       1A    -92.214166     2A    -26.373956     3A    -26.373757
       4A    -26.370082     5A    -20.572392     6A    -20.564430
       7A    -11.553020     8A    -11.296301     9A    -11.289303
      10A    -11.287365    11A    -11.286715    12A    -11.267121
      13A    -11.266946    14A    -11.253656    15A     -9.183173
      16A     -6.868011    17A     -6.867194    18A     -6.867045
      19A     -1.758814    20A     -1.667551    21A     -1.665746
      22A     -1.463554    23A     -1.348953    24A     -1.200393
      25A     -1.103638    26A     -1.055706    27A     -1.041742
      28A     -0.982652    29A     -0.919091    30A     -0.871848
      31A     -0.858267    32A     -0.852596    33A     -0.846618
      34A     -0.797548    35A     -0.743095    36A     -0.738504
      37A     -0.725816    38A     -0.697339    39A     -0.694799
      40A     -0.684959    41A     -0.679796    42A     -0.672941
      43A     -0.666957    44A     -0.641605    45A     -0.639767
      46A     -0.627101    47A     -0.606293    48A     -0.571169
      49A     -0.547573    50A     -0.534829    51A     -0.527954
      52A     -0.514983    53A     -0.514134    54A     -0.488468
      55A     -0.469708    56A     -0.375956    57A     -0.374258

  @DF-RHF Final Energy: -1152.82901055733942

   => Energetics <=

    Nuclear Repulsion Energy =           1101.2250827361258416
    One-Electron Energy =               -3778.2534733009506454
    Two-Electron Energy =                1524.1993800074853880
    Total Energy =                      -1152.8290105573394158
  Basis Set: (AUG-CC-PVTZ AUX)
    Blend: AUG-CC-PVTZ-RI
    Molecular point group: c1

    Geometry (in Angstrom), charge = 0, multiplicity = 1:

       Center              X                  Y                   Z               Mass
    ------------   -----------------  -----------------  -----------------  -----------------
         S            1.111459659560    -0.004667605210    -0.863056698727    31.972071174400
         F            1.454684659560    -1.099017605210     1.502152301273    18.998403162730
         F            3.181796659560    -0.006611605210     0.730005301273    18.998403162730
         F            1.454713659560     1.083979394790     1.504778301273    18.998403162730
         O            1.551712659560    -1.211211905210    -1.566377398727    15.994914619570
         O            1.482234659560     1.283428394790    -1.452604698727    15.994914619570
         C           -0.614474340440    -0.005124605210    -0.486413698727    12.000000000000
         C           -1.274333340440    -1.226111605210    -0.331396698727    12.000000000000
         C           -1.274338340440     1.215484394790    -0.328468698727    12.000000000000
         C           -3.328126340440    -0.005887605210     0.145435301273    12.000000000000
         C            1.849929659560    -0.006715605210     0.831714301273    12.000000000000
         C           -2.632473340440    -1.211796605210    -0.020178698727    12.000000000000
         C           -2.632478340440     1.200418394790    -0.017285698727    12.000000000000
         C           -4.785996340440    -0.006342605210     0.521348301273    12.000000000000
         H           -0.738495340440    -2.159320605210    -0.481261698727     1.007825032230
         H           -0.738503340440     2.149052394790    -0.476095698727     1.007825032230
         H           -3.162609340440    -2.155599605210     0.091563301273     1.007825032230
         H           -3.162617340440     2.143949394790     0.096720301273     1.007825032230
         H           -5.293372340440     0.879897394790     0.130946301273     1.007825032230
         H           -5.293385340440    -0.891604605210     0.128749301273     1.007825032230
         H           -4.907605340440    -0.007692605210     1.609969301273     1.007825032230

  Basis Set: AUG-CC-PVTZ
    Blend: AUG-CC-PVTZ
  Basis Set: (AUG-CC-PVTZ AUX)
    Blend: AUG-CC-PVTZ-JKFIT
	 Reference Energy          =   -1152.8290105573394158 [Eh]
	 Singles Energy            =      -0.0000000000000000 [Eh]
	 Same-Spin Energy          =      -0.7693702815983584 [Eh]
	 Opposite-Spin Energy      =      -2.2422299032641790 [Eh]
	 Correlation Energy        =      -3.0116001848625373 [Eh]
	 Total Energy              =   -1155.8406107422019886 [Eh]

	 ================> DF-SCS-MP2 Energies <==================
	-----------------------------------------------------------
	 SCS Same-Spin Scale       =       0.3333333333333333 [-]
	 SCS Opposite-Spin Scale   =       1.2000000000000000 [-]
	 SCS Same-Spin Energy      =      -0.2564567605327861 [Eh]
	 SCS Opposite-Spin Energy  =      -2.6906758839170148 [Eh]
	 SCS Correlation Energy    =      -2.9471326444498009 [Eh]
	 SCS Total Energy          =   -1155.7761432017891821 [Eh]
	-----------------------------------------------------------

  Dipole Moment: [D]
     X:    -5.6459      Y:    -0.1652      Z:     2.4054     Total:     6.1392

*** Psi4 exiting successfully. Buy a developer a beer!
