                               Psi4 1.4a3.dev225

  ==> Input File <==

--------------------------------------------------------------------------
#psi4
#
memory 32 gb

molecule  {
0 1
  S        1.2441830     0.0010390    -0.8590750
  F        1.5874080    -1.0933110     1.5061340
  F        3.3145200    -0.0009050     0.7339870
  F        1.5874370     1.0896860     1.5087600
  O        1.6149610    -1.2856280    -1.4517330
  O        1.6149580     1.2891350    -1.4486230
  C       -0.4817510     0.0005820    -0.4824320
  C       -1.1416100    -1.2204050    -0.3274150
  C       -1.1416150     1.2211910    -0.3244870
  C       -3.1954030    -0.0001810     0.1494170
  C        1.9826530    -0.0010090     0.8356960
  C       -2.4898262    -1.2232928    -0.0185596
  C       -2.4997550     1.2061250    -0.0133040
  C       -4.6532730    -0.0006360     0.5253300
  H       -0.6057720    -2.1536140    -0.4772800
  H       -0.6057800     2.1547590    -0.4721140
  H       -3.0298860    -2.1498930     0.0955450
  H       -3.0298940     2.1496560     0.1007020
  H       -5.1606490     0.8856040     0.1349280
  H       -5.1606620    -0.8858980     0.1327310
  H       -4.7748820    -0.0019860     1.6139510
units angstrom
no_reorient  #important for SAPT in psi4, default
symmetry c1  #important for SAPT in psi4, default
}

set PROPERTIES_ORIGIN ["COM"]
properties('MP2/aug-cc-pvtz', properties = ['dipole'])
--------------------------------------------------------------------------

    Molecular point group: c1
  Charge       = 0
  Multiplicity = 1
  Basis Set: AUG-CC-PVTZ
    Blend: AUG-CC-PVTZ
  Basis Set: (AUG-CC-PVTZ AUX)
    Blend: AUG-CC-PVTZ-JKFIT

    Orbital Energies [Eh]
    ---------------------

    Doubly Occupied:

       1A    -92.215939     2A    -26.371241     3A    -26.371218
       4A    -26.368640     5A    -20.573715     6A    -20.573644
       7A    -11.549820     8A    -11.292588     9A    -11.290173
      10A    -11.285407    11A    -11.282828    12A    -11.265184
      13A    -11.264861    14A    -11.252887    15A     -9.184605
      16A     -6.869466    17A     -6.868741    18A     -6.868453
      19A     -1.756638    20A     -1.664958    21A     -1.664096
      22A     -1.465530    23A     -1.358107    24A     -1.197091
      25A     -1.099254    26A     -1.055046    27A     -1.038887
      28A     -0.981051    29A     -0.916582    30A     -0.868900
      31A     -0.856415    32A     -0.850327    33A     -0.844761
      34A     -0.797346    35A     -0.742904    36A     -0.736411
      37A     -0.725702    38A     -0.695268    39A     -0.693028
      40A     -0.683613    41A     -0.677835    42A     -0.671295
      43A     -0.666264    44A     -0.646810    45A     -0.639197
      46A     -0.626324    47A     -0.604848    48A     -0.571183
      49A     -0.546022    50A     -0.532637    51A     -0.524391
      52A     -0.522470    53A     -0.514684    54A     -0.496833
      55A     -0.468131    56A     -0.374089    57A     -0.371485

  @DF-RHF Final Energy: -1152.83013918362076

   => Energetics <=

    Nuclear Repulsion Energy =           1102.4342657467764184
    One-Electron Energy =               -3780.7371583260564876
    Two-Electron Energy =                1525.4727533956593106
    Total Energy =                      -1152.8301391836207586
  Basis Set: (AUG-CC-PVTZ AUX)
    Blend: AUG-CC-PVTZ-RI
    Molecular point group: c1

    Geometry (in Angstrom), charge = 0, multiplicity = 1:

       Center              X                  Y                   Z               Mass
    ------------   -----------------  -----------------  -----------------  -----------------
         S            1.115888715155     0.001974851929    -0.870831684581    31.972071174400
         F            1.459113715155    -1.092375148071     1.494377315419    18.998403162730
         F            3.186225715155     0.000030851929     0.722230315419    18.998403162730
         F            1.459142715155     1.090621851929     1.497003315419    18.998403162730
         O            1.486666715155    -1.284692148071    -1.463489684581    15.994914619570
         O            1.486663715155     1.290070851929    -1.460379684581    15.994914619570
         C           -0.610045284845     0.001517851929    -0.494188684581    12.000000000000
         C           -1.269904284845    -1.219469148071    -0.339171684581    12.000000000000
         C           -1.269909284845     1.222126851929    -0.336243684581    12.000000000000
         C           -3.323697284845     0.000754851929     0.137660315419    12.000000000000
         C            1.854358715155    -0.000073148071     0.823939315419    12.000000000000
         C           -2.618120484845    -1.222356948071    -0.030316284581    12.000000000000
         C           -2.628049284845     1.207060851929    -0.025060684581    12.000000000000
         C           -4.781567284845     0.000299851929     0.513573315419    12.000000000000
         H           -0.734066284845    -2.152678148071    -0.489036684581     1.007825032230
         H           -0.734074284845     2.155694851929    -0.483870684581     1.007825032230
         H           -3.158180284845    -2.148957148071     0.083788315419     1.007825032230
         H           -3.158188284845     2.150591851929     0.088945315419     1.007825032230
         H           -5.288943284845     0.886539851929     0.123171315419     1.007825032230
         H           -5.288956284845    -0.884962148071     0.120974315419     1.007825032230
         H           -4.903176284845    -0.001050148071     1.602194315419     1.007825032230

  Basis Set: AUG-CC-PVTZ
    Blend: AUG-CC-PVTZ
  Basis Set: (AUG-CC-PVTZ AUX)
    Blend: AUG-CC-PVTZ-JKFIT
	 Reference Energy          =   -1152.8301391836207586 [Eh]
	 Singles Energy            =      -0.0000000000000000 [Eh]
	 Same-Spin Energy          =      -0.7695975384622784 [Eh]
	 Opposite-Spin Energy      =      -2.2426331862680624 [Eh]
	 Correlation Energy        =      -3.0122307247303408 [Eh]
	 Total Energy              =   -1155.8423699083512020 [Eh]

	 ================> DF-SCS-MP2 Energies <==================
	-----------------------------------------------------------
	 SCS Same-Spin Scale       =       0.3333333333333333 [-]
	 SCS Opposite-Spin Scale   =       1.2000000000000000 [-]
	 SCS Same-Spin Energy      =      -0.2565325128207595 [Eh]
	 SCS Opposite-Spin Energy  =      -2.6911598235216747 [Eh]
	 SCS Correlation Energy    =      -2.9476923363424343 [Eh]
	 SCS Total Energy          =   -1155.7778315199632289 [Eh]
	-----------------------------------------------------------

  Dipole Moment: [D]
     X:    -5.4384      Y:    -0.0035      Z:     2.1390     Total:     5.8439

*** Psi4 exiting successfully. Buy a developer a beer!
