                               Psi4 1.4a3.dev225

  ==> Input File <==

--------------------------------------------------------------------------
#psi4
#
memory 32 gb

molecule  {
0 1
  S        1.2441830     0.0010390    -0.8590750
  F        1.5874080    -1.0933110     1.5061340
  F        3.3145200    -0.0009050     0.7339870
  F        1.5874370     1.0896860     1.5087600
  O        1.6149610    -1.2856280    -1.4517330
  O        1.6149580     1.2891350    -1.4486230
  C       -0.4817510     0.0005820    -0.4824320
  C       -1.1416100    -1.2204050    -0.3274150
  C       -1.1416150     1.2211910    -0.3244870
  C       -3.1954030    -0.0001810     0.1494170
  C        1.9826530    -0.0010090     0.8356960
  C       -2.4997500    -1.2060900    -0.0161970
  C       -2.4997550     1.2061250    -0.0133040
  C       -4.8469385    -0.0006964     0.5752668
  H       -0.6057720    -2.1536140    -0.4772800
  H       -0.6057800     2.1547590    -0.4721140
  H       -3.0298860    -2.1498930     0.0955450
  H       -3.0298940     2.1496560     0.1007020
  H       -5.1606490     0.8856040     0.1349280
  H       -5.1606620    -0.8858980     0.1327310
  H       -4.7748820    -0.0019860     1.6139510
units angstrom
no_reorient  #important for SAPT in psi4, default
symmetry c1  #important for SAPT in psi4, default
}

set PROPERTIES_ORIGIN ["COM"]
properties('MP2/aug-cc-pvtz', properties = ['dipole'])
--------------------------------------------------------------------------

    Molecular point group: c1
  Charge       = 0
  Multiplicity = 1
  Basis Set: AUG-CC-PVTZ
    Blend: AUG-CC-PVTZ
  Basis Set: (AUG-CC-PVTZ AUX)
    Blend: AUG-CC-PVTZ-JKFIT

    Orbital Energies [Eh]
    ---------------------

    Doubly Occupied:

       1A    -92.215707     2A    -26.371087     3A    -26.371066
       4A    -26.368542     5A    -20.573557     6A    -20.573538
       7A    -11.549700     8A    -11.292451     9A    -11.291894
      10A    -11.283921    11A    -11.283821    12A    -11.264833
      13A    -11.264799    14A    -11.253699    15A     -9.184412
      16A     -6.869272    17A     -6.868542    18A     -6.868254
      19A     -1.756503    20A     -1.664804    21A     -1.663978
      22A     -1.465401    23A     -1.357974    24A     -1.193956
      25A     -1.087896    26A     -1.052372    27A     -1.034764
      28A     -0.982409    29A     -0.920726    30A     -0.866583
      31A     -0.857798    32A     -0.850184    33A     -0.845345
      34A     -0.795888    35A     -0.742382    36A     -0.736214
      37A     -0.724273    38A     -0.694931    39A     -0.692563
      40A     -0.681191    41A     -0.677654    42A     -0.667560
      43A     -0.661151    44A     -0.647146    45A     -0.631773
      46A     -0.626480    47A     -0.625363    48A     -0.603209
      49A     -0.538084    50A     -0.529008    51A     -0.522303
      52A     -0.517480    53A     -0.496827    54A     -0.490874
      55A     -0.464040    56A     -0.376780    57A     -0.371258

  @DF-RHF Final Energy: -1152.80349851724304

   => Energetics <=

    Nuclear Repulsion Energy =           1098.8583243677619521
    One-Electron Energy =               -3773.5952029094714817
    Two-Electron Energy =                1521.9333800244662598
    Total Energy =                      -1152.8034985172430424
  Basis Set: (AUG-CC-PVTZ AUX)
    Blend: AUG-CC-PVTZ-RI
    Molecular point group: c1

    Geometry (in Angstrom), charge = 0, multiplicity = 1:

       Center              X                  Y                   Z               Mass
    ------------   -----------------  -----------------  -----------------  -----------------
         S            1.126794706141     0.001056557795    -0.873633289504    31.972071174400
         F            1.470019706141    -1.093293442205     1.491575710496    18.998403162730
         F            3.197131706141    -0.000887442205     0.719428710496    18.998403162730
         F            1.470048706141     1.089703557795     1.494201710496    18.998403162730
         O            1.497572706141    -1.285610442205    -1.466291289504    15.994914619570
         O            1.497569706141     1.289152557795    -1.463181289504    15.994914619570
         C           -0.599139293859     0.000599557795    -0.496990289504    12.000000000000
         C           -1.258998293859    -1.220387442205    -0.341973289504    12.000000000000
         C           -1.259003293859     1.221208557795    -0.339045289504    12.000000000000
         C           -3.312791293859    -0.000163442205     0.134858710496    12.000000000000
         C            1.865264706141    -0.000991442205     0.821137710496    12.000000000000
         C           -2.617138293859    -1.206072442205    -0.030755289504    12.000000000000
         C           -2.617143293859     1.206142557795    -0.027862289504    12.000000000000
         C           -4.964326793859    -0.000678842205     0.560708510496    12.000000000000
         H           -0.723160293859    -2.153596442205    -0.491838289504     1.007825032230
         H           -0.723168293859     2.154776557795    -0.486672289504     1.007825032230
         H           -3.147274293859    -2.149875442205     0.080986710496     1.007825032230
         H           -3.147282293859     2.149673557795     0.086143710496     1.007825032230
         H           -5.278037293859     0.885621557795     0.120369710496     1.007825032230
         H           -5.278050293859    -0.885880442205     0.118172710496     1.007825032230
         H           -4.892270293859    -0.001968442205     1.599392710496     1.007825032230

  Basis Set: AUG-CC-PVTZ
    Blend: AUG-CC-PVTZ
  Basis Set: (AUG-CC-PVTZ AUX)
    Blend: AUG-CC-PVTZ-JKFIT
	 Reference Energy          =   -1152.8034985172430424 [Eh]
	 Singles Energy            =      -0.0000000000000000 [Eh]
	 Same-Spin Energy          =      -0.7693509972106500 [Eh]
	 Opposite-Spin Energy      =      -2.2436163409874119 [Eh]
	 Correlation Energy        =      -3.0129673381980622 [Eh]
	 Total Energy              =   -1155.8164658554410380 [Eh]

	 ================> DF-SCS-MP2 Energies <==================
	-----------------------------------------------------------
	 SCS Same-Spin Scale       =       0.3333333333333333 [-]
	 SCS Opposite-Spin Scale   =       1.2000000000000000 [-]
	 SCS Same-Spin Energy      =      -0.2564503324035500 [Eh]
	 SCS Opposite-Spin Energy  =      -2.6923396091848941 [Eh]
	 SCS Correlation Energy    =      -2.9487899415884442 [Eh]
	 SCS Total Energy          =   -1155.7522884588315719 [Eh]
	-----------------------------------------------------------

  Dipole Moment: [D]
     X:    -5.3450      Y:    -0.0025      Z:     2.1087     Total:     5.7459

*** Psi4 exiting successfully. Buy a developer a beer!
