                               Psi4 1.4a3.dev225

  ==> Input File <==

--------------------------------------------------------------------------
#psi4
#
memory 32 gb

molecule  {
0 1
  S        1.2441830     0.0010390    -0.8590750
  F        1.5874080    -1.0933110     1.5061340
  F        3.3145200    -0.0009050     0.7339870
  F        1.5874370     1.0896860     1.5087600
  O        1.6149610    -1.2856280    -1.4517330
  O        1.6149580     1.2891350    -1.4486230
  C       -0.5038200     0.0007286    -0.6037445
  C       -1.1416100    -1.2204050    -0.3274150
  C       -1.1416150     1.2211910    -0.3244870
  C       -3.1954030    -0.0001810     0.1494170
  C        1.9826530    -0.0010090     0.8356960
  C       -2.4997500    -1.2060900    -0.0161970
  C       -2.4997550     1.2061250    -0.0133040
  C       -4.6532730    -0.0006360     0.5253300
  H       -0.6057720    -2.1536140    -0.4772800
  H       -0.6057800     2.1547590    -0.4721140
  H       -3.0298860    -2.1498930     0.0955450
  H       -3.0298940     2.1496560     0.1007020
  H       -5.1606490     0.8856040     0.1349280
  H       -5.1606620    -0.8858980     0.1327310
  H       -4.7748820    -0.0019860     1.6139510
units angstrom
no_reorient  #important for SAPT in psi4, default
symmetry c1  #important for SAPT in psi4, default
}

set PROPERTIES_ORIGIN ["COM"]
properties('MP2/aug-cc-pvtz', properties = ['dipole'])
--------------------------------------------------------------------------

    Molecular point group: c1
  Charge       = 0
  Multiplicity = 1
  Basis Set: AUG-CC-PVTZ
    Blend: AUG-CC-PVTZ
  Basis Set: (AUG-CC-PVTZ AUX)
    Blend: AUG-CC-PVTZ-JKFIT

    Orbital Energies [Eh]
    ---------------------

    Doubly Occupied:

       1A    -92.214741     2A    -26.372993     3A    -26.372972
       4A    -26.371415     5A    -20.570477     6A    -20.570458
       7A    -11.553652     8A    -11.294044     9A    -11.289016
      10A    -11.286066    11A    -11.285967    12A    -11.265406
      13A    -11.265369    14A    -11.253172    15A     -9.183463
      16A     -6.868227    17A     -6.867694    18A     -6.867264
      19A     -1.758606    20A     -1.666648    21A     -1.666248
      22A     -1.463744    23A     -1.355925    24A     -1.196858
      25A     -1.099428    26A     -1.053222    27A     -1.039374
      28A     -0.981671    29A     -0.917243    30A     -0.868464
      31A     -0.858521    32A     -0.852242    33A     -0.847448
      34A     -0.796255    35A     -0.743120    36A     -0.738071
      37A     -0.725687    38A     -0.696708    39A     -0.694897
      40A     -0.683075    41A     -0.679689    42A     -0.672970
      43A     -0.664768    44A     -0.645373    45A     -0.638390
      46A     -0.624314    47A     -0.605422    48A     -0.570170
      49A     -0.545445    50A     -0.531937    51A     -0.526210
      52A     -0.520267    53A     -0.511426    54A     -0.494147
      55A     -0.466914    56A     -0.374270    57A     -0.372172

  @DF-RHF Final Energy: -1152.82596826696272

   => Energetics <=

    Nuclear Repulsion Energy =           1101.6594497434789446
    One-Electron Energy =               -3779.1713709934706458
    Two-Electron Energy =                1524.6859529830289830
    Total Energy =                      -1152.8259682669627182
  Basis Set: (AUG-CC-PVTZ AUX)
    Blend: AUG-CC-PVTZ-RI
    Molecular point group: c1

    Geometry (in Angstrom), charge = 0, multiplicity = 1:

       Center              X                  Y                   Z               Mass
    ------------   -----------------  -----------------  -----------------  -----------------
         S            1.117602524223     0.001045469098    -0.864459706598    31.972071174400
         F            1.460827524223    -1.093304530902     1.500749293402    18.998403162730
         F            3.187939524223    -0.000898530902     0.728602293402    18.998403162730
         F            1.460856524223     1.089692469098     1.503375293402    18.998403162730
         O            1.488380524223    -1.285621530902    -1.457117706598    15.994914619570
         O            1.488377524223     1.289141469098    -1.454007706598    15.994914619570
         C           -0.630400475777     0.000735069098    -0.609129206598    12.000000000000
         C           -1.268190475777    -1.220398530902    -0.332799706598    12.000000000000
         C           -1.268195475777     1.221197469098    -0.329871706598    12.000000000000
         C           -3.321983475777    -0.000174530902     0.144032293402    12.000000000000
         C            1.856072524223    -0.001002530902     0.830311293402    12.000000000000
         C           -2.626330475777    -1.206083530902    -0.021581706598    12.000000000000
         C           -2.626335475777     1.206131469098    -0.018688706598    12.000000000000
         C           -4.779853475777    -0.000629530902     0.519945293402    12.000000000000
         H           -0.732352475777    -2.153607530902    -0.482664706598     1.007825032230
         H           -0.732360475777     2.154765469098    -0.477498706598     1.007825032230
         H           -3.156466475777    -2.149886530902     0.090160293402     1.007825032230
         H           -3.156474475777     2.149662469098     0.095317293402     1.007825032230
         H           -5.287229475777     0.885610469098     0.129543293402     1.007825032230
         H           -5.287242475777    -0.885891530902     0.127346293402     1.007825032230
         H           -4.901462475777    -0.001979530902     1.608566293402     1.007825032230

  Basis Set: AUG-CC-PVTZ
    Blend: AUG-CC-PVTZ
  Basis Set: (AUG-CC-PVTZ AUX)
    Blend: AUG-CC-PVTZ-JKFIT
	 Reference Energy          =   -1152.8259682669627182 [Eh]
	 Singles Energy            =      -0.0000000000000000 [Eh]
	 Same-Spin Energy          =      -0.7696186370083179 [Eh]
	 Opposite-Spin Energy      =      -2.2428955074730248 [Eh]
	 Correlation Energy        =      -3.0125141444813428 [Eh]
	 Total Energy              =   -1155.8384824114441471 [Eh]

	 ================> DF-SCS-MP2 Energies <==================
	-----------------------------------------------------------
	 SCS Same-Spin Scale       =       0.3333333333333333 [-]
	 SCS Opposite-Spin Scale   =       1.2000000000000000 [-]
	 SCS Same-Spin Energy      =      -0.2565395456694393 [Eh]
	 SCS Opposite-Spin Energy  =      -2.6914746089676296 [Eh]
	 SCS Correlation Energy    =      -2.9480141546370691 [Eh]
	 SCS Total Energy          =   -1155.7739824215998397 [Eh]
	-----------------------------------------------------------

  Dipole Moment: [D]
     X:    -5.4877      Y:    -0.0027      Z:     2.2588     Total:     5.9344

*** Psi4 exiting successfully. Buy a developer a beer!
