                               Psi4 1.4a3.dev225

  ==> Input File <==

--------------------------------------------------------------------------
#psi4
#
memory 32 gb

molecule  {
0 1
  S        1.3051283     0.1127225    -0.8805838
  F        1.5874080    -1.0933110     1.5061340
  F        3.3145200    -0.0009050     0.7339870
  F        1.5874370     1.0896860     1.5087600
  O        1.6149610    -1.2856280    -1.4517330
  O        1.6149580     1.2891350    -1.4486230
  C       -0.4817510     0.0005820    -0.4824320
  C       -1.1416100    -1.2204050    -0.3274150
  C       -1.1416150     1.2211910    -0.3244870
  C       -3.1954030    -0.0001810     0.1494170
  C        1.9826530    -0.0010090     0.8356960
  C       -2.4997500    -1.2060900    -0.0161970
  C       -2.4997550     1.2061250    -0.0133040
  C       -4.6532730    -0.0006360     0.5253300
  H       -0.6057720    -2.1536140    -0.4772800
  H       -0.6057800     2.1547590    -0.4721140
  H       -3.0298860    -2.1498930     0.0955450
  H       -3.0298940     2.1496560     0.1007020
  H       -5.1606490     0.8856040     0.1349280
  H       -5.1606620    -0.8858980     0.1327310
  H       -4.7748820    -0.0019860     1.6139510
units angstrom
no_reorient  #important for SAPT in psi4, default
symmetry c1  #important for SAPT in psi4, default
}

set PROPERTIES_ORIGIN ["COM"]
properties('MP2/aug-cc-pvtz', properties = ['dipole'])
--------------------------------------------------------------------------

    Molecular point group: c1
  Charge       = 0
  Multiplicity = 1
  Basis Set: AUG-CC-PVTZ
    Blend: AUG-CC-PVTZ
  Basis Set: (AUG-CC-PVTZ AUX)
    Blend: AUG-CC-PVTZ-JKFIT

    Orbital Energies [Eh]
    ---------------------

    Doubly Occupied:

       1A    -92.212562     2A    -26.373352     3A    -26.372695
       4A    -26.369564     5A    -20.601865     6A    -20.558953
       7A    -11.551186     8A    -11.290314     9A    -11.280674
      10A    -11.277854    11A    -11.277283    12A    -11.260662
      13A    -11.260599    14A    -11.248291    15A     -9.183936
      16A     -6.869049    17A     -6.868182    18A     -6.867139
      19A     -1.758321    20A     -1.666911    21A     -1.665412
      22A     -1.529724    23A     -1.340662    24A     -1.190406
      25A     -1.090128    26A     -1.047957    27A     -1.038808
      28A     -0.972660    29A     -0.916197    30A     -0.863909
      31A     -0.856566    32A     -0.851786    33A     -0.840305
      34A     -0.796356    35A     -0.749644    36A     -0.737369
      37A     -0.729339    38A     -0.697627    39A     -0.694923
      40A     -0.686157    41A     -0.682077    42A     -0.679486
      43A     -0.671287    44A     -0.658833    45A     -0.642942
      46A     -0.619918    47A     -0.600811    48A     -0.565879
      49A     -0.551732    50A     -0.538372    51A     -0.523309
      52A     -0.522233    53A     -0.514721    54A     -0.489399
      55A     -0.454719    56A     -0.367907    57A     -0.365897

  @DF-RHF Final Energy: -1152.80307851375051

   => Energetics <=

    Nuclear Repulsion Energy =           1101.8875937223233450
    One-Electron Energy =               -3779.5916447882182183
    Two-Electron Energy =                1524.9009725521443670
    Total Energy =                      -1152.8030785137505063
  Basis Set: (AUG-CC-PVTZ AUX)
    Blend: AUG-CC-PVTZ-RI
    Molecular point group: c1

    Geometry (in Angstrom), charge = 0, multiplicity = 1:

       Center              X                  Y                   Z               Mass
    ------------   -----------------  -----------------  -----------------  -----------------
         S            1.168667207986     0.096796807244    -0.889397204656    31.972071174400
         F            1.450946907986    -1.109236692756     1.497320595344    18.998403162730
         F            3.178058907986    -0.016830692756     0.725173595344    18.998403162730
         F            1.450975907986     1.073760307244     1.499946595344    18.998403162730
         O            1.478499907986    -1.301553692756    -1.460546404656    15.994914619570
         O            1.478496907986     1.273209307244    -1.457436404656    15.994914619570
         C           -0.618212092014    -0.015343692756    -0.491245404656    12.000000000000
         C           -1.278071092014    -1.236330692756    -0.336228404656    12.000000000000
         C           -1.278076092014     1.205265307244    -0.333300404656    12.000000000000
         C           -3.331864092014    -0.016106692756     0.140603595344    12.000000000000
         C            1.846191907986    -0.016934692756     0.826882595344    12.000000000000
         C           -2.636211092014    -1.222015692756    -0.025010404656    12.000000000000
         C           -2.636216092014     1.190199307244    -0.022117404656    12.000000000000
         C           -4.789734092014    -0.016561692756     0.516516595344    12.000000000000
         H           -0.742233092014    -2.169539692756    -0.486093404656     1.007825032230
         H           -0.742241092014     2.138833307244    -0.480927404656     1.007825032230
         H           -3.166347092014    -2.165818692756     0.086731595344     1.007825032230
         H           -3.166355092014     2.133730307244     0.091888595344     1.007825032230
         H           -5.297110092014     0.869678307244     0.126114595344     1.007825032230
         H           -5.297123092014    -0.901823692756     0.123917595344     1.007825032230
         H           -4.911343092014    -0.017911692756     1.605137595344     1.007825032230

  Basis Set: AUG-CC-PVTZ
    Blend: AUG-CC-PVTZ
  Basis Set: (AUG-CC-PVTZ AUX)
    Blend: AUG-CC-PVTZ-JKFIT
	 Reference Energy          =   -1152.8030785137505063 [Eh]
	 Singles Energy            =      -0.0000000000000000 [Eh]
	 Same-Spin Energy          =      -0.7684160339169820 [Eh]
	 Opposite-Spin Energy      =      -2.2411257899900461 [Eh]
	 Correlation Energy        =      -3.0095418239070280 [Eh]
	 Total Energy              =   -1155.8126203376575631 [Eh]

	 ================> DF-SCS-MP2 Energies <==================
	-----------------------------------------------------------
	 SCS Same-Spin Scale       =       0.3333333333333333 [-]
	 SCS Opposite-Spin Scale   =       1.2000000000000000 [-]
	 SCS Same-Spin Energy      =      -0.2561386779723273 [Eh]
	 SCS Opposite-Spin Energy  =      -2.6893509479880553 [Eh]
	 SCS Correlation Energy    =      -2.9454896259603824 [Eh]
	 SCS Total Energy          =   -1155.7485681397108692 [Eh]
	-----------------------------------------------------------

  Dipole Moment: [D]
     X:    -4.6929      Y:     0.8650      Z:     1.9167     Total:     5.1425

*** Psi4 exiting successfully. Buy a developer a beer!
