                               Psi4 1.4a3.dev225

  ==> Input File <==

--------------------------------------------------------------------------
#psi4
#
memory 32 gb

molecule  {
0 1
  S        1.2441830     0.0010390    -0.8590750
  F        1.5874080    -1.0933110     1.5061340
  F        3.3145200    -0.0009050     0.7339870
  F        1.5874370     1.0896860     1.5087600
  O        1.6149610    -1.2856280    -1.4517330
  O        1.6149580     1.2891350    -1.4486230
  C       -0.4817510     0.0005820    -0.4824320
  C       -1.1416100    -1.2204050    -0.3274150
  C       -1.1416150     1.2211910    -0.3244870
  C       -3.0684768     0.0679525     0.1214377
  C        1.9826530    -0.0010090     0.8356960
  C       -2.4997500    -1.2060900    -0.0161970
  C       -2.4997550     1.2061250    -0.0133040
  C       -4.6532730    -0.0006360     0.5253300
  H       -0.6057720    -2.1536140    -0.4772800
  H       -0.6057800     2.1547590    -0.4721140
  H       -3.0298860    -2.1498930     0.0955450
  H       -3.0298940     2.1496560     0.1007020
  H       -5.1606490     0.8856040     0.1349280
  H       -5.1606620    -0.8858980     0.1327310
  H       -4.7748820    -0.0019860     1.6139510
units angstrom
no_reorient  #important for SAPT in psi4, default
symmetry c1  #important for SAPT in psi4, default
}

set PROPERTIES_ORIGIN ["COM"]
properties('MP2/aug-cc-pvtz', properties = ['dipole'])
--------------------------------------------------------------------------

    Molecular point group: c1
  Charge       = 0
  Multiplicity = 1
  Basis Set: AUG-CC-PVTZ
    Blend: AUG-CC-PVTZ
  Basis Set: (AUG-CC-PVTZ AUX)
    Blend: AUG-CC-PVTZ-JKFIT

    Orbital Energies [Eh]
    ---------------------

    Doubly Occupied:

       1A    -92.217072     2A    -26.372208     3A    -26.372183
       4A    -26.369511     5A    -20.574783     6A    -20.574600
       7A    -11.550824     8A    -11.293603     9A    -11.289013
      10A    -11.282210    11A    -11.276807    12A    -11.266444
      13A    -11.252384    14A    -11.252299    15A     -9.185737
      16A     -6.870599    17A     -6.869875    18A     -6.869578
      19A     -1.757573    20A     -1.665925    21A     -1.664987
      22A     -1.466559    23A     -1.359104    24A     -1.211120
      25A     -1.099474    26A     -1.060747    27A     -1.035192
      28A     -0.969012    29A     -0.918650    30A     -0.879838
      31A     -0.856679    32A     -0.851273    33A     -0.845562
      34A     -0.800127    35A     -0.744189    36A     -0.737378
      37A     -0.727020    38A     -0.696342    39A     -0.693931
      40A     -0.686796    41A     -0.678781    42A     -0.669104
      43A     -0.664702    44A     -0.648407    45A     -0.643627
      46A     -0.632462    47A     -0.594603    48A     -0.563979
      49A     -0.548292    50A     -0.540173    51A     -0.523672
      52A     -0.519806    53A     -0.497945    54A     -0.495226
      55A     -0.465081    56A     -0.392710    57A     -0.370642

  @DF-RHF Final Energy: -1152.80617493643604

   => Energetics <=

    Nuclear Repulsion Energy =           1104.7864411151072090
    One-Electron Energy =               -3785.3523953764388352
    Two-Electron Energy =                1527.7597793248955895
    Total Energy =                      -1152.8061749364360367
  Basis Set: (AUG-CC-PVTZ AUX)
    Blend: AUG-CC-PVTZ-RI
    Molecular point group: c1

    Geometry (in Angstrom), charge = 0, multiplicity = 1:

       Center              X                  Y                   Z               Mass
    ------------   -----------------  -----------------  -----------------  -----------------
         S            1.109621061994    -0.002596493022    -0.869459434177    31.972071174400
         F            1.452846061994    -1.096946493022     1.495749565823    18.998403162730
         F            3.179958061994    -0.004540493022     0.723602565823    18.998403162730
         F            1.452875061994     1.086050506978     1.498375565823    18.998403162730
         O            1.480399061994    -1.289263493022    -1.462117434177    15.994914619570
         O            1.480396061994     1.285499506978    -1.459007434177    15.994914619570
         C           -0.616312938006    -0.003053493022    -0.492816434177    12.000000000000
         C           -1.276171938006    -1.224040493022    -0.337799434177    12.000000000000
         C           -1.276176938006     1.217555506978    -0.334871434177    12.000000000000
         C           -3.203038738006     0.064317006978     0.111053265823    12.000000000000
         C            1.848091061994    -0.004644493022     0.825311565823    12.000000000000
         C           -2.634311938006    -1.209725493022    -0.026581434177    12.000000000000
         C           -2.634316938006     1.202489506978    -0.023688434177    12.000000000000
         C           -4.787834938006    -0.004271493022     0.514945565823    12.000000000000
         H           -0.740333938006    -2.157249493022    -0.487664434177     1.007825032230
         H           -0.740341938006     2.151123506978    -0.482498434177     1.007825032230
         H           -3.164447938006    -2.153528493022     0.085160565823     1.007825032230
         H           -3.164455938006     2.146020506978     0.090317565823     1.007825032230
         H           -5.295210938006     0.881968506978     0.124543565823     1.007825032230
         H           -5.295223938006    -0.889533493022     0.122346565823     1.007825032230
         H           -4.909443938006    -0.005621493022     1.603566565823     1.007825032230

  Basis Set: AUG-CC-PVTZ
    Blend: AUG-CC-PVTZ
  Basis Set: (AUG-CC-PVTZ AUX)
    Blend: AUG-CC-PVTZ-JKFIT
	 Reference Energy          =   -1152.8061749364360367 [Eh]
	 Singles Energy            =      -0.0000000000000000 [Eh]
	 Same-Spin Energy          =      -0.7690594625860742 [Eh]
	 Opposite-Spin Energy      =      -2.2425172809856377 [Eh]
	 Correlation Energy        =      -3.0115767435717120 [Eh]
	 Total Energy              =   -1155.8177516800078592 [Eh]

	 ================> DF-SCS-MP2 Energies <==================
	-----------------------------------------------------------
	 SCS Same-Spin Scale       =       0.3333333333333333 [-]
	 SCS Opposite-Spin Scale   =       1.2000000000000000 [-]
	 SCS Same-Spin Energy      =      -0.2563531541953580 [Eh]
	 SCS Opposite-Spin Energy  =      -2.6910207371827650 [Eh]
	 SCS Correlation Energy    =      -2.9473738913781231 [Eh]
	 SCS Total Energy          =   -1155.7535488278142566 [Eh]
	-----------------------------------------------------------

  Dipole Moment: [D]
     X:    -5.1550      Y:    -0.0231      Z:     2.0593     Total:     5.5512

*** Psi4 exiting successfully. Buy a developer a beer!
