                               Psi4 1.4a3.dev225

  ==> Input File <==

--------------------------------------------------------------------------
#psi4
#
memory 32 gb

molecule  {
0 1
  S        1.2441830     0.0010390    -0.8590750
  F        1.5874080    -1.0933110     1.5061340
  F        3.3145200    -0.0009050     0.7339870
  F        1.5874370     1.0896860     1.5087600
  O        1.6149610    -1.2856280    -1.4517330
  O        1.6149580     1.2891350    -1.4486230
  C       -0.4817510     0.0005820    -0.4824320
  C       -1.1506727    -1.3659686    -0.3260924
  C       -1.1416150     1.2211910    -0.3244870
  C       -3.1954030    -0.0001810     0.1494170
  C        1.9826530    -0.0010090     0.8356960
  C       -2.4997500    -1.2060900    -0.0161970
  C       -2.4997550     1.2061250    -0.0133040
  C       -4.6532730    -0.0006360     0.5253300
  H       -0.6057720    -2.1536140    -0.4772800
  H       -0.6057800     2.1547590    -0.4721140
  H       -3.0298860    -2.1498930     0.0955450
  H       -3.0298940     2.1496560     0.1007020
  H       -5.1606490     0.8856040     0.1349280
  H       -5.1606620    -0.8858980     0.1327310
  H       -4.7748820    -0.0019860     1.6139510
units angstrom
no_reorient  #important for SAPT in psi4, default
symmetry c1  #important for SAPT in psi4, default
}

set PROPERTIES_ORIGIN ["COM"]
properties('MP2/aug-cc-pvtz', properties = ['dipole'])
--------------------------------------------------------------------------

    Molecular point group: c1
  Charge       = 0
  Multiplicity = 1
  Basis Set: AUG-CC-PVTZ
    Blend: AUG-CC-PVTZ
  Basis Set: (AUG-CC-PVTZ AUX)
    Blend: AUG-CC-PVTZ-JKFIT

    Orbital Energies [Eh]
    ---------------------

    Doubly Occupied:

       1A    -92.213233     2A    -26.370071     3A    -26.369765
       4A    -26.367211     5A    -20.572313     6A    -20.571035
       7A    -11.548020     8A    -11.302356     9A    -11.291372
      10A    -11.290974    11A    -11.287754    12A    -11.269773
      13A    -11.267530    14A    -11.254295    15A     -9.181915
      16A     -6.866764    17A     -6.866020    18A     -6.865778
      19A     -1.755294    20A     -1.663696    21A     -1.662745
      22A     -1.463479    23A     -1.356302    24A     -1.188650
      25A     -1.094334    26A     -1.058172    27A     -1.037008
      28A     -0.978980    29A     -0.915386    30A     -0.876348
      31A     -0.856834    32A     -0.849043    33A     -0.844566
      34A     -0.791245    35A     -0.741461    36A     -0.735205
      37A     -0.726903    38A     -0.699488    39A     -0.693890
      40A     -0.690275    41A     -0.678150    42A     -0.676337
      43A     -0.665013    44A     -0.647493    45A     -0.633839
      46A     -0.626554    47A     -0.605868    48A     -0.567010
      49A     -0.554706    50A     -0.528468    51A     -0.523147
      52A     -0.518234    53A     -0.508905    54A     -0.495046
      55A     -0.462733    56A     -0.379505    57A     -0.363287

  @DF-RHF Final Energy: -1152.80148539875768

   => Energetics <=

    Nuclear Repulsion Energy =           1099.6912539000402376
    One-Electron Energy =               -3775.2459146838541528
    Two-Electron Energy =                1522.7531753850564655
    Total Energy =                      -1152.8014853987576771
  Basis Set: (AUG-CC-PVTZ AUX)
    Blend: AUG-CC-PVTZ-RI
    Molecular point group: c1

    Geometry (in Angstrom), charge = 0, multiplicity = 1:

       Center              X                  Y                   Z               Mass
    ------------   -----------------  -----------------  -----------------  -----------------
         S            1.116905795119     0.008850958521    -0.871029095536    31.972071174400
         F            1.460130795119    -1.085499041479     1.494179904464    18.998403162730
         F            3.187242795119     0.006906958521     0.722032904464    18.998403162730
         F            1.460159795119     1.097497958521     1.496805904464    18.998403162730
         O            1.487683795119    -1.277816041479    -1.463687095536    15.994914619570
         O            1.487680795119     1.296946958521    -1.460577095536    15.994914619570
         C           -0.609028204881     0.008393958521    -0.494386095536    12.000000000000
         C           -1.277949904881    -1.358156641479    -0.338046495536    12.000000000000
         C           -1.268892204881     1.229002958521    -0.336441095536    12.000000000000
         C           -3.322680204881     0.007630958521     0.137462904464    12.000000000000
         C            1.855375795119     0.006802958521     0.823741904464    12.000000000000
         C           -2.627027204881    -1.198278041479    -0.028151095536    12.000000000000
         C           -2.627032204881     1.213936958521    -0.025258095536    12.000000000000
         C           -4.780550204881     0.007175958521     0.513375904464    12.000000000000
         H           -0.733049204881    -2.145802041479    -0.489234095536     1.007825032230
         H           -0.733057204881     2.162570958521    -0.484068095536     1.007825032230
         H           -3.157163204881    -2.142081041479     0.083590904464     1.007825032230
         H           -3.157171204881     2.157467958521     0.088747904464     1.007825032230
         H           -5.287926204881     0.893415958521     0.122973904464     1.007825032230
         H           -5.287939204881    -0.878086041479     0.120776904464     1.007825032230
         H           -4.902159204881     0.005825958521     1.601996904464     1.007825032230

  Basis Set: AUG-CC-PVTZ
    Blend: AUG-CC-PVTZ
  Basis Set: (AUG-CC-PVTZ AUX)
    Blend: AUG-CC-PVTZ-JKFIT
	 Reference Energy          =   -1152.8014853987576771 [Eh]
	 Singles Energy            =      -0.0000000000000000 [Eh]
	 Same-Spin Energy          =      -0.7700019421100659 [Eh]
	 Opposite-Spin Energy      =      -2.2450999840664250 [Eh]
	 Correlation Energy        =      -3.0151019261764906 [Eh]
	 Total Energy              =   -1155.8165873249340621 [Eh]

	 ================> DF-SCS-MP2 Energies <==================
	-----------------------------------------------------------
	 SCS Same-Spin Scale       =       0.3333333333333333 [-]
	 SCS Opposite-Spin Scale   =       1.2000000000000000 [-]
	 SCS Same-Spin Energy      =      -0.2566673140366886 [Eh]
	 SCS Opposite-Spin Energy  =      -2.6941199808797101 [Eh]
	 SCS Correlation Energy    =      -2.9507872949163985 [Eh]
	 SCS Total Energy          =   -1155.7522726936740582 [Eh]
	-----------------------------------------------------------

  Dipole Moment: [D]
     X:    -5.5522      Y:     0.0367      Z:     2.1536     Total:     5.9554

*** Psi4 exiting successfully. Buy a developer a beer!
