                               Psi4 1.4a3.dev225

  ==> Input File <==

--------------------------------------------------------------------------
#psi4
#
memory 32 gb

molecule  {
0 1
  S        1.2402415    -0.1221858    -0.8571027
  F        1.5874080    -1.0933110     1.5061340
  F        3.3145200    -0.0009050     0.7339870
  F        1.5874370     1.0896860     1.5087600
  O        1.6149610    -1.2856280    -1.4517330
  O        1.6149580     1.2891350    -1.4486230
  C       -0.4817510     0.0005820    -0.4824320
  C       -1.1416100    -1.2204050    -0.3274150
  C       -1.1416150     1.2211910    -0.3244870
  C       -3.1954030    -0.0001810     0.1494170
  C        1.9826530    -0.0010090     0.8356960
  C       -2.4997500    -1.2060900    -0.0161970
  C       -2.4997550     1.2061250    -0.0133040
  C       -4.6532730    -0.0006360     0.5253300
  H       -0.6057720    -2.1536140    -0.4772800
  H       -0.6057800     2.1547590    -0.4721140
  H       -3.0298860    -2.1498930     0.0955450
  H       -3.0298940     2.1496560     0.1007020
  H       -5.1606490     0.8856040     0.1349280
  H       -5.1606620    -0.8858980     0.1327310
  H       -4.7748820    -0.0019860     1.6139510
units angstrom
no_reorient  #important for SAPT in psi4, default
symmetry c1  #important for SAPT in psi4, default
}

set PROPERTIES_ORIGIN ["COM"]
properties('MP2/aug-cc-pvtz', properties = ['dipole'])
--------------------------------------------------------------------------

    Molecular point group: c1
  Charge       = 0
  Multiplicity = 1
  Basis Set: AUG-CC-PVTZ
    Blend: AUG-CC-PVTZ
  Basis Set: (AUG-CC-PVTZ AUX)
    Blend: AUG-CC-PVTZ-JKFIT

    Orbital Energies [Eh]
    ---------------------

    Doubly Occupied:

       1A    -92.210653     2A    -26.371374     3A    -26.370627
       4A    -26.368458     5A    -20.596567     6A    -20.549112
       7A    -11.549759     8A    -11.293457     9A    -11.287574
      10A    -11.284988    11A    -11.284406    12A    -11.265308
      13A    -11.265178    14A    -11.252469    15A     -9.182152
      16A     -6.867006    17A     -6.866389    18A     -6.865379
      19A     -1.756493    20A     -1.665341    21A     -1.663389
      22A     -1.513696    23A     -1.317255    24A     -1.197919
      25A     -1.100802    26A     -1.053750    27A     -1.038119
      28A     -0.981037    29A     -0.917107    30A     -0.870430
      31A     -0.857112    32A     -0.850020    33A     -0.844485
      34A     -0.798057    35A     -0.746337    36A     -0.736492
      37A     -0.728530    38A     -0.695907    39A     -0.693108
      40A     -0.686143    41A     -0.677832    42A     -0.677627
      43A     -0.674767    44A     -0.651902    45A     -0.643572
      46A     -0.625138    47A     -0.605084    48A     -0.570015
      49A     -0.552687    50A     -0.536652    51A     -0.527088
      52A     -0.521749    53A     -0.509418    54A     -0.475071
      55A     -0.455303    56A     -0.374357    57A     -0.371824

  @DF-RHF Final Energy: -1152.80355406920171

   => Energetics <=

    Nuclear Repulsion Energy =           1102.8736034724533965
    One-Electron Energy =               -3781.5693762191272072
    Two-Electron Energy =                1525.8922186774721013
    Total Energy =                      -1152.8035540692017094
  Basis Set: (AUG-CC-PVTZ AUX)
    Blend: AUG-CC-PVTZ-RI
    Molecular point group: c1

    Geometry (in Angstrom), charge = 0, multiplicity = 1:

       Center              X                  Y                   Z               Mass
    ------------   -----------------  -----------------  -----------------  -----------------
         S            1.113041369237    -0.104584231991    -0.869267442020    31.972071174400
         F            1.460207869237    -1.075709431991     1.493969257980    18.998403162730
         F            3.187319869237     0.016696568009     0.721822257980    18.998403162730
         F            1.460236869237     1.107287568009     1.496595257980    18.998403162730
         O            1.487760869237    -1.268026431991    -1.463897742020    15.994914619570
         O            1.487757869237     1.306736568009    -1.460787742020    15.994914619570
         C           -0.608951130763     0.018183568009    -0.494596742020    12.000000000000
         C           -1.268810130763    -1.202803431991    -0.339579742020    12.000000000000
         C           -1.268815130763     1.238792568009    -0.336651742020    12.000000000000
         C           -3.322603130763     0.017420568009     0.137252257980    12.000000000000
         C            1.855452869237     0.016592568009     0.823531257980    12.000000000000
         C           -2.626950130763    -1.188488431991    -0.028361742020    12.000000000000
         C           -2.626955130763     1.223726568009    -0.025468742020    12.000000000000
         C           -4.780473130763     0.016965568009     0.513165257980    12.000000000000
         H           -0.732972130763    -2.136012431991    -0.489444742020     1.007825032230
         H           -0.732980130763     2.172360568009    -0.484278742020     1.007825032230
         H           -3.157086130763    -2.132291431991     0.083380257980     1.007825032230
         H           -3.157094130763     2.167257568009     0.088537257980     1.007825032230
         H           -5.287849130763     0.903205568009     0.122763257980     1.007825032230
         H           -5.287862130763    -0.868296431991     0.120566257980     1.007825032230
         H           -4.902082130763     0.015615568009     1.601786257980     1.007825032230

  Basis Set: AUG-CC-PVTZ
    Blend: AUG-CC-PVTZ
  Basis Set: (AUG-CC-PVTZ AUX)
    Blend: AUG-CC-PVTZ-JKFIT
	 Reference Energy          =   -1152.8035540692017094 [Eh]
	 Singles Energy            =      -0.0000000000000000 [Eh]
	 Same-Spin Energy          =      -0.7690831812650715 [Eh]
	 Opposite-Spin Energy      =      -2.2421325990260619 [Eh]
	 Correlation Energy        =      -3.0112157802911335 [Eh]
	 Total Energy              =   -1155.8147698494929045 [Eh]

	 ================> DF-SCS-MP2 Energies <==================
	-----------------------------------------------------------
	 SCS Same-Spin Scale       =       0.3333333333333333 [-]
	 SCS Opposite-Spin Scale   =       1.2000000000000000 [-]
	 SCS Same-Spin Energy      =      -0.2563610604216905 [Eh]
	 SCS Opposite-Spin Energy  =      -2.6905591188312741 [Eh]
	 SCS Correlation Energy    =      -2.9469201792529645 [Eh]
	 SCS Total Energy          =   -1155.7504742484545659 [Eh]
	-----------------------------------------------------------

  Dipole Moment: [D]
     X:    -5.4817      Y:    -0.9711      Z:     2.1868     Total:     5.9811

*** Psi4 exiting successfully. Buy a developer a beer!
