                               Psi4 1.4a3.dev225

  ==> Input File <==

--------------------------------------------------------------------------
#psi4
#
memory 32 gb

molecule  {
0 1
  S        1.1595989    -0.1663348    -0.8113742
  F        1.5874080    -1.0933110     1.5061340
  F        3.3145200    -0.0009050     0.7339870
  F        1.5874370     1.0896860     1.5087600
  O        1.6149610    -1.2856280    -1.4517330
  O        1.6149580     1.2891350    -1.4486230
  C       -0.4817510     0.0005820    -0.4824320
  C       -1.1416100    -1.2204050    -0.3274150
  C       -1.1416150     1.2211910    -0.3244870
  C       -3.1954030    -0.0001810     0.1494170
  C        1.9826530    -0.0010090     0.8356960
  C       -2.4997500    -1.2060900    -0.0161970
  C       -2.4997550     1.2061250    -0.0133040
  C       -4.6532730    -0.0006360     0.5253300
  H       -0.6057720    -2.1536140    -0.4772800
  H       -0.6057800     2.1547590    -0.4721140
  H       -3.0298860    -2.1498930     0.0955450
  H       -3.0298940     2.1496560     0.1007020
  H       -5.1606490     0.8856040     0.1349280
  H       -5.1606620    -0.8858980     0.1327310
  H       -4.7748820    -0.0019860     1.6139510
units angstrom
no_reorient  #important for SAPT in psi4, default
symmetry c1  #important for SAPT in psi4, default
}

set PROPERTIES_ORIGIN ["COM"]
properties('MP2/aug-cc-pvtz', properties = ['dipole'])
--------------------------------------------------------------------------

    Molecular point group: c1
  Charge       = 0
  Multiplicity = 1
  Basis Set: AUG-CC-PVTZ
    Blend: AUG-CC-PVTZ
  Basis Set: (AUG-CC-PVTZ AUX)
    Blend: AUG-CC-PVTZ-JKFIT

    Orbital Energies [Eh]
    ---------------------

    Doubly Occupied:

       1A    -92.204408     2A    -26.370241     3A    -26.369034
       4A    -26.368234     5A    -20.593187     6A    -20.530725
       7A    -11.550213     8A    -11.296722     9A    -11.296018
      10A    -11.294206    11A    -11.293426    12A    -11.271342
      13A    -11.271033    14A    -11.257975    15A     -9.177985
      16A     -6.862555    17A     -6.861994    18A     -6.861037
      19A     -1.755652    20A     -1.664931    21A     -1.661887
      22A     -1.502958    23A     -1.273935    24A     -1.207061
      25A     -1.115926    26A     -1.061236    27A     -1.040589
      28A     -0.991393    29A     -0.920666    30A     -0.879318
      31A     -0.861744    32A     -0.848905    33A     -0.846929
      34A     -0.801620    35A     -0.743460    36A     -0.736848
      37A     -0.728456    38A     -0.697090    39A     -0.692207
      40A     -0.690963    41A     -0.681430    42A     -0.676717
      43A     -0.672430    44A     -0.645313    45A     -0.640432
      46A     -0.631716    47A     -0.610662    48A     -0.575516
      49A     -0.555268    50A     -0.542640    51A     -0.534122
      52A     -0.519237    53A     -0.490323    54A     -0.448688
      55A     -0.441897    56A     -0.383209    57A     -0.378325

  @DF-RHF Final Energy: -1152.77596112009837

   => Energetics <=

    Nuclear Repulsion Energy =           1104.4470513883150034
    One-Electron Energy =               -3784.6819496165089731
    Two-Electron Energy =                1527.4589371080953697
    Total Energy =                      -1152.7759611200983727
  Basis Set: (AUG-CC-PVTZ AUX)
    Blend: AUG-CC-PVTZ-RI
    Molecular point group: c1

    Geometry (in Angstrom), charge = 0, multiplicity = 1:

       Center              X                  Y                   Z               Mass
    ------------   -----------------  -----------------  -----------------  -----------------
         S            1.043908475275    -0.142432070919    -0.830065537052    31.972071174400
         F            1.471717575275    -1.069408270919     1.487442662948    18.998403162730
         F            3.198829575275     0.022997729081     0.715295662948    18.998403162730
         F            1.471746575275     1.113588729081     1.490068662948    18.998403162730
         O            1.499270575275    -1.261725270919    -1.470424337052    15.994914619570
         O            1.499267575275     1.313037729081    -1.467314337052    15.994914619570
         C           -0.597441424725     0.024484729081    -0.501123337052    12.000000000000
         C           -1.257300424725    -1.196502270919    -0.346106337052    12.000000000000
         C           -1.257305424725     1.245093729081    -0.343178337052    12.000000000000
         C           -3.311093424725     0.023721729081     0.130725662948    12.000000000000
         C            1.866962575275     0.022893729081     0.817004662948    12.000000000000
         C           -2.615440424725    -1.182187270919    -0.034888337052    12.000000000000
         C           -2.615445424725     1.230027729081    -0.031995337052    12.000000000000
         C           -4.768963424725     0.023266729081     0.506638662948    12.000000000000
         H           -0.721462424725    -2.129711270919    -0.495971337052     1.007825032230
         H           -0.721470424725     2.178661729081    -0.490805337052     1.007825032230
         H           -3.145576424725    -2.125990270919     0.076853662948     1.007825032230
         H           -3.145584424725     2.173558729081     0.082010662948     1.007825032230
         H           -5.276339424725     0.909506729081     0.116236662948     1.007825032230
         H           -5.276352424725    -0.861995270919     0.114039662948     1.007825032230
         H           -4.890572424725     0.021916729081     1.595259662948     1.007825032230

  Basis Set: AUG-CC-PVTZ
    Blend: AUG-CC-PVTZ
  Basis Set: (AUG-CC-PVTZ AUX)
    Blend: AUG-CC-PVTZ-JKFIT
	 Reference Energy          =   -1152.7759611200983727 [Eh]
	 Singles Energy            =      -0.0000000000000000 [Eh]
	 Same-Spin Energy          =      -0.7703254663675596 [Eh]
	 Opposite-Spin Energy      =      -2.2447141215499742 [Eh]
	 Correlation Energy        =      -3.0150395879175340 [Eh]
	 Total Energy              =   -1155.7910007080158721 [Eh]

	 ================> DF-SCS-MP2 Energies <==================
	-----------------------------------------------------------
	 SCS Same-Spin Scale       =       0.3333333333333333 [-]
	 SCS Opposite-Spin Scale   =       1.2000000000000000 [-]
	 SCS Same-Spin Energy      =      -0.2567751554558532 [Eh]
	 SCS Opposite-Spin Energy  =      -2.6936569458599688 [Eh]
	 SCS Correlation Energy    =      -2.9504321013158221 [Eh]
	 SCS Total Energy          =   -1155.7263932214141278 [Eh]
	-----------------------------------------------------------

  Dipole Moment: [D]
     X:    -6.5079      Y:    -1.3390      Z:     2.6675     Total:     7.1596

*** Psi4 exiting successfully. Buy a developer a beer!
