                               Psi4 1.4a3.dev225

  ==> Input File <==

--------------------------------------------------------------------------
#psi4
#
memory 32 gb

molecule  {
0 1
  S        1.2441830     0.0010390    -0.8590750
  F        1.5874080    -1.0933110     1.5061340
  F        3.3145200    -0.0009050     0.7339870
  F        1.5874370     1.0896860     1.5087600
  O        1.6149610    -1.2856280    -1.4517330
  O        1.6149580     1.2891350    -1.4486230
  C       -0.4675549     0.0005095    -0.4224273
  C       -1.1416100    -1.2204050    -0.3274150
  C       -1.1416150     1.2211910    -0.3244870
  C       -3.1954030    -0.0001810     0.1494170
  C        1.9826530    -0.0010090     0.8356960
  C       -2.4997500    -1.2060900    -0.0161970
  C       -2.4997550     1.2061250    -0.0133040
  C       -4.6532730    -0.0006360     0.5253300
  H       -0.6057720    -2.1536140    -0.4772800
  H       -0.6057800     2.1547590    -0.4721140
  H       -3.0298860    -2.1498930     0.0955450
  H       -3.0298940     2.1496560     0.1007020
  H       -5.1606490     0.8856040     0.1349280
  H       -5.1606620    -0.8858980     0.1327310
  H       -4.7748820    -0.0019860     1.6139510
units angstrom
no_reorient  #important for SAPT in psi4, default
symmetry c1  #important for SAPT in psi4, default
}

set PROPERTIES_ORIGIN ["COM"]
properties('MP2/aug-cc-pvtz', properties = ['dipole'])
--------------------------------------------------------------------------

    Molecular point group: c1
  Charge       = 0
  Multiplicity = 1
  Basis Set: AUG-CC-PVTZ
    Blend: AUG-CC-PVTZ
  Basis Set: (AUG-CC-PVTZ AUX)
    Blend: AUG-CC-PVTZ-JKFIT

    Orbital Energies [Eh]
    ---------------------

    Doubly Occupied:

       1A    -92.216472     2A    -26.370398     3A    -26.370376
       4A    -26.367220     5A    -20.575319     6A    -20.575300
       7A    -11.547867     8A    -11.293129     9A    -11.287586
      10A    -11.285080    11A    -11.284976    12A    -11.264992
      13A    -11.264953    14A    -11.252411    15A     -9.185146
      16A     -6.870060    17A     -6.869220    18A     -6.869008
      19A     -1.755681    20A     -1.664162    21A     -1.663021
      22A     -1.466470    23A     -1.359242    24A     -1.197937
      25A     -1.101106    26A     -1.053532    27A     -1.038651
      28A     -0.980510    29A     -0.916882    30A     -0.869522
      31A     -0.855885    32A     -0.849398    33A     -0.843691
      34A     -0.796655    35A     -0.742707    36A     -0.735647
      37A     -0.725348    38A     -0.694624    39A     -0.692123
      40A     -0.683560    41A     -0.676923    42A     -0.670819
      43A     -0.666837    44A     -0.647597    45A     -0.638984
      46A     -0.625217    47A     -0.604983    48A     -0.569920
      49A     -0.545985    50A     -0.532145    51A     -0.526166
      52A     -0.523476    53A     -0.516086    54A     -0.498273
      55A     -0.467931    56A     -0.373843    57A     -0.372046

  @DF-RHF Final Energy: -1152.82942307608778

   => Energetics <=

    Nuclear Repulsion Energy =           1102.9247718810477181
    One-Electron Energy =               -3781.7221952569479981
    Two-Electron Energy =                1525.9680002998127293
    Total Energy =                      -1152.8294230760877781
  Basis Set: (AUG-CC-PVTZ AUX)
    Blend: AUG-CC-PVTZ-RI
    Molecular point group: c1

    Geometry (in Angstrom), charge = 0, multiplicity = 1:

       Center              X                  Y                   Z               Mass
    ------------   -----------------  -----------------  -----------------  -----------------
         S            1.115659854084     0.001057205975    -0.874172612674    31.972071174400
         F            1.458884854084    -1.093292794025     1.491036387326    18.998403162730
         F            3.185996854084    -0.000886794025     0.718889387326    18.998403162730
         F            1.458913854084     1.089704205975     1.493662387326    18.998403162730
         O            1.486437854084    -1.285609794025    -1.466830612674    15.994914619570
         O            1.486434854084     1.289153205975    -1.463720612674    15.994914619570
         C           -0.596078045916     0.000527705975    -0.437524912674    12.000000000000
         C           -1.270133145916    -1.220386794025    -0.342512612674    12.000000000000
         C           -1.270138145916     1.221209205975    -0.339584612674    12.000000000000
         C           -3.323926145916    -0.000162794025     0.134319387326    12.000000000000
         C            1.854129854084    -0.000990794025     0.820598387326    12.000000000000
         C           -2.628273145916    -1.206071794025    -0.031294612674    12.000000000000
         C           -2.628278145916     1.206143205975    -0.028401612674    12.000000000000
         C           -4.781796145916    -0.000617794025     0.510232387326    12.000000000000
         H           -0.734295145916    -2.153595794025    -0.492377612674     1.007825032230
         H           -0.734303145916     2.154777205975    -0.487211612674     1.007825032230
         H           -3.158409145916    -2.149874794025     0.080447387326     1.007825032230
         H           -3.158417145916     2.149674205975     0.085604387326     1.007825032230
         H           -5.289172145916     0.885622205975     0.119830387326     1.007825032230
         H           -5.289185145916    -0.885879794025     0.117633387326     1.007825032230
         H           -4.903405145916    -0.001967794025     1.598853387326     1.007825032230

  Basis Set: AUG-CC-PVTZ
    Blend: AUG-CC-PVTZ
  Basis Set: (AUG-CC-PVTZ AUX)
    Blend: AUG-CC-PVTZ-JKFIT
	 Reference Energy          =   -1152.8294230760877781 [Eh]
	 Singles Energy            =      -0.0000000000000000 [Eh]
	 Same-Spin Energy          =      -0.7698409392799194 [Eh]
	 Opposite-Spin Energy      =      -2.2430695011644683 [Eh]
	 Correlation Energy        =      -3.0129104404443878 [Eh]
	 Total Energy              =   -1155.8423335165321078 [Eh]

	 ================> DF-SCS-MP2 Energies <==================
	-----------------------------------------------------------
	 SCS Same-Spin Scale       =       0.3333333333333333 [-]
	 SCS Opposite-Spin Scale   =       1.2000000000000000 [-]
	 SCS Same-Spin Energy      =      -0.2566136464266398 [Eh]
	 SCS Opposite-Spin Energy  =      -2.6916834013973618 [Eh]
	 SCS Correlation Energy    =      -2.9482970478240018 [Eh]
	 SCS Total Energy          =   -1155.7777201239118767 [Eh]
	-----------------------------------------------------------

  Dipole Moment: [D]
     X:    -5.4198      Y:    -0.0025      Z:     2.0779     Total:     5.8045

*** Psi4 exiting successfully. Buy a developer a beer!
