                               Psi4 1.4a3.dev225

  ==> Input File <==

--------------------------------------------------------------------------
#psi4
#
memory 32 gb

molecule  {
0 1
  S        1.2441830     0.0010390    -0.8590750
  F        1.5874080    -1.0933110     1.5061340
  F        3.3145200    -0.0009050     0.7339870
  F        1.5874370     1.0896860     1.5087600
  O        1.6149610    -1.2856280    -1.4517330
  O        1.6149580     1.2891350    -1.4486230
  C       -0.4512734     0.0004376    -0.3629545
  C       -1.1416100    -1.2204050    -0.3274150
  C       -1.1416150     1.2211910    -0.3244870
  C       -3.1954030    -0.0001810     0.1494170
  C        1.9826530    -0.0010090     0.8356960
  C       -2.4997500    -1.2060900    -0.0161970
  C       -2.4997550     1.2061250    -0.0133040
  C       -4.6532730    -0.0006360     0.5253300
  H       -0.6057720    -2.1536140    -0.4772800
  H       -0.6057800     2.1547590    -0.4721140
  H       -3.0298860    -2.1498930     0.0955450
  H       -3.0298940     2.1496560     0.1007020
  H       -5.1606490     0.8856040     0.1349280
  H       -5.1606620    -0.8858980     0.1327310
  H       -4.7748820    -0.0019860     1.6139510
units angstrom
no_reorient  #important for SAPT in psi4, default
symmetry c1  #important for SAPT in psi4, default
}

set PROPERTIES_ORIGIN ["COM"]
properties('MP2/aug-cc-pvtz', properties = ['dipole'])
--------------------------------------------------------------------------

    Molecular point group: c1
  Charge       = 0
  Multiplicity = 1
  Basis Set: AUG-CC-PVTZ
    Blend: AUG-CC-PVTZ
  Basis Set: (AUG-CC-PVTZ AUX)
    Blend: AUG-CC-PVTZ-JKFIT

    Orbital Energies [Eh]
    ---------------------

    Doubly Occupied:

       1A    -92.216628     2A    -26.369228     3A    -26.369206
       4A    -26.365414     5A    -20.576497     6A    -20.576477
       7A    -11.545481     8A    -11.293684     9A    -11.288161
      10A    -11.286275    11A    -11.286168    12A    -11.264884
      13A    -11.264846    14A    -11.252645    15A     -9.185279
      16A     -6.870247    17A     -6.869294    18A     -6.869160
      19A     -1.754388    20A     -1.663049    21A     -1.661597
      22A     -1.466970    23A     -1.359947    24A     -1.197423
      25A     -1.101371    26A     -1.053269    27A     -1.038150
      28A     -0.980171    29A     -0.916412    30A     -0.868764
      31A     -0.854872    32A     -0.848140    33A     -0.842270
      34A     -0.796154    35A     -0.742243    36A     -0.734582
      37A     -0.724718    38A     -0.693677    39A     -0.690918
      40A     -0.682820    41A     -0.675680    42A     -0.670810
      43A     -0.666734    44A     -0.647916    45A     -0.639290
      46A     -0.624949    47A     -0.605162    48A     -0.569904
      49A     -0.546440    50A     -0.531204    51A     -0.525868
      52A     -0.524004    53A     -0.517338    54A     -0.499275
      55A     -0.467444    56A     -0.373723    57A     -0.371602

  @DF-RHF Final Energy: -1152.82596811418057

   => Energetics <=

    Nuclear Repulsion Energy =           1103.1712279956932434
    One-Electron Energy =               -3782.2367472390023977
    Two-Electron Energy =                1526.2395511291285857
    Total Energy =                      -1152.8259681141805686
  Basis Set: (AUG-CC-PVTZ AUX)
    Blend: AUG-CC-PVTZ-RI
    Molecular point group: c1

    Geometry (in Angstrom), charge = 0, multiplicity = 1:

       Center              X                  Y                   Z               Mass
    ------------   -----------------  -----------------  -----------------  -----------------
         S            1.114787677146     0.001061057556    -0.877358486493    31.972071174400
         F            1.458012677146    -1.093288942444     1.487850513507    18.998403162730
         F            3.185124677146    -0.000882942444     0.715703513507    18.998403162730
         F            1.458041677146     1.089708057556     1.490476513507    18.998403162730
         O            1.485565677146    -1.285605942444    -1.470016486493    15.994914619570
         O            1.485562677146     1.289157057556    -1.466906486493    15.994914619570
         C           -0.580668722854     0.000459657556    -0.381237986493    12.000000000000
         C           -1.271005322854    -1.220382942444    -0.345698486493    12.000000000000
         C           -1.271010322854     1.221213057556    -0.342770486493    12.000000000000
         C           -3.324798322854    -0.000158942444     0.131133513507    12.000000000000
         C            1.853257677146    -0.000986942444     0.817412513507    12.000000000000
         C           -2.629145322854    -1.206067942444    -0.034480486493    12.000000000000
         C           -2.629150322854     1.206147057556    -0.031587486493    12.000000000000
         C           -4.782668322854    -0.000613942444     0.507046513507    12.000000000000
         H           -0.735167322854    -2.153591942444    -0.495563486493     1.007825032230
         H           -0.735175322854     2.154781057556    -0.490397486493     1.007825032230
         H           -3.159281322854    -2.149870942444     0.077261513507     1.007825032230
         H           -3.159289322854     2.149678057556     0.082418513507     1.007825032230
         H           -5.290044322854     0.885626057556     0.116644513507     1.007825032230
         H           -5.290057322854    -0.885875942444     0.114447513507     1.007825032230
         H           -4.904277322854    -0.001963942444     1.595667513507     1.007825032230

  Basis Set: AUG-CC-PVTZ
    Blend: AUG-CC-PVTZ
  Basis Set: (AUG-CC-PVTZ AUX)
    Blend: AUG-CC-PVTZ-JKFIT
	 Reference Energy          =   -1152.8259681141805686 [Eh]
	 Singles Energy            =      -0.0000000000000000 [Eh]
	 Same-Spin Energy          =      -0.7700859927337755 [Eh]
	 Opposite-Spin Energy      =      -2.2437529580237876 [Eh]
	 Correlation Energy        =      -3.0138389507575631 [Eh]
	 Total Energy              =   -1155.8398070649382134 [Eh]

	 ================> DF-SCS-MP2 Energies <==================
	-----------------------------------------------------------
	 SCS Same-Spin Scale       =       0.3333333333333333 [-]
	 SCS Opposite-Spin Scale   =       1.2000000000000000 [-]
	 SCS Same-Spin Energy      =      -0.2566953309112585 [Eh]
	 SCS Opposite-Spin Energy  =      -2.6925035496285452 [Eh]
	 SCS Correlation Energy    =      -2.9491988805398037 [Eh]
	 SCS Total Energy          =   -1155.7751669947203936 [Eh]
	-----------------------------------------------------------

  Dipole Moment: [D]
     X:    -5.4380      Y:    -0.0024      Z:     2.0244     Total:     5.8025

*** Psi4 exiting successfully. Buy a developer a beer!
