                               Psi4 1.4a3.dev225

  ==> Input File <==

--------------------------------------------------------------------------
#psi4
#
memory 32 gb

molecule  {
0 1
  S        1.2441830     0.0010390    -0.8590750
  F        1.5874080    -1.0933110     1.5061340
  F        3.3145200    -0.0009050     0.7339870
  F        1.5874370     1.0896860     1.5087600
  O        1.6149610    -1.2856280    -1.4517330
  O        1.6149580     1.2891350    -1.4486230
  C       -0.4817510     0.0005820    -0.4824320
  C       -1.1416100    -1.2204050    -0.3274150
  C       -1.1416150     1.2211910    -0.3244870
  C       -3.1954030    -0.0001810     0.1494170
  C        1.9826530    -0.0010090     0.8356960
  C       -2.4997500    -1.2060900    -0.0161970
  C       -2.4997550     1.2061250    -0.0133040
  C       -4.6532730    -0.0006360     0.5253300
  H       -0.6057720    -2.1536140    -0.4772800
  H       -0.6057800     2.1547590    -0.4721140
  H       -3.0298860    -2.1498930     0.0955450
  H       -3.0298940     2.1496560     0.1007020
  H       -5.1606490     0.8856040     0.1349280
  H       -5.1606620    -0.8858980     0.1327310
  H       -4.7637801    -0.0018628     1.5145692
units angstrom
no_reorient  #important for SAPT in psi4, default
symmetry c1  #important for SAPT in psi4, default
}

set PROPERTIES_ORIGIN ["COM"]
properties('MP2/aug-cc-pvtz', properties = ['dipole'])
--------------------------------------------------------------------------

    Molecular point group: c1
  Charge       = 0
  Multiplicity = 1
  Basis Set: AUG-CC-PVTZ
    Blend: AUG-CC-PVTZ
  Basis Set: (AUG-CC-PVTZ AUX)
    Blend: AUG-CC-PVTZ-JKFIT

    Orbital Energies [Eh]
    ---------------------

    Doubly Occupied:

       1A    -92.216006     2A    -26.371358     3A    -26.371337
       4A    -26.368772     5A    -20.573825     6A    -20.573806
       7A    -11.549970     8A    -11.292843     9A    -11.286985
      10A    -11.284511    11A    -11.284409    12A    -11.264880
      13A    -11.264841    14A    -11.240376    15A     -9.184702
      16A     -6.869561    17A     -6.868834    18A     -6.868545
      19A     -1.756761    20A     -1.665076    21A     -1.664220
      22A     -1.465674    23A     -1.358244    24A     -1.197983
      25A     -1.102168    26A     -1.053441    27A     -1.040161
      28A     -0.986572    29A     -0.919266    30A     -0.869528
      31A     -0.857816    32A     -0.850447    33A     -0.845659
      34A     -0.796910    35A     -0.743111    36A     -0.736528
      37A     -0.726148    38A     -0.695370    39A     -0.693253
      40A     -0.683600    41A     -0.677951    42A     -0.671865
      43A     -0.666514    44A     -0.646916    45A     -0.640813
      46A     -0.625033    47A     -0.620129    48A     -0.569141
      49A     -0.545662    50A     -0.535128    51A     -0.526031
      52A     -0.522597    53A     -0.514634    54A     -0.496987
      55A     -0.467891    56A     -0.374772    57A     -0.372136

  @DF-RHF Final Energy: -1152.82459711521506

   => Energetics <=

    Nuclear Repulsion Energy =           1103.0634982819474317
    One-Electron Energy =               -3781.9407977838181978
    Two-Electron Energy =                1526.0527023866557101
    Total Energy =                      -1152.8245971152150560
  Basis Set: (AUG-CC-PVTZ AUX)
    Blend: AUG-CC-PVTZ-RI
    Molecular point group: c1

    Geometry (in Angstrom), charge = 0, multiplicity = 1:

       Center              X                  Y                   Z               Mass
    ------------   -----------------  -----------------  -----------------  -----------------
         S            1.116370371864     0.001052767978    -0.870511128975    31.972071174400
         F            1.459595371864    -1.093297232022     1.494697871025    18.998403162730
         F            3.186707371864    -0.000891232022     0.722550871025    18.998403162730
         F            1.459624371864     1.089699767978     1.497323871025    18.998403162730
         O            1.487148371864    -1.285614232022    -1.463169128975    15.994914619570
         O            1.487145371864     1.289148767978    -1.460059128975    15.994914619570
         C           -0.609563628136     0.000595767978    -0.493868128975    12.000000000000
         C           -1.269422628136    -1.220391232022    -0.338851128975    12.000000000000
         C           -1.269427628136     1.221204767978    -0.335923128975    12.000000000000
         C           -3.323215628136    -0.000167232022     0.137980871025    12.000000000000
         C            1.854840371864    -0.000995232022     0.824259871025    12.000000000000
         C           -2.627562628136    -1.206076232022    -0.027633128975    12.000000000000
         C           -2.627567628136     1.206138767978    -0.024740128975    12.000000000000
         C           -4.781085628136    -0.000622232022     0.513893871025    12.000000000000
         H           -0.733584628136    -2.153600232022    -0.488716128975     1.007825032230
         H           -0.733592628136     2.154772767978    -0.483550128975     1.007825032230
         H           -3.157698628136    -2.149879232022     0.084108871025     1.007825032230
         H           -3.157706628136     2.149669767978     0.089265871025     1.007825032230
         H           -5.288461628136     0.885617767978     0.123491871025     1.007825032230
         H           -5.288474628136    -0.885884232022     0.121294871025     1.007825032230
         H           -4.891592728136    -0.001849032022     1.503133071025     1.007825032230

  Basis Set: AUG-CC-PVTZ
    Blend: AUG-CC-PVTZ
  Basis Set: (AUG-CC-PVTZ AUX)
    Blend: AUG-CC-PVTZ-JKFIT
	 Reference Energy          =   -1152.8245971152150560 [Eh]
	 Singles Energy            =      -0.0000000000000000 [Eh]
	 Same-Spin Energy          =      -0.7696959664266783 [Eh]
	 Opposite-Spin Energy      =      -2.2422121601022309 [Eh]
	 Correlation Energy        =      -3.0119081265289092 [Eh]
	 Total Energy              =   -1155.8365052417439074 [Eh]

	 ================> DF-SCS-MP2 Energies <==================
	-----------------------------------------------------------
	 SCS Same-Spin Scale       =       0.3333333333333333 [-]
	 SCS Opposite-Spin Scale   =       1.2000000000000000 [-]
	 SCS Same-Spin Energy      =      -0.2565653221422260 [Eh]
	 SCS Opposite-Spin Energy  =      -2.6906545921226770 [Eh]
	 SCS Correlation Energy    =      -2.9472199142649029 [Eh]
	 SCS Total Energy          =   -1155.7718170294799620 [Eh]
	-----------------------------------------------------------

  Dipole Moment: [D]
     X:    -5.4385      Y:    -0.0026      Z:     2.1582     Total:     5.8511

*** Psi4 exiting successfully. Buy a developer a beer!
