                               Psi4 1.4a3.dev225

  ==> Input File <==

--------------------------------------------------------------------------
#psi4
#
memory 32 gb

molecule  {
0 1
  S        1.2441830     0.0010390    -0.8590750
  F        1.5874080    -1.0933110     1.5061340
  F        3.3145200    -0.0009050     0.7339870
  F        1.5874370     1.0896860     1.5087600
  O        1.6149610    -1.2856280    -1.4517330
  O        1.6149580     1.2891350    -1.4486230
  C       -0.4817510     0.0005820    -0.4824320
  C       -1.1416100    -1.2204050    -0.3274150
  C       -1.1420929     1.2455056    -0.3244451
  C       -3.1954030    -0.0001810     0.1494170
  C        1.9826530    -0.0010090     0.8356960
  C       -2.4997500    -1.2060900    -0.0161970
  C       -2.4997550     1.2061250    -0.0133040
  C       -4.6532730    -0.0006360     0.5253300
  H       -0.6057720    -2.1536140    -0.4772800
  H       -0.6057800     2.1547590    -0.4721140
  H       -3.0298860    -2.1498930     0.0955450
  H       -3.0298940     2.1496560     0.1007020
  H       -5.1606490     0.8856040     0.1349280
  H       -5.1606620    -0.8858980     0.1327310
  H       -4.7748820    -0.0019860     1.6139510
units angstrom
no_reorient  #important for SAPT in psi4, default
symmetry c1  #important for SAPT in psi4, default
}

set PROPERTIES_ORIGIN ["COM"]
properties('MP2/aug-cc-pvtz', properties = ['dipole'])
--------------------------------------------------------------------------

    Molecular point group: c1
  Charge       = 0
  Multiplicity = 1
  Basis Set: AUG-CC-PVTZ
    Blend: AUG-CC-PVTZ
  Basis Set: (AUG-CC-PVTZ AUX)
    Blend: AUG-CC-PVTZ-JKFIT

    Orbital Energies [Eh]
    ---------------------

    Doubly Occupied:

       1A    -92.215595     2A    -26.371180     3A    -26.371109
       4A    -26.368536     5A    -20.573636     6A    -20.573396
       7A    -11.549670     8A    -11.294786     9A    -11.288091
      10A    -11.285692    11A    -11.285122    12A    -11.265670
      13A    -11.265469    14A    -11.252732    15A     -9.184289
      16A     -6.869147    17A     -6.868416    18A     -6.868138
      19A     -1.756548    20A     -1.664880    21A     -1.664004
      22A     -1.465371    23A     -1.357987    24A     -1.196071
      25A     -1.099476    26A     -1.054364    27A     -1.038629
      28A     -0.980512    29A     -0.916678    30A     -0.869779
      31A     -0.857034    32A     -0.850246    33A     -0.845162
      34A     -0.796077    35A     -0.742665    36A     -0.736343
      37A     -0.725573    38A     -0.695176    39A     -0.693023
      40A     -0.682936    41A     -0.677744    42A     -0.674451
      43A     -0.666445    44A     -0.646931    45A     -0.637043
      46A     -0.627563    47A     -0.605088    48A     -0.569512
      49A     -0.546765    50A     -0.531102    51A     -0.527140
      52A     -0.522104    53A     -0.514067    54A     -0.496869
      55A     -0.467387    56A     -0.373918    57A     -0.371569

  @DF-RHF Final Energy: -1152.82952315427474

   => Energetics <=

    Nuclear Repulsion Energy =           1102.1044956165524127
    One-Electron Energy =               -3780.0782194762145991
    Two-Electron Energy =                1525.1442007053874477
    Total Energy =                      -1152.8295231542747388
  Basis Set: (AUG-CC-PVTZ AUX)
    Blend: AUG-CC-PVTZ-RI
    Molecular point group: c1

    Geometry (in Angstrom), charge = 0, multiplicity = 1:

       Center              X                  Y                   Z               Mass
    ------------   -----------------  -----------------  -----------------  -----------------
         S            1.116445919519    -0.000249176496    -0.870960490247    31.972071174400
         F            1.459670919519    -1.094599176496     1.494248509753    18.998403162730
         F            3.186782919519    -0.002193176496     0.722101509753    18.998403162730
         F            1.459699919519     1.088397823504     1.496874509753    18.998403162730
         O            1.487223919519    -1.286916176496    -1.463618490247    15.994914619570
         O            1.487220919519     1.287846823504    -1.460508490247    15.994914619570
         C           -0.609488080481    -0.000706176496    -0.494317490247    12.000000000000
         C           -1.269347080481    -1.221693176496    -0.339300490247    12.000000000000
         C           -1.269829980481     1.244217423504    -0.336330590247    12.000000000000
         C           -3.323140080481    -0.001469176496     0.137531509753    12.000000000000
         C            1.854915919519    -0.002297176496     0.823810509753    12.000000000000
         C           -2.627487080481    -1.207378176496    -0.028082490247    12.000000000000
         C           -2.627492080481     1.204836823504    -0.025189490247    12.000000000000
         C           -4.781010080481    -0.001924176496     0.513444509753    12.000000000000
         H           -0.733509080481    -2.154902176496    -0.489165490247     1.007825032230
         H           -0.733517080481     2.153470823504    -0.483999490247     1.007825032230
         H           -3.157623080481    -2.151181176496     0.083659509753     1.007825032230
         H           -3.157631080481     2.148367823504     0.088816509753     1.007825032230
         H           -5.288386080481     0.884315823504     0.123042509753     1.007825032230
         H           -5.288399080481    -0.887186176496     0.120845509753     1.007825032230
         H           -4.902619080481    -0.003274176496     1.602065509753     1.007825032230

  Basis Set: AUG-CC-PVTZ
    Blend: AUG-CC-PVTZ
  Basis Set: (AUG-CC-PVTZ AUX)
    Blend: AUG-CC-PVTZ-JKFIT
	 Reference Energy          =   -1152.8295231542747388 [Eh]
	 Singles Energy            =      -0.0000000000000000 [Eh]
	 Same-Spin Energy          =      -0.7696832992533673 [Eh]
	 Opposite-Spin Energy      =      -2.2428534471936188 [Eh]
	 Correlation Energy        =      -3.0125367464469859 [Eh]
	 Total Energy              =   -1155.8420599007217788 [Eh]

	 ================> DF-SCS-MP2 Energies <==================
	-----------------------------------------------------------
	 SCS Same-Spin Scale       =       0.3333333333333333 [-]
	 SCS Opposite-Spin Scale   =       1.2000000000000000 [-]
	 SCS Same-Spin Energy      =      -0.2565610997511224 [Eh]
	 SCS Opposite-Spin Energy  =      -2.6914241366323424 [Eh]
	 SCS Correlation Energy    =      -2.9479852363834649 [Eh]
	 SCS Total Energy          =   -1155.7775083906581131 [Eh]
	-----------------------------------------------------------

  Dipole Moment: [D]
     X:    -5.4435      Y:    -0.0076      Z:     2.1379     Total:     5.8482

*** Psi4 exiting successfully. Buy a developer a beer!
