                               Psi4 1.4a3.dev225

  ==> Input File <==

--------------------------------------------------------------------------
#psi4
#
memory 32 gb

molecule  {
0 1
  S        1.2441830     0.0010390    -0.8590750
  F        1.5874080    -1.0933110     1.5061340
  F        3.3145200    -0.0009050     0.7339870
  F        1.5874370     1.0896860     1.5087600
  O        1.6149610    -1.2856280    -1.4517330
  O        1.6149580     1.2891350    -1.4486230
  C       -0.4817510     0.0005820    -0.4824320
  C       -1.1888604    -1.3078360    -0.3163147
  C       -1.1416150     1.2211910    -0.3244870
  C       -3.1954030    -0.0001810     0.1494170
  C        1.9826530    -0.0010090     0.8356960
  C       -2.4997500    -1.2060900    -0.0161970
  C       -2.4997550     1.2061250    -0.0133040
  C       -4.6532730    -0.0006360     0.5253300
  H       -0.6057720    -2.1536140    -0.4772800
  H       -0.6057800     2.1547590    -0.4721140
  H       -3.0298860    -2.1498930     0.0955450
  H       -3.0298940     2.1496560     0.1007020
  H       -5.1606490     0.8856040     0.1349280
  H       -5.1606620    -0.8858980     0.1327310
  H       -4.7748820    -0.0019860     1.6139510
units angstrom
no_reorient  #important for SAPT in psi4, default
symmetry c1  #important for SAPT in psi4, default
}

set PROPERTIES_ORIGIN ["COM"]
properties('MP2/aug-cc-pvtz', properties = ['dipole'])
--------------------------------------------------------------------------

    Molecular point group: c1
  Charge       = 0
  Multiplicity = 1
  Basis Set: AUG-CC-PVTZ
    Blend: AUG-CC-PVTZ
  Basis Set: (AUG-CC-PVTZ AUX)
    Blend: AUG-CC-PVTZ-JKFIT

    Orbital Energies [Eh]
    ---------------------

    Doubly Occupied:

       1A    -92.214907     2A    -26.370470     3A    -26.370193
       4A    -26.367703     5A    -20.572768     6A    -20.572412
       7A    -11.548665     8A    -11.298052     9A    -11.290671
      10A    -11.287350    11A    -11.286038    12A    -11.265505
      13A    -11.262213    14A    -11.253938    15A     -9.183413
      16A     -6.868282    17A     -6.867550    18A     -6.867291
      19A     -1.755723    20A     -1.664078    21A     -1.663194
      22A     -1.464266    23A     -1.357055    24A     -1.193597
      25A     -1.094985    26A     -1.061143    27A     -1.037916
      28A     -0.980350    29A     -0.915272    30A     -0.867157
      31A     -0.857675    32A     -0.849453    33A     -0.845304
      34A     -0.794308    35A     -0.741579    36A     -0.735593
      37A     -0.725335    38A     -0.694846    39A     -0.692922
      40A     -0.686766    41A     -0.677439    42A     -0.676430
      43A     -0.665577    44A     -0.647587    45A     -0.636199
      46A     -0.626350    47A     -0.606074    48A     -0.568056
      49A     -0.551676    50A     -0.528973    51A     -0.524404
      52A     -0.518708    53A     -0.511111    54A     -0.496176
      55A     -0.466008    56A     -0.382970    57A     -0.364389

  @DF-RHF Final Energy: -1152.81903053824954

   => Energetics <=

    Nuclear Repulsion Energy =           1100.6591893600436833
    One-Electron Energy =               -3777.2083128673534702
    Two-Electron Energy =                1523.7300929690600242
    Total Energy =                      -1152.8190305382495353
  Basis Set: (AUG-CC-PVTZ AUX)
    Blend: AUG-CC-PVTZ-RI
    Molecular point group: c1

    Geometry (in Angstrom), charge = 0, multiplicity = 1:

       Center              X                  Y                   Z               Mass
    ------------   -----------------  -----------------  -----------------  -----------------
         S            1.118951456222     0.005736877321    -0.871552873102    31.972071174400
         F            1.462176456222    -1.088613122679     1.493656126898    18.998403162730
         F            3.189288456222     0.003792877321     0.721509126898    18.998403162730
         F            1.462205456222     1.094383877321     1.496282126898    18.998403162730
         O            1.489729456222    -1.280930122679    -1.464210873102    15.994914619570
         O            1.489726456222     1.293832877321    -1.461100873102    15.994914619570
         C           -0.606982543778     0.005279877321    -0.494909873102    12.000000000000
         C           -1.314091943778    -1.303138122679    -0.328792573102    12.000000000000
         C           -1.266846543778     1.225888877321    -0.336964873102    12.000000000000
         C           -3.320634543778     0.004516877321     0.136939126898    12.000000000000
         C            1.857421456222     0.003688877321     0.823218126898    12.000000000000
         C           -2.624981543778    -1.201392122679    -0.028674873102    12.000000000000
         C           -2.624986543778     1.210822877321    -0.025781873102    12.000000000000
         C           -4.778504543778     0.004061877321     0.512852126898    12.000000000000
         H           -0.731003543778    -2.148916122679    -0.489757873102     1.007825032230
         H           -0.731011543778     2.159456877321    -0.484591873102     1.007825032230
         H           -3.155117543778    -2.145195122679     0.083067126898     1.007825032230
         H           -3.155125543778     2.154353877321     0.088224126898     1.007825032230
         H           -5.285880543778     0.890301877321     0.122450126898     1.007825032230
         H           -5.285893543778    -0.881200122679     0.120253126898     1.007825032230
         H           -4.900113543778     0.002711877321     1.601473126898     1.007825032230

  Basis Set: AUG-CC-PVTZ
    Blend: AUG-CC-PVTZ
  Basis Set: (AUG-CC-PVTZ AUX)
    Blend: AUG-CC-PVTZ-JKFIT
	 Reference Energy          =   -1152.8190305382495353 [Eh]
	 Singles Energy            =      -0.0000000000000000 [Eh]
	 Same-Spin Energy          =      -0.7694692172273268 [Eh]
	 Opposite-Spin Energy      =      -2.2434158245475104 [Eh]
	 Correlation Energy        =      -3.0128850417748372 [Eh]
	 Total Energy              =   -1155.8319155800243152 [Eh]

	 ================> DF-SCS-MP2 Energies <==================
	-----------------------------------------------------------
	 SCS Same-Spin Scale       =       0.3333333333333333 [-]
	 SCS Opposite-Spin Scale   =       1.2000000000000000 [-]
	 SCS Same-Spin Energy      =      -0.2564897390757755 [Eh]
	 SCS Opposite-Spin Energy  =      -2.6920989894570124 [Eh]
	 SCS Correlation Energy    =      -2.9485887285327879 [Eh]
	 SCS Total Energy          =   -1155.7676192667822761 [Eh]
	-----------------------------------------------------------

  Dipole Moment: [D]
     X:    -5.4813      Y:     0.0341      Z:     2.1434     Total:     5.8855

*** Psi4 exiting successfully. Buy a developer a beer!
