                               Psi4 1.4a3.dev225

  ==> Input File <==

--------------------------------------------------------------------------
#psi4
#
memory 32 gb

molecule  {
0 1
  S        1.2441830     0.0010390    -0.8590750
  F        1.5874080    -1.0933110     1.5061340
  F        3.3145200    -0.0009050     0.7339870
  F        1.5874370     1.0896860     1.5087600
  O        1.6149610    -1.2856280    -1.4517330
  O        1.6149580     1.2891350    -1.4486230
  C       -0.4817510     0.0005820    -0.4824320
  C       -1.1416100    -1.2204050    -0.3274150
  C       -1.1416150     1.2211910    -0.3244870
  C       -3.1747413     0.0121141     0.1448717
  C        1.9826530    -0.0010090     0.8356960
  C       -2.4997500    -1.2060900    -0.0161970
  C       -2.4997550     1.2061250    -0.0133040
  C       -4.6532730    -0.0006360     0.5253300
  H       -0.6057720    -2.1536140    -0.4772800
  H       -0.6057800     2.1547590    -0.4721140
  H       -3.0298860    -2.1498930     0.0955450
  H       -3.0298940     2.1496560     0.1007020
  H       -5.1606490     0.8856040     0.1349280
  H       -5.1606620    -0.8858980     0.1327310
  H       -4.7748820    -0.0019860     1.6139510
units angstrom
no_reorient  #important for SAPT in psi4, default
symmetry c1  #important for SAPT in psi4, default
}

set PROPERTIES_ORIGIN ["COM"]
properties('MP2/aug-cc-pvtz', properties = ['dipole'])
--------------------------------------------------------------------------

    Molecular point group: c1
  Charge       = 0
  Multiplicity = 1
  Basis Set: AUG-CC-PVTZ
    Blend: AUG-CC-PVTZ
  Basis Set: (AUG-CC-PVTZ AUX)
    Blend: AUG-CC-PVTZ-JKFIT

    Orbital Energies [Eh]
    ---------------------

    Doubly Occupied:

       1A    -92.216260     2A    -26.371546     3A    -26.371524
       4A    -26.368943     5A    -20.574057     6A    -20.574020
       7A    -11.550168     8A    -11.293114     9A    -11.285682
      10A    -11.285326    11A    -11.284133    12A    -11.265204
      13A    -11.263089    14A    -11.252555    15A     -9.184952
      16A     -6.869812    17A     -6.869085    18A     -6.868795
      19A     -1.756943    20A     -1.665263    21A     -1.664394
      22A     -1.465898    23A     -1.358463    24A     -1.199775
      25A     -1.099682    26A     -1.054816    27A     -1.038269
      28A     -0.979104    29A     -0.917359    30A     -0.871290
      31A     -0.857027    32A     -0.850630    33A     -0.845259
      34A     -0.797387    35A     -0.743173    36A     -0.736717
      37A     -0.725893    38A     -0.695576    39A     -0.693291
      40A     -0.684155    41A     -0.678134    42A     -0.670478
      43A     -0.666254    44A     -0.647107    45A     -0.639425
      46A     -0.626667    47A     -0.602895    48A     -0.568964
      49A     -0.540491    50A     -0.533287    51A     -0.529257
      52A     -0.522950    53A     -0.514505    54A     -0.497214
      55A     -0.467927    56A     -0.376784    57A     -0.372177

  @DF-RHF Final Energy: -1152.83038389991293

   => Energetics <=

    Nuclear Repulsion Energy =           1102.9269417272744249
    One-Electron Energy =               -3781.7083636028423825
    Two-Electron Energy =                1525.9510379756550265
    Total Energy =                      -1152.8303838999129312
  Basis Set: (AUG-CC-PVTZ AUX)
    Blend: AUG-CC-PVTZ-RI
    Molecular point group: c1

    Geometry (in Angstrom), charge = 0, multiplicity = 1:

       Center              X                  Y                   Z               Mass
    ------------   -----------------  -----------------  -----------------  -----------------
         S            1.115313501032     0.000394691127    -0.870714760428    31.972071174400
         F            1.458538501032    -1.093955308873     1.494494239572    18.998403162730
         F            3.185650501032    -0.001549308873     0.722347239572    18.998403162730
         F            1.458567501032     1.089041691127     1.497120239572    18.998403162730
         O            1.486091501032    -1.286272308873    -1.463372760428    15.994914619570
         O            1.486088501032     1.288490691127    -1.460262760428    15.994914619570
         C           -0.610620498968    -0.000062308873    -0.494071760428    12.000000000000
         C           -1.270479498968    -1.221049308873    -0.339054760428    12.000000000000
         C           -1.270484498968     1.220546691127    -0.336126760428    12.000000000000
         C           -3.303610798968     0.011469791127     0.133231939572    12.000000000000
         C            1.853783501032    -0.001653308873     0.824056239572    12.000000000000
         C           -2.628619498968    -1.206734308873    -0.027836760428    12.000000000000
         C           -2.628624498968     1.205480691127    -0.024943760428    12.000000000000
         C           -4.782142498968    -0.001280308873     0.513690239572    12.000000000000
         H           -0.734641498968    -2.154258308873    -0.488919760428     1.007825032230
         H           -0.734649498968     2.154114691127    -0.483753760428     1.007825032230
         H           -3.158755498968    -2.150537308873     0.083905239572     1.007825032230
         H           -3.158763498968     2.149011691127     0.089062239572     1.007825032230
         H           -5.289518498968     0.884959691127     0.123288239572     1.007825032230
         H           -5.289531498968    -0.886542308873     0.121091239572     1.007825032230
         H           -4.903751498968    -0.002630308873     1.602311239572     1.007825032230

  Basis Set: AUG-CC-PVTZ
    Blend: AUG-CC-PVTZ
  Basis Set: (AUG-CC-PVTZ AUX)
    Blend: AUG-CC-PVTZ-JKFIT
	 Reference Energy          =   -1152.8303838999129312 [Eh]
	 Singles Energy            =      -0.0000000000000000 [Eh]
	 Same-Spin Energy          =      -0.7694882523663934 [Eh]
	 Opposite-Spin Energy      =      -2.2424290452332700 [Eh]
	 Correlation Energy        =      -3.0119172975996635 [Eh]
	 Total Energy              =   -1155.8423011975125974 [Eh]

	 ================> DF-SCS-MP2 Energies <==================
	-----------------------------------------------------------
	 SCS Same-Spin Scale       =       0.3333333333333333 [-]
	 SCS Opposite-Spin Scale   =       1.2000000000000000 [-]
	 SCS Same-Spin Energy      =      -0.2564960841221311 [Eh]
	 SCS Opposite-Spin Energy  =      -2.6909148542799239 [Eh]
	 SCS Correlation Energy    =      -2.9474109384020553 [Eh]
	 SCS Total Energy          =   -1155.7777948383150033 [Eh]
	-----------------------------------------------------------

  Dipole Moment: [D]
     X:    -5.3790      Y:    -0.0067      Z:     2.1225     Total:     5.7826

*** Psi4 exiting successfully. Buy a developer a beer!
