                               Psi4 1.4a3.dev225

  ==> Input File <==

--------------------------------------------------------------------------
#psi4
#
memory 32 gb

molecule  {
0 1
  S        1.2441830     0.0010390    -0.8590750
  F        1.5874080    -1.0933110     1.5061340
  F        3.3145200    -0.0009050     0.7339870
  F        1.5874370     1.0896860     1.5087600
  O        1.5643193    -1.1098922    -1.3707865
  O        1.6149580     1.2891350    -1.4486230
  C       -0.4817510     0.0005820    -0.4824320
  C       -1.1416100    -1.2204050    -0.3274150
  C       -1.1416150     1.2211910    -0.3244870
  C       -3.1954030    -0.0001810     0.1494170
  C        1.9826530    -0.0010090     0.8356960
  C       -2.4997500    -1.2060900    -0.0161970
  C       -2.4997550     1.2061250    -0.0133040
  C       -4.6532730    -0.0006360     0.5253300
  H       -0.6057720    -2.1536140    -0.4772800
  H       -0.6057800     2.1547590    -0.4721140
  H       -3.0298860    -2.1498930     0.0955450
  H       -3.0298940     2.1496560     0.1007020
  H       -5.1606490     0.8856040     0.1349280
  H       -5.1606620    -0.8858980     0.1327310
  H       -4.7748820    -0.0019860     1.6139510
units angstrom
no_reorient  #important for SAPT in psi4, default
symmetry c1  #important for SAPT in psi4, default
}

set PROPERTIES_ORIGIN ["COM"]
properties('MP2/aug-cc-pvtz', properties = ['dipole'])
--------------------------------------------------------------------------

    Molecular point group: c1
  Charge       = 0
  Multiplicity = 1
  Basis Set: AUG-CC-PVTZ
    Blend: AUG-CC-PVTZ
  Basis Set: (AUG-CC-PVTZ AUX)
    Blend: AUG-CC-PVTZ-JKFIT

    Orbital Energies [Eh]
    ---------------------

    Doubly Occupied:

       1A    -92.189974     2A    -26.365862     3A    -26.362981
       4A    -26.360497     5A    -20.579610     6A    -20.557980
       7A    -11.533868     8A    -11.282844     9A    -11.281685
      10A    -11.280443    11A    -11.277253    12A    -11.261908
      13A    -11.260449    14A    -11.249419    15A     -9.167694
      16A     -6.854748    17A     -6.850987    18A     -6.850081
      19A     -1.749856    20A     -1.659273    21A     -1.656400
      22A     -1.578913    23A     -1.377466    24A     -1.192877
      25A     -1.094330    26A     -1.049104    27A     -1.029759
      28A     -0.976403    29A     -0.907623    30A     -0.865353
      31A     -0.856073    32A     -0.843577    33A     -0.839414
      34A     -0.793930    35A     -0.755843    36A     -0.731099
      37A     -0.725868    38A     -0.702661    39A     -0.693733
      40A     -0.687172    41A     -0.685932    42A     -0.674497
      43A     -0.671612    44A     -0.665571    45A     -0.646234
      46A     -0.621010    47A     -0.601925    48A     -0.568059
      49A     -0.556751    50A     -0.546327    51A     -0.527895
      52A     -0.523292    53A     -0.521161    54A     -0.504513
      55A     -0.462417    56A     -0.368979    57A     -0.367961

  @DF-RHF Final Energy: -1152.78895886945361

   => Energetics <=

    Nuclear Repulsion Energy =           1114.3314684744887018
    One-Electron Energy =               -3804.5425631897387575
    Two-Electron Energy =                1537.4221358457964470
    Total Energy =                      -1152.7889588694536087
  Basis Set: (AUG-CC-PVTZ AUX)
    Blend: AUG-CC-PVTZ-RI
    Molecular point group: c1

    Geometry (in Angstrom), charge = 0, multiplicity = 1:

       Center              X                  Y                   Z               Mass
    ------------   -----------------  -----------------  -----------------  -----------------
         S            1.120036241824    -0.011494579458    -0.876737994220    31.972071174400
         F            1.463261241824    -1.105844579458     1.488471005780    18.998403162730
         F            3.190373241824    -0.013438579458     0.716324005780    18.998403162730
         F            1.463290241824     1.077152420542     1.491097005780    18.998403162730
         O            1.440172541824    -1.122425779458    -1.388449494220    15.994914619570
         O            1.490811241824     1.276601420542    -1.466285994220    15.994914619570
         C           -0.605897758176    -0.011951579458    -0.500094994220    12.000000000000
         C           -1.265756758176    -1.232938579458    -0.345077994220    12.000000000000
         C           -1.265761758176     1.208657420542    -0.342149994220    12.000000000000
         C           -3.319549758176    -0.012714579458     0.131754005780    12.000000000000
         C            1.858506241824    -0.013542579458     0.818033005780    12.000000000000
         C           -2.623896758176    -1.218623579458    -0.033859994220    12.000000000000
         C           -2.623901758176     1.193591420542    -0.030966994220    12.000000000000
         C           -4.777419758176    -0.013169579458     0.507667005780    12.000000000000
         H           -0.729918758176    -2.166147579458    -0.494942994220     1.007825032230
         H           -0.729926758176     2.142225420542    -0.489776994220     1.007825032230
         H           -3.154032758176    -2.162426579458     0.077882005780     1.007825032230
         H           -3.154040758176     2.137122420542     0.083039005780     1.007825032230
         H           -5.284795758176     0.873070420542     0.117265005780     1.007825032230
         H           -5.284808758176    -0.898431579458     0.115068005780     1.007825032230
         H           -4.899028758176    -0.014519579458     1.596288005780     1.007825032230

  Basis Set: AUG-CC-PVTZ
    Blend: AUG-CC-PVTZ
  Basis Set: (AUG-CC-PVTZ AUX)
    Blend: AUG-CC-PVTZ-JKFIT
	 Reference Energy          =   -1152.7889588694536087 [Eh]
	 Singles Energy            =      -0.0000000000000000 [Eh]
	 Same-Spin Energy          =      -0.7643121515257242 [Eh]
	 Opposite-Spin Energy      =      -2.2306014850488443 [Eh]
	 Correlation Energy        =      -2.9949136365745685 [Eh]
	 Total Energy              =   -1155.7838725060282741 [Eh]

	 ================> DF-SCS-MP2 Energies <==================
	-----------------------------------------------------------
	 SCS Same-Spin Scale       =       0.3333333333333333 [-]
	 SCS Opposite-Spin Scale   =       1.2000000000000000 [-]
	 SCS Same-Spin Energy      =      -0.2547707171752414 [Eh]
	 SCS Opposite-Spin Energy  =      -2.6767217820586131 [Eh]
	 SCS Correlation Energy    =      -2.9314924992338547 [Eh]
	 SCS Total Energy          =   -1155.7204513686874634 [Eh]
	-----------------------------------------------------------

  Dipole Moment: [D]
     X:    -4.9894      Y:    -0.7863      Z:     1.5790     Total:     5.2921

*** Psi4 exiting successfully. Buy a developer a beer!
