                               Psi4 1.4a3.dev225

  ==> Input File <==

--------------------------------------------------------------------------
#psi4
#
memory 32 gb

molecule  {
0 1
  S        1.2441830     0.0010390    -0.8590750
  F        1.5874080    -1.0933110     1.5061340
  F        3.3145200    -0.0009050     0.7339870
  F        1.5874370     1.0896860     1.5087600
  O        1.6149610    -1.2856280    -1.4517330
  O        1.6149580     1.2891350    -1.4486230
  C       -0.4817510     0.0005820    -0.4824320
  C       -1.1416100    -1.2204050    -0.3274150
  C       -1.1416150     1.2211910    -0.3244870
  C       -3.1954030    -0.0001810     0.1494170
  C        1.9826530    -0.0010090     0.8356960
  C       -2.4795097    -1.1934291    -0.0215604
  C       -2.4997550     1.2061250    -0.0133040
  C       -4.6532730    -0.0006360     0.5253300
  H       -0.6057720    -2.1536140    -0.4772800
  H       -0.6057800     2.1547590    -0.4721140
  H       -3.0298860    -2.1498930     0.0955450
  H       -3.0298940     2.1496560     0.1007020
  H       -5.1606490     0.8856040     0.1349280
  H       -5.1606620    -0.8858980     0.1327310
  H       -4.7748820    -0.0019860     1.6139510
units angstrom
no_reorient  #important for SAPT in psi4, default
symmetry c1  #important for SAPT in psi4, default
}

set PROPERTIES_ORIGIN ["COM"]
properties('MP2/aug-cc-pvtz', properties = ['dipole'])
--------------------------------------------------------------------------

    Molecular point group: c1
  Charge       = 0
  Multiplicity = 1
  Basis Set: AUG-CC-PVTZ
    Blend: AUG-CC-PVTZ
  Basis Set: (AUG-CC-PVTZ AUX)
    Blend: AUG-CC-PVTZ-JKFIT

    Orbital Energies [Eh]
    ---------------------

    Doubly Occupied:

       1A    -92.215878     2A    -26.371369     3A    -26.371308
       4A    -26.368740     5A    -20.573837     6A    -20.573682
       7A    -11.549925     8A    -11.292770     9A    -11.287785
      10A    -11.284561    11A    -11.281754    12A    -11.265025
      13A    -11.264561    14A    -11.253297    15A     -9.184587
      16A     -6.869446    17A     -6.868716    18A     -6.868430
      19A     -1.756745    20A     -1.665069    21A     -1.664197
      22A     -1.465621    23A     -1.358197    24A     -1.199932
      25A     -1.100465    26A     -1.055683    27A     -1.039180
      28A     -0.981625    29A     -0.917312    30A     -0.867859
      31A     -0.857374    32A     -0.850433    33A     -0.845472
      34A     -0.796560    35A     -0.742956    36A     -0.736538
      37A     -0.725877    38A     -0.695507    39A     -0.693181
      40A     -0.684951    41A     -0.677950    42A     -0.670511
      43A     -0.666100    44A     -0.647227    45A     -0.636620
      46A     -0.624700    47A     -0.605531    48A     -0.569955
      49A     -0.548189    50A     -0.534071    51A     -0.523887
      52A     -0.521286    53A     -0.514717    54A     -0.497001
      55A     -0.467919    56A     -0.374578    57A     -0.373369

  @DF-RHF Final Energy: -1152.82983912420400

   => Energetics <=

    Nuclear Repulsion Energy =           1103.0953386260443949
    One-Electron Energy =               -3782.0503214068339730
    Two-Electron Energy =                1526.1251436565855784
    Total Energy =                      -1152.8298391242039997
  Basis Set: (AUG-CC-PVTZ AUX)
    Blend: AUG-CC-PVTZ-RI
    Molecular point group: c1

    Geometry (in Angstrom), charge = 0, multiplicity = 1:

       Center              X                  Y                   Z               Mass
    ------------   -----------------  -----------------  -----------------  -----------------
         S            1.115336074835     0.000375095738    -0.870670935968    31.972071174400
         F            1.458561074835    -1.093974904262     1.494538064032    18.998403162730
         F            3.185673074835    -0.001568904262     0.722391064032    18.998403162730
         F            1.458590074835     1.089022095738     1.497164064032    18.998403162730
         O            1.486114074835    -1.286291904262    -1.463328935968    15.994914619570
         O            1.486111074835     1.288471095738    -1.460218935968    15.994914619570
         C           -0.610597925165    -0.000081904262    -0.494027935968    12.000000000000
         C           -1.270456925165    -1.221068904262    -0.339010935968    12.000000000000
         C           -1.270461925165     1.220527095738    -0.336082935968    12.000000000000
         C           -3.324249925165    -0.000844904262     0.137821064032    12.000000000000
         C            1.853806074835    -0.001672904262     0.824100064032    12.000000000000
         C           -2.608356625165    -1.194093004262    -0.033156335968    12.000000000000
         C           -2.628601925165     1.205461095738    -0.024899935968    12.000000000000
         C           -4.782119925165    -0.001299904262     0.513734064032    12.000000000000
         H           -0.734618925165    -2.154277904262    -0.488875935968     1.007825032230
         H           -0.734626925165     2.154095095738    -0.483709935968     1.007825032230
         H           -3.158732925165    -2.150556904262     0.083949064032     1.007825032230
         H           -3.158740925165     2.148992095738     0.089106064032     1.007825032230
         H           -5.289495925165     0.884940095738     0.123332064032     1.007825032230
         H           -5.289508925165    -0.886561904262     0.121135064032     1.007825032230
         H           -4.903728925165    -0.002649904262     1.602355064032     1.007825032230

  Basis Set: AUG-CC-PVTZ
    Blend: AUG-CC-PVTZ
  Basis Set: (AUG-CC-PVTZ AUX)
    Blend: AUG-CC-PVTZ-JKFIT
	 Reference Energy          =   -1152.8298391242039997 [Eh]
	 Singles Energy            =      -0.0000000000000000 [Eh]
	 Same-Spin Energy          =      -0.7697552403629319 [Eh]
	 Opposite-Spin Energy      =      -2.2426801051724023 [Eh]
	 Correlation Energy        =      -3.0124353455353341 [Eh]
	 Total Energy              =   -1155.8422744697393227 [Eh]

	 ================> DF-SCS-MP2 Energies <==================
	-----------------------------------------------------------
	 SCS Same-Spin Scale       =       0.3333333333333333 [-]
	 SCS Opposite-Spin Scale   =       1.2000000000000000 [-]
	 SCS Same-Spin Energy      =      -0.2565850801209772 [Eh]
	 SCS Opposite-Spin Energy  =      -2.6912161262068826 [Eh]
	 SCS Correlation Energy    =      -2.9478012063278598 [Eh]
	 SCS Total Energy          =   -1155.7776403305317672 [Eh]
	-----------------------------------------------------------

  Dipole Moment: [D]
     X:    -5.4323      Y:     0.0158      Z:     2.1377     Total:     5.8378

*** Psi4 exiting successfully. Buy a developer a beer!
