                               Psi4 1.4a3.dev225

  ==> Input File <==

--------------------------------------------------------------------------
#psi4
#
memory 32 gb

molecule  {
0 1
  S        1.2441830     0.0010390    -0.8590750
  F        1.5874080    -1.0933110     1.5061340
  F        3.3145200    -0.0009050     0.7339870
  F        1.5874370     1.0896860     1.5087600
  O        1.5663386    -1.3312594    -1.3742726
  O        1.6149580     1.2891350    -1.4486230
  C       -0.4817510     0.0005820    -0.4824320
  C       -1.1416100    -1.2204050    -0.3274150
  C       -1.1416150     1.2211910    -0.3244870
  C       -3.1954030    -0.0001810     0.1494170
  C        1.9826530    -0.0010090     0.8356960
  C       -2.4997500    -1.2060900    -0.0161970
  C       -2.4997550     1.2061250    -0.0133040
  C       -4.6532730    -0.0006360     0.5253300
  H       -0.6057720    -2.1536140    -0.4772800
  H       -0.6057800     2.1547590    -0.4721140
  H       -3.0298860    -2.1498930     0.0955450
  H       -3.0298940     2.1496560     0.1007020
  H       -5.1606490     0.8856040     0.1349280
  H       -5.1606620    -0.8858980     0.1327310
  H       -4.7748820    -0.0019860     1.6139510
units angstrom
no_reorient  #important for SAPT in psi4, default
symmetry c1  #important for SAPT in psi4, default
}

set PROPERTIES_ORIGIN ["COM"]
properties('MP2/aug-cc-pvtz', properties = ['dipole'])
--------------------------------------------------------------------------

    Molecular point group: c1
  Charge       = 0
  Multiplicity = 1
  Basis Set: AUG-CC-PVTZ
    Blend: AUG-CC-PVTZ
  Basis Set: (AUG-CC-PVTZ AUX)
    Blend: AUG-CC-PVTZ-JKFIT

    Orbital Energies [Eh]
    ---------------------

    Doubly Occupied:

       1A    -92.217158     2A    -26.369727     3A    -26.369561
       4A    -26.367944     5A    -20.579802     6A    -20.574517
       7A    -11.548003     8A    -11.290695     9A    -11.286274
      10A    -11.283053    11A    -11.282589    12A    -11.263759
      13A    -11.263634    14A    -11.251537    15A     -9.185706
      16A     -6.870568    17A     -6.869928    18A     -6.869495
      19A     -1.755404    20A     -1.663492    21A     -1.663136
      22A     -1.467355    23A     -1.363929    24A     -1.196298
      25A     -1.098590    26A     -1.052113    27A     -1.037092
      28A     -0.979587    29A     -0.915862    30A     -0.868214
      31A     -0.855832    32A     -0.849014    33A     -0.843917
      34A     -0.796375    35A     -0.743078    36A     -0.735225
      37A     -0.725473    38A     -0.694107    39A     -0.692038
      40A     -0.683205    41A     -0.676712    42A     -0.670304
      43A     -0.665663    44A     -0.650181    45A     -0.637938
      46A     -0.623827    47A     -0.604019    48A     -0.569132
      49A     -0.544370    50A     -0.531034    51A     -0.527957
      52A     -0.524531    53A     -0.514661    54A     -0.501464
      55A     -0.466594    56A     -0.372558    57A     -0.370861

  @DF-RHF Final Energy: -1152.82847082903891

   => Energetics <=

    Nuclear Repulsion Energy =           1103.6572106348403395
    One-Electron Energy =               -3783.2211792989260175
    Two-Electron Energy =                1526.7354978350467718
    Total Energy =                      -1152.8284708290389062
  Basis Set: (AUG-CC-PVTZ AUX)
    Blend: AUG-CC-PVTZ-RI
    Molecular point group: c1

    Geometry (in Angstrom), charge = 0, multiplicity = 1:

       Center              X                  Y                   Z               Mass
    ------------   -----------------  -----------------  -----------------  -----------------
         S            1.119892059603     0.004311499141    -0.876489079428    31.972071174400
         F            1.463117059603    -1.090038500859     1.488719920572    18.998403162730
         F            3.190229059603     0.002367499141     0.716572920572    18.998403162730
         F            1.463146059603     1.092958499141     1.491345920572    18.998403162730
         O            1.442047659603    -1.327986900859    -1.391686679428    15.994914619570
         O            1.490667059603     1.292407499141    -1.466037079428    15.994914619570
         C           -0.606041940397     0.003854499141    -0.499846079428    12.000000000000
         C           -1.265900940397    -1.217132500859    -0.344829079428    12.000000000000
         C           -1.265905940397     1.224463499141    -0.341901079428    12.000000000000
         C           -3.319693940397     0.003091499141     0.132002920572    12.000000000000
         C            1.858362059603     0.002263499141     0.818281920572    12.000000000000
         C           -2.624040940397    -1.202817500859    -0.033611079428    12.000000000000
         C           -2.624045940397     1.209397499141    -0.030718079428    12.000000000000
         C           -4.777563940397     0.002636499141     0.507915920572    12.000000000000
         H           -0.730062940397    -2.150341500859    -0.494694079428     1.007825032230
         H           -0.730070940397     2.158031499141    -0.489528079428     1.007825032230
         H           -3.154176940397    -2.146620500859     0.078130920572     1.007825032230
         H           -3.154184940397     2.152928499141     0.083287920572     1.007825032230
         H           -5.284939940397     0.888876499141     0.117513920572     1.007825032230
         H           -5.284952940397    -0.882625500859     0.115316920572     1.007825032230
         H           -4.899172940397     0.001286499141     1.596536920572     1.007825032230

  Basis Set: AUG-CC-PVTZ
    Blend: AUG-CC-PVTZ
  Basis Set: (AUG-CC-PVTZ AUX)
    Blend: AUG-CC-PVTZ-JKFIT
	 Reference Energy          =   -1152.8284708290389062 [Eh]
	 Singles Energy            =      -0.0000000000000000 [Eh]
	 Same-Spin Energy          =      -0.7700568933749603 [Eh]
	 Opposite-Spin Energy      =      -2.2433263361717026 [Eh]
	 Correlation Energy        =      -3.0133832295466627 [Eh]
	 Total Energy              =   -1155.8418540585855681 [Eh]

	 ================> DF-SCS-MP2 Energies <==================
	-----------------------------------------------------------
	 SCS Same-Spin Scale       =       0.3333333333333333 [-]
	 SCS Opposite-Spin Scale   =       1.2000000000000000 [-]
	 SCS Same-Spin Energy      =      -0.2566856311249868 [Eh]
	 SCS Opposite-Spin Energy  =      -2.6919916034060432 [Eh]
	 SCS Correlation Energy    =      -2.9486772345310297 [Eh]
	 SCS Total Energy          =   -1155.7771480635699390 [Eh]
	-----------------------------------------------------------

  Dipole Moment: [D]
     X:    -5.2633      Y:     0.0892      Z:     1.9451     Total:     5.6119

*** Psi4 exiting successfully. Buy a developer a beer!
