                               Psi4 1.4a3.dev225

  ==> Input File <==

--------------------------------------------------------------------------
#psi4
#
memory 32 gb

molecule  {
0 1
  S        1.2441830     0.0010390    -0.8590750
  F        1.5874080    -1.0933110     1.5061340
  F        3.3145200    -0.0009050     0.7339870
  F        1.5874370     1.0896860     1.5087600
  O        1.5414237    -1.3516537    -1.3345770
  O        1.6149580     1.2891350    -1.4486230
  C       -0.4817510     0.0005820    -0.4824320
  C       -1.1416100    -1.2204050    -0.3274150
  C       -1.1416150     1.2211910    -0.3244870
  C       -3.1954030    -0.0001810     0.1494170
  C        1.9826530    -0.0010090     0.8356960
  C       -2.4997500    -1.2060900    -0.0161970
  C       -2.4997550     1.2061250    -0.0133040
  C       -4.6532730    -0.0006360     0.5253300
  H       -0.6057720    -2.1536140    -0.4772800
  H       -0.6057800     2.1547590    -0.4721140
  H       -3.0298860    -2.1498930     0.0955450
  H       -3.0298940     2.1496560     0.1007020
  H       -5.1606490     0.8856040     0.1349280
  H       -5.1606620    -0.8858980     0.1327310
  H       -4.7748820    -0.0019860     1.6139510
units angstrom
no_reorient  #important for SAPT in psi4, default
symmetry c1  #important for SAPT in psi4, default
}

set PROPERTIES_ORIGIN ["COM"]
properties('MP2/aug-cc-pvtz', properties = ['dipole'])
--------------------------------------------------------------------------

    Molecular point group: c1
  Charge       = 0
  Multiplicity = 1
  Basis Set: AUG-CC-PVTZ
    Blend: AUG-CC-PVTZ
  Basis Set: (AUG-CC-PVTZ AUX)
    Blend: AUG-CC-PVTZ-JKFIT

    Orbital Energies [Eh]
    ---------------------

    Doubly Occupied:

       1A    -92.217620     2A    -26.368864     3A    -26.368604
       4A    -26.367493     5A    -20.582623     6A    -20.574707
       7A    -11.546984     8A    -11.289519     9A    -11.285617
      10A    -11.282239    11A    -11.281547    12A    -11.263057
      13A    -11.262874    14A    -11.251076    15A     -9.186113
      16A     -6.870973    17A     -6.870377    18A     -6.869871
      19A     -1.754682    20A     -1.662826    21A     -1.662374
      22A     -1.468178    23A     -1.366552    24A     -1.195405
      25A     -1.097490    26A     -1.051334    27A     -1.036092
      28A     -0.978924    29A     -0.915202    30A     -0.867432
      31A     -0.855326    32A     -0.848250    33A     -0.843350
      34A     -0.796146    35A     -0.743171    36A     -0.734530
      37A     -0.725294    38A     -0.693429    39A     -0.691443
      40A     -0.682927    41A     -0.676040    42A     -0.669835
      43A     -0.665188    44A     -0.651566    45A     -0.637511
      46A     -0.623117    47A     -0.603526    48A     -0.568709
      49A     -0.543794    50A     -0.530660    51A     -0.529571
      52A     -0.524024    53A     -0.514534    54A     -0.503213
      55A     -0.465823    56A     -0.371823    57A     -0.370109

  @DF-RHF Final Energy: -1152.82648914800507

   => Energetics <=

    Nuclear Repulsion Energy =           1104.2368733576322484
    One-Electron Energy =               -3784.4076144757918883
    Two-Electron Energy =                1527.3442519701545734
    Total Energy =                      -1152.8264891480050665
  Basis Set: (AUG-CC-PVTZ AUX)
    Blend: AUG-CC-PVTZ-RI
    Molecular point group: c1

    Geometry (in Angstrom), charge = 0, multiplicity = 1:

       Center              X                  Y                   Z               Mass
    ------------   -----------------  -----------------  -----------------  -----------------
         S            1.121671035295     0.005767694588    -0.879323427848    31.972071174400
         F            1.464896035295    -1.088582305412     1.485885572152    18.998403162730
         F            3.192008035295     0.003823694588     0.713738572152    18.998403162730
         F            1.464925035295     1.094414694588     1.488511572152    18.998403162730
         O            1.418911735295    -1.346925005412    -1.354825427848    15.994914619570
         O            1.492446035295     1.293863694588    -1.468871427848    15.994914619570
         C           -0.604262964705     0.005310694588    -0.502680427848    12.000000000000
         C           -1.264121964705    -1.215676305412    -0.347663427848    12.000000000000
         C           -1.264126964705     1.225919694588    -0.344735427848    12.000000000000
         C           -3.317914964705     0.004547694588     0.129168572152    12.000000000000
         C            1.860141035295     0.003719694588     0.815447572152    12.000000000000
         C           -2.622261964705    -1.201361305412    -0.036445427848    12.000000000000
         C           -2.622266964705     1.210853694588    -0.033552427848    12.000000000000
         C           -4.775784964705     0.004092694588     0.505081572152    12.000000000000
         H           -0.728283964705    -2.148885305412    -0.497528427848     1.007825032230
         H           -0.728291964705     2.159487694588    -0.492362427848     1.007825032230
         H           -3.152397964705    -2.145164305412     0.075296572152     1.007825032230
         H           -3.152405964705     2.154384694588     0.080453572152     1.007825032230
         H           -5.283160964705     0.890332694588     0.114679572152     1.007825032230
         H           -5.283173964705    -0.881169305412     0.112482572152     1.007825032230
         H           -4.897393964705     0.002742694588     1.593702572152     1.007825032230

  Basis Set: AUG-CC-PVTZ
    Blend: AUG-CC-PVTZ
  Basis Set: (AUG-CC-PVTZ AUX)
    Blend: AUG-CC-PVTZ-JKFIT
	 Reference Energy          =   -1152.8264891480050665 [Eh]
	 Singles Energy            =      -0.0000000000000000 [Eh]
	 Same-Spin Energy          =      -0.7702947604806361 [Eh]
	 Opposite-Spin Energy      =      -2.2437532513918144 [Eh]
	 Correlation Energy        =      -3.0140480118724504 [Eh]
	 Total Energy              =   -1155.8405371598776128 [Eh]

	 ================> DF-SCS-MP2 Energies <==================
	-----------------------------------------------------------
	 SCS Same-Spin Scale       =       0.3333333333333333 [-]
	 SCS Opposite-Spin Scale   =       1.2000000000000000 [-]
	 SCS Same-Spin Energy      =      -0.2567649201602120 [Eh]
	 SCS Opposite-Spin Energy  =      -2.6925039016701771 [Eh]
	 SCS Correlation Energy    =      -2.9492688218303891 [Eh]
	 SCS Total Energy          =   -1155.7757579698354675 [Eh]
	-----------------------------------------------------------

  Dipole Moment: [D]
     X:    -5.1812      Y:     0.1296      Z:     1.8478     Total:     5.5024

*** Psi4 exiting successfully. Buy a developer a beer!
