                               Psi4 1.4a3.dev225

  ==> Input File <==

--------------------------------------------------------------------------
#psi4
#
memory 32 gb

molecule  {
0 1
  S        1.2441830     0.0010390    -0.8590750
  F        1.5874080    -1.0933110     1.5061340
  F        3.3145200    -0.0009050     0.7339870
  F        1.5874370     1.0896860     1.5087600
  O        1.6149610    -1.2856280    -1.4517330
  O        1.6149580     1.2891350    -1.4486230
  C       -0.4817510     0.0005820    -0.4824320
  C       -1.1416100    -1.2204050    -0.3274150
  C       -1.1416150     1.2211910    -0.3244870
  C       -3.1954030    -0.0001810     0.1494170
  C        1.9826530    -0.0010090     0.8356960
  C       -2.5493689    -1.1200759    -0.0043842
  C       -2.4997550     1.2061250    -0.0133040
  C       -4.6532730    -0.0006360     0.5253300
  H       -0.6057720    -2.1536140    -0.4772800
  H       -0.6057800     2.1547590    -0.4721140
  H       -3.0298860    -2.1498930     0.0955450
  H       -3.0298940     2.1496560     0.1007020
  H       -5.1606490     0.8856040     0.1349280
  H       -5.1606620    -0.8858980     0.1327310
  H       -4.7748820    -0.0019860     1.6139510
units angstrom
no_reorient  #important for SAPT in psi4, default
symmetry c1  #important for SAPT in psi4, default
}

set PROPERTIES_ORIGIN ["COM"]
properties('MP2/aug-cc-pvtz', properties = ['dipole'])
--------------------------------------------------------------------------

    Molecular point group: c1
  Charge       = 0
  Multiplicity = 1
  Basis Set: AUG-CC-PVTZ
    Blend: AUG-CC-PVTZ
  Basis Set: (AUG-CC-PVTZ AUX)
    Blend: AUG-CC-PVTZ-JKFIT

    Orbital Energies [Eh]
    ---------------------

    Doubly Occupied:

       1A    -92.216847     2A    -26.372265     3A    -26.372239
       4A    -26.369731     5A    -20.575141     6A    -20.574839
       7A    -11.551068     8A    -11.295298     9A    -11.293209
      10A    -11.280719    11A    -11.272332    12A    -11.266328
      13A    -11.263827    14A    -11.250070    15A     -9.185692
      16A     -6.870544    17A     -6.869807    18A     -6.869510
      19A     -1.757684    20A     -1.665979    21A     -1.665136
      22A     -1.466882    23A     -1.359414    24A     -1.204189
      25A     -1.109334    26A     -1.047712    27A     -1.038842
      28A     -0.979990    29A     -0.920858    30A     -0.876665
      31A     -0.857229    32A     -0.851352    33A     -0.845300
      34A     -0.793163    35A     -0.743514    36A     -0.737458
      37A     -0.726114    38A     -0.696433    39A     -0.694033
      40A     -0.686479    41A     -0.678865    42A     -0.671243
      43A     -0.667070    44A     -0.648531    45A     -0.638478
      46A     -0.618175    47A     -0.606213    48A     -0.564705
      49A     -0.549057    50A     -0.533964    51A     -0.526458
      52A     -0.522355    53A     -0.511761    54A     -0.498057
      55A     -0.466305    56A     -0.387872    57A     -0.364913

  @DF-RHF Final Energy: -1152.81660355991039

   => Energetics <=

    Nuclear Repulsion Energy =           1103.4597858956731216
    One-Electron Energy =               -3782.6982836410020354
    Two-Electron Energy =                1526.4218941854185232
    Total Energy =                      -1152.8166035599103907
  Basis Set: (AUG-CC-PVTZ AUX)
    Blend: AUG-CC-PVTZ-RI
    Molecular point group: c1

    Geometry (in Angstrom), charge = 0, multiplicity = 1:

       Center              X                  Y                   Z               Mass
    ------------   -----------------  -----------------  -----------------  -----------------
         S            1.119078333418    -0.003554331486    -0.871591040720    31.972071174400
         F            1.462303333418    -1.097904331486     1.493617959280    18.998403162730
         F            3.189415333418    -0.005498331486     0.721470959280    18.998403162730
         F            1.462332333418     1.085092668514     1.496243959280    18.998403162730
         O            1.489856333418    -1.290221331486    -1.464249040720    15.994914619570
         O            1.489853333418     1.284541668514    -1.461139040720    15.994914619570
         C           -0.606855666582    -0.004011331486    -0.494948040720    12.000000000000
         C           -1.266714666582    -1.224998331486    -0.339931040720    12.000000000000
         C           -1.266719666582     1.216597668514    -0.337003040720    12.000000000000
         C           -3.320507666582    -0.004774331486     0.136900959280    12.000000000000
         C            1.857548333418    -0.005602331486     0.823179959280    12.000000000000
         C           -2.674473566582    -1.124669231486    -0.016900240720    12.000000000000
         C           -2.624859666582     1.201531668514    -0.025820040720    12.000000000000
         C           -4.778377666582    -0.005229331486     0.512813959280    12.000000000000
         H           -0.730876666582    -2.158207331486    -0.489796040720     1.007825032230
         H           -0.730884666582     2.150165668514    -0.484630040720     1.007825032230
         H           -3.154990666582    -2.154486331486     0.083028959280     1.007825032230
         H           -3.154998666582     2.145062668514     0.088185959280     1.007825032230
         H           -5.285753666582     0.881010668514     0.122411959280     1.007825032230
         H           -5.285766666582    -0.890491331486     0.120214959280     1.007825032230
         H           -4.899986666582    -0.006579331486     1.601434959280     1.007825032230

  Basis Set: AUG-CC-PVTZ
    Blend: AUG-CC-PVTZ
  Basis Set: (AUG-CC-PVTZ AUX)
    Blend: AUG-CC-PVTZ-JKFIT
	 Reference Energy          =   -1152.8166035599103907 [Eh]
	 Singles Energy            =      -0.0000000000000000 [Eh]
	 Same-Spin Energy          =      -0.7698425150199368 [Eh]
	 Opposite-Spin Energy      =      -2.2434499831113621 [Eh]
	 Correlation Energy        =      -3.0132924981312987 [Eh]
	 Total Energy              =   -1155.8298960580416406 [Eh]

	 ================> DF-SCS-MP2 Energies <==================
	-----------------------------------------------------------
	 SCS Same-Spin Scale       =       0.3333333333333333 [-]
	 SCS Opposite-Spin Scale   =       1.2000000000000000 [-]
	 SCS Same-Spin Energy      =      -0.2566141716733122 [Eh]
	 SCS Opposite-Spin Energy  =      -2.6921399797336343 [Eh]
	 SCS Correlation Energy    =      -2.9487541514069466 [Eh]
	 SCS Total Energy          =   -1155.7653577113173924 [Eh]
	-----------------------------------------------------------

  Dipole Moment: [D]
     X:    -5.3197      Y:     0.0108      Z:     2.1111     Total:     5.7233

*** Psi4 exiting successfully. Buy a developer a beer!
