                               Psi4 1.4a3.dev225

  ==> Input File <==

--------------------------------------------------------------------------
#psi4
#
memory 32 gb

molecule  {
0 1
  S        1.2441830     0.0010390    -0.8590750
  F        1.5874080    -1.0933110     1.5061340
  F        3.3145200    -0.0009050     0.7339870
  F        1.5874370     1.0896860     1.5087600
  O        1.6149610    -1.2856280    -1.4517330
  O        1.6149580     1.2891350    -1.4486230
  C       -0.4817510     0.0005820    -0.4824320
  C       -1.1416100    -1.2204050    -0.3274150
  C       -1.1416150     1.2211910    -0.3244870
  C       -3.1954030    -0.0001810     0.1494170
  C        1.9826530    -0.0010090     0.8356960
  C       -2.4997500    -1.2060900    -0.0161970
  C       -2.4997550     1.2061250    -0.0133040
  C       -4.6532730    -0.0006360     0.5253300
  H       -0.6057720    -2.1536140    -0.4772800
  H       -0.6057800     2.1547590    -0.4721140
  H       -3.0298860    -2.1498930     0.0955450
  H       -3.0298940     2.1496560     0.1007020
  H       -5.1513673     0.8693915     0.1420698
  H       -5.1606620    -0.8858980     0.1327310
  H       -4.7748820    -0.0019860     1.6139510
units angstrom
no_reorient  #important for SAPT in psi4, default
symmetry c1  #important for SAPT in psi4, default
}

set PROPERTIES_ORIGIN ["COM"]
properties('MP2/aug-cc-pvtz', properties = ['dipole'])
--------------------------------------------------------------------------

    Molecular point group: c1
  Charge       = 0
  Multiplicity = 1
  Basis Set: AUG-CC-PVTZ
    Blend: AUG-CC-PVTZ
  Basis Set: (AUG-CC-PVTZ AUX)
    Blend: AUG-CC-PVTZ-JKFIT

    Orbital Energies [Eh]
    ---------------------

    Doubly Occupied:

       1A    -92.216062     2A    -26.371383     3A    -26.371362
       4A    -26.368798     5A    -20.573881     6A    -20.573862
       7A    -11.550001     8A    -11.292943     9A    -11.287386
      10A    -11.284608    11A    -11.284492    12A    -11.265080
      13A    -11.264964    14A    -11.250037    15A     -9.184758
      16A     -6.869618    17A     -6.868890    18A     -6.868601
      19A     -1.756786    20A     -1.665100    21A     -1.664245
      22A     -1.465728    23A     -1.358299    24A     -1.197979
      25A     -1.100913    26A     -1.053562    27A     -1.039187
      28A     -0.981833    29A     -0.917544    30A     -0.869705
      31A     -0.856987    32A     -0.850472    33A     -0.845137
      34A     -0.796841    35A     -0.742986    36A     -0.736557
      37A     -0.725765    38A     -0.695429    39A     -0.693175
      40A     -0.684070    41A     -0.677981    42A     -0.671403
      43A     -0.666398    44A     -0.647157    45A     -0.638780
      46A     -0.625171    47A     -0.605725    48A     -0.572230
      49A     -0.545679    50A     -0.532616    51A     -0.526537
      52A     -0.522659    53A     -0.514660    54A     -0.497053
      55A     -0.467961    56A     -0.373955    57A     -0.372247

  @DF-RHF Final Energy: -1152.83059853222994

   => Energetics <=

    Nuclear Repulsion Energy =           1102.6827451071512769
    One-Electron Energy =               -3781.2202076946196030
    Two-Electron Energy =                1525.7068640552383840
    Total Energy =                      -1152.8305985322299421
  Basis Set: (AUG-CC-PVTZ AUX)
    Blend: AUG-CC-PVTZ-RI
    Molecular point group: c1

    Geometry (in Angstrom), charge = 0, multiplicity = 1:

       Center              X                  Y                   Z               Mass
    ------------   -----------------  -----------------  -----------------  -----------------
         S            1.116378560907     0.001126261969    -0.870990376540    31.972071174400
         F            1.459603560907    -1.093223738031     1.494218623460    18.998403162730
         F            3.186715560907    -0.000817738031     0.722071623460    18.998403162730
         F            1.459632560907     1.089773261969     1.496844623460    18.998403162730
         O            1.487156560907    -1.285540738031    -1.463648376540    15.994914619570
         O            1.487153560907     1.289222261969    -1.460538376540    15.994914619570
         C           -0.609555439093     0.000669261969    -0.494347376540    12.000000000000
         C           -1.269414439093    -1.220317738031    -0.339330376540    12.000000000000
         C           -1.269419439093     1.221278261969    -0.336402376540    12.000000000000
         C           -3.323207439093    -0.000093738031     0.137501623460    12.000000000000
         C            1.854848560907    -0.000921738031     0.823780623460    12.000000000000
         C           -2.627554439093    -1.206002738031    -0.028112376540    12.000000000000
         C           -2.627559439093     1.206212261969    -0.025219376540    12.000000000000
         C           -4.781077439093    -0.000548738031     0.513414623460    12.000000000000
         H           -0.733576439093    -2.153526738031    -0.489195376540     1.007825032230
         H           -0.733584439093     2.154846261969    -0.484029376540     1.007825032230
         H           -3.157690439093    -2.149805738031     0.083629623460     1.007825032230
         H           -3.157698439093     2.149743261969     0.088786623460     1.007825032230
         H           -5.279171739093     0.869478761969     0.130154423460     1.007825032230
         H           -5.288466439093    -0.885810738031     0.120815623460     1.007825032230
         H           -4.902686439093    -0.001898738031     1.602035623460     1.007825032230

  Basis Set: AUG-CC-PVTZ
    Blend: AUG-CC-PVTZ
  Basis Set: (AUG-CC-PVTZ AUX)
    Blend: AUG-CC-PVTZ-JKFIT
	 Reference Energy          =   -1152.8305985322299421 [Eh]
	 Singles Energy            =      -0.0000000000000000 [Eh]
	 Same-Spin Energy          =      -0.7696764008677131 [Eh]
	 Opposite-Spin Energy      =      -2.2425552784241440 [Eh]
	 Correlation Energy        =      -3.0122316792918573 [Eh]
	 Total Energy              =   -1155.8428302115216866 [Eh]

	 ================> DF-SCS-MP2 Energies <==================
	-----------------------------------------------------------
	 SCS Same-Spin Scale       =       0.3333333333333333 [-]
	 SCS Opposite-Spin Scale   =       1.2000000000000000 [-]
	 SCS Same-Spin Energy      =      -0.2565588002892377 [Eh]
	 SCS Opposite-Spin Energy  =      -2.6910663341089727 [Eh]
	 SCS Correlation Energy    =      -2.9476251343982103 [Eh]
	 SCS Total Energy          =   -1155.7782236666282643 [Eh]
	-----------------------------------------------------------

  Dipole Moment: [D]
     X:    -5.4301      Y:     0.0026      Z:     2.1342     Total:     5.8345

*** Psi4 exiting successfully. Buy a developer a beer!
