                               Psi4 1.4a3.dev225

  ==> Input File <==

--------------------------------------------------------------------------
#psi4
#
memory 32 gb

molecule  {
0 1
  S        1.2441830     0.0010390    -0.8590750
  F        1.5874080    -1.0933110     1.5061340
  F        3.3145200    -0.0009050     0.7339870
  F        1.5874370     1.0896860     1.5087600
  O        1.6149610    -1.2856280    -1.4517330
  O        1.6149580     1.2891350    -1.4486230
  C       -0.4817510     0.0005820    -0.4824320
  C       -1.1416100    -1.2204050    -0.3274150
  C       -1.1416150     1.2211910    -0.3244870
  C       -3.1954030    -0.0001810     0.1494170
  C        1.9826530    -0.0010090     0.8356960
  C       -2.4997500    -1.2060900    -0.0161970
  C       -2.4997550     1.2061250    -0.0133040
  C       -4.6532730    -0.0006360     0.5253300
  H       -0.6057720    -2.1536140    -0.4772800
  H       -0.6057800     2.1547590    -0.4721140
  H       -3.0298860    -2.1498930     0.0955450
  H       -3.0298940     2.1496560     0.1007020
  H       -5.0678320     0.7234793     0.2063464
  H       -5.1606620    -0.8858980     0.1327310
  H       -4.7748820    -0.0019860     1.6139510
units angstrom
no_reorient  #important for SAPT in psi4, default
symmetry c1  #important for SAPT in psi4, default
}

set PROPERTIES_ORIGIN ["COM"]
properties('MP2/aug-cc-pvtz', properties = ['dipole'])
--------------------------------------------------------------------------

    Molecular point group: c1
  Charge       = 0
  Multiplicity = 1
  Basis Set: AUG-CC-PVTZ
    Blend: AUG-CC-PVTZ
  Basis Set: (AUG-CC-PVTZ AUX)
    Blend: AUG-CC-PVTZ-JKFIT

    Orbital Energies [Eh]
    ---------------------

    Doubly Occupied:

       1A    -92.215873     2A    -26.371231     3A    -26.371199
       4A    -26.368650     5A    -20.573710     6A    -20.573691
       7A    -11.549830     8A    -11.292650     9A    -11.286363
      10A    -11.284531    11A    -11.284039    12A    -11.265058
      13A    -11.264116    14A    -11.228258    15A     -9.184569
      16A     -6.869428    17A     -6.868700    18A     -6.868412
      19A     -1.756632    20A     -1.664944    21A     -1.664096
      22A     -1.465554    23A     -1.358130    24A     -1.198016
      25A     -1.104726    26A     -1.053276    27A     -1.042113
      28A     -0.994221    29A     -0.921589    30A     -0.869734
      31A     -0.858961    32A     -0.850317    33A     -0.846200
      34A     -0.797048    35A     -0.743228    36A     -0.736432
      37A     -0.726674    38A     -0.695735    39A     -0.693333
      40A     -0.687692    41A     -0.677869    42A     -0.672840
      43A     -0.666468    44A     -0.649194    45A     -0.640070
      46A     -0.625452    47A     -0.617287    48A     -0.585346
      49A     -0.545623    50A     -0.532684    51A     -0.527415
      52A     -0.522486    53A     -0.514550    54A     -0.496932
      55A     -0.467748    56A     -0.373974    57A     -0.371930

  @DF-RHF Final Energy: -1152.79659038851787

   => Energetics <=

    Nuclear Repulsion Energy =           1103.6198200326700771
    One-Electron Energy =               -3782.9591667386780500
    Two-Electron Energy =                1526.5427563174898751
    Total Energy =                      -1152.7965903885178705
  Basis Set: (AUG-CC-PVTZ AUX)
    Blend: AUG-CC-PVTZ-RI
    Molecular point group: c1

    Geometry (in Angstrom), charge = 0, multiplicity = 1:

       Center              X                  Y                   Z               Mass
    ------------   -----------------  -----------------  -----------------  -----------------
         S            1.116002737248     0.001782718065    -0.871279555690    31.972071174400
         F            1.459227737248    -1.092567281935     1.493929444310    18.998403162730
         F            3.186339737248    -0.000161281935     0.721782444310    18.998403162730
         F            1.459256737248     1.090429718065     1.496555444310    18.998403162730
         O            1.486780737248    -1.284884281935    -1.463937555690    15.994914619570
         O            1.486777737248     1.289878718065    -1.460827555690    15.994914619570
         C           -0.609931262752     0.001325718065    -0.494636555690    12.000000000000
         C           -1.269790262752    -1.219661281935    -0.339619555690    12.000000000000
         C           -1.269795262752     1.221934718065    -0.336691555690    12.000000000000
         C           -3.323583262752     0.000562718065     0.137212444310    12.000000000000
         C            1.854472737248    -0.000265281935     0.823491444310    12.000000000000
         C           -2.627930262752    -1.205346281935    -0.028401555690    12.000000000000
         C           -2.627935262752     1.206868718065    -0.025508555690    12.000000000000
         C           -4.781453262752     0.000107718065     0.513125444310    12.000000000000
         H           -0.733952262752    -2.152870281935    -0.489484555690     1.007825032230
         H           -0.733960262752     2.155502718065    -0.484318555690     1.007825032230
         H           -3.158066262752    -2.149149281935     0.083340444310     1.007825032230
         H           -3.158074262752     2.150399718065     0.088497444310     1.007825032230
         H           -5.196012262752     0.724223018065     0.194141844310     1.007825032230
         H           -5.288842262752    -0.885154281935     0.120526444310     1.007825032230
         H           -4.903062262752    -0.001242281935     1.601746444310     1.007825032230

  Basis Set: AUG-CC-PVTZ
    Blend: AUG-CC-PVTZ
  Basis Set: (AUG-CC-PVTZ AUX)
    Blend: AUG-CC-PVTZ-JKFIT
	 Reference Energy          =   -1152.7965903885178705 [Eh]
	 Singles Energy            =      -0.0000000000000000 [Eh]
	 Same-Spin Energy          =      -0.7697321929856908 [Eh]
	 Opposite-Spin Energy      =      -2.2420105481227006 [Eh]
	 Correlation Energy        =      -3.0117427411083915 [Eh]
	 Total Energy              =   -1155.8083331296263623 [Eh]

	 ================> DF-SCS-MP2 Energies <==================
	-----------------------------------------------------------
	 SCS Same-Spin Scale       =       0.3333333333333333 [-]
	 SCS Opposite-Spin Scale   =       1.2000000000000000 [-]
	 SCS Same-Spin Energy      =      -0.2565773976618969 [Eh]
	 SCS Opposite-Spin Energy  =      -2.6904126577472405 [Eh]
	 SCS Correlation Energy    =      -2.9469900554091373 [Eh]
	 SCS Total Energy          =   -1155.7435804439269305 [Eh]
	-----------------------------------------------------------

  Dipole Moment: [D]
     X:    -5.4781      Y:     0.0333      Z:     2.1301     Total:     5.8778

*** Psi4 exiting successfully. Buy a developer a beer!
