                               Psi4 1.4a3.dev225

  ==> Input File <==

--------------------------------------------------------------------------
#psi4
#
memory 32 gb

molecule  {
0 1
  S        1.2441830     0.0010390    -0.8590750
  F        1.5874080    -1.0933110     1.5061340
  F        3.3145200    -0.0009050     0.7339870
  F        1.5874370     1.0896860     1.5087600
  O        1.6149610    -1.2856280    -1.4517330
  O        1.6149580     1.2891350    -1.4486230
  C       -0.4817510     0.0005820    -0.4824320
  C       -1.1416100    -1.2204050    -0.3274150
  C       -1.1416150     1.2211910    -0.3244870
  C       -3.1954030    -0.0001810     0.1494170
  C        1.9826530    -0.0010090     0.8356960
  C       -2.4997500    -1.2060900    -0.0161970
  C       -2.4997550     1.2061250    -0.0133040
  C       -4.5564403    -0.0006058     0.5003616
  H       -0.6057720    -2.1536140    -0.4772800
  H       -0.6057800     2.1547590    -0.4721140
  H       -3.0298860    -2.1498930     0.0955450
  H       -3.0298940     2.1496560     0.1007020
  H       -5.1606490     0.8856040     0.1349280
  H       -5.1606620    -0.8858980     0.1327310
  H       -4.7748820    -0.0019860     1.6139510
units angstrom
no_reorient  #important for SAPT in psi4, default
symmetry c1  #important for SAPT in psi4, default
}

set PROPERTIES_ORIGIN ["COM"]
properties('MP2/aug-cc-pvtz', properties = ['dipole'])
--------------------------------------------------------------------------

    Molecular point group: c1
  Charge       = 0
  Multiplicity = 1
  Basis Set: AUG-CC-PVTZ
    Blend: AUG-CC-PVTZ
  Basis Set: (AUG-CC-PVTZ AUX)
    Blend: AUG-CC-PVTZ-JKFIT

    Orbital Energies [Eh]
    ---------------------

    Doubly Occupied:

       1A    -92.216143     2A    -26.371465     3A    -26.371444
       4A    -26.368859     5A    -20.573947     6A    -20.573928
       7A    -11.550073     8A    -11.293057     9A    -11.284821
      10A    -11.284718    11A    -11.282843    12A    -11.265188
      13A    -11.265142    14A    -11.256486    15A     -9.184832
      16A     -6.869691    17A     -6.868965    18A     -6.868676
      19A     -1.756862    20A     -1.665184    21A     -1.664313
      22A     -1.465797    23A     -1.358368    24A     -1.201612
      25A     -1.111386    26A     -1.054175    27A     -1.041453
      28A     -0.981579    29A     -0.914796    30A     -0.871722
      31A     -0.855668    32A     -0.850550    33A     -0.844112
      34A     -0.797177    35A     -0.743278    36A     -0.736677
      37A     -0.726839    38A     -0.695720    39A     -0.693810
      40A     -0.685979    41A     -0.679269    42A     -0.678073
      43A     -0.667087    44A     -0.647400    45A     -0.642703
      46A     -0.625238    47A     -0.598019    48A     -0.564714
      49A     -0.555433    50A     -0.527865    51A     -0.522826
      52A     -0.518377    53A     -0.514362    54A     -0.496877
      55A     -0.468415    56A     -0.372729    57A     -0.370242

  @DF-RHF Final Energy: -1152.81803083392174

   => Energetics <=

    Nuclear Repulsion Energy =           1104.6320093589743010
    One-Electron Energy =               -3785.0661566483763636
    Two-Electron Energy =                1527.6161164554803236
    Total Energy =                      -1152.8180308339217390
  Basis Set: (AUG-CC-PVTZ AUX)
    Blend: AUG-CC-PVTZ-RI
    Molecular point group: c1

    Geometry (in Angstrom), charge = 0, multiplicity = 1:

       Center              X                  Y                   Z               Mass
    ------------   -----------------  -----------------  -----------------  -----------------
         S            1.111233128245     0.001051704481    -0.869620723833    31.972071174400
         F            1.454458128245    -1.093298295519     1.495588276167    18.998403162730
         F            3.181570128245    -0.000892295519     0.723441276167    18.998403162730
         F            1.454487128245     1.089698704481     1.498214276167    18.998403162730
         O            1.482011128245    -1.285615295519    -1.462278723833    15.994914619570
         O            1.482008128245     1.289147704481    -1.459168723833    15.994914619570
         C           -0.614700871755     0.000594704481    -0.492977723833    12.000000000000
         C           -1.274559871755    -1.220392295519    -0.337960723833    12.000000000000
         C           -1.274564871755     1.221203704481    -0.335032723833    12.000000000000
         C           -3.328352871755    -0.000168295519     0.138871276167    12.000000000000
         C            1.849703128245    -0.000996295519     0.825150276167    12.000000000000
         C           -2.632699871755    -1.206077295519    -0.026742723833    12.000000000000
         C           -2.632704871755     1.206137704481    -0.023849723833    12.000000000000
         C           -4.689390171755    -0.000593095519     0.489815876167    12.000000000000
         H           -0.738721871755    -2.153601295519    -0.487825723833     1.007825032230
         H           -0.738729871755     2.154771704481    -0.482659723833     1.007825032230
         H           -3.162835871755    -2.149880295519     0.084999276167     1.007825032230
         H           -3.162843871755     2.149668704481     0.090156276167     1.007825032230
         H           -5.293598871755     0.885616704481     0.124382276167     1.007825032230
         H           -5.293611871755    -0.885885295519     0.122185276167     1.007825032230
         H           -4.907831871755    -0.001973295519     1.603405276167     1.007825032230

  Basis Set: AUG-CC-PVTZ
    Blend: AUG-CC-PVTZ
  Basis Set: (AUG-CC-PVTZ AUX)
    Blend: AUG-CC-PVTZ-JKFIT
	 Reference Energy          =   -1152.8180308339217390 [Eh]
	 Singles Energy            =      -0.0000000000000000 [Eh]
	 Same-Spin Energy          =      -0.7710217175138726 [Eh]
	 Opposite-Spin Energy      =      -2.2442424577982543 [Eh]
	 Correlation Energy        =      -3.0152641753121268 [Eh]
	 Total Energy              =   -1155.8332950092337796 [Eh]

	 ================> DF-SCS-MP2 Energies <==================
	-----------------------------------------------------------
	 SCS Same-Spin Scale       =       0.3333333333333333 [-]
	 SCS Opposite-Spin Scale   =       1.2000000000000000 [-]
	 SCS Same-Spin Energy      =      -0.2570072391712909 [Eh]
	 SCS Opposite-Spin Energy  =      -2.6930909493579049 [Eh]
	 SCS Correlation Energy    =      -2.9500981885291959 [Eh]
	 SCS Total Energy          =   -1155.7681290224509212 [Eh]
	-----------------------------------------------------------

  Dipole Moment: [D]
     X:    -5.4562      Y:    -0.0026      Z:     2.1508     Total:     5.8648

*** Psi4 exiting successfully. Buy a developer a beer!
