                               Psi4 1.4a3.dev225

  ==> Input File <==

--------------------------------------------------------------------------
#psi4
#
memory 32 gb

molecule  {
0 1
  S        1.2441830     0.0010390    -0.8590750
  F        1.5874080    -1.0933110     1.5061340
  F        3.3145200    -0.0009050     0.7339870
  F        1.5874370     1.0896860     1.5087600
  O        1.6149610    -1.2856280    -1.4517330
  O        1.6149580     1.2891350    -1.4486230
  C       -0.4817510     0.0005820    -0.4824320
  C       -1.1416100    -1.2204050    -0.3274150
  C       -1.1416150     1.2211910    -0.3244870
  C       -3.1954030    -0.0001810     0.1494170
  C        1.9826530    -0.0010090     0.8356960
  C       -2.4997500    -1.2060900    -0.0161970
  C       -2.4997550     1.2061250    -0.0133040
  C       -4.6532730    -0.0006360     0.5253300
  H       -0.6057720    -2.1536140    -0.4772800
  H       -0.6057800     2.1547590    -0.4721140
  H       -3.0298860    -2.1498930     0.0955450
  H       -3.0298940     2.1496560     0.1007020
  H       -5.2070575     0.9666663     0.0992188
  H       -5.1606620    -0.8858980     0.1327310
  H       -4.7748820    -0.0019860     1.6139510
units angstrom
no_reorient  #important for SAPT in psi4, default
symmetry c1  #important for SAPT in psi4, default
}

set PROPERTIES_ORIGIN ["COM"]
properties('MP2/aug-cc-pvtz', properties = ['dipole'])
--------------------------------------------------------------------------

    Molecular point group: c1
  Charge       = 0
  Multiplicity = 1
  Basis Set: AUG-CC-PVTZ
    Blend: AUG-CC-PVTZ
  Basis Set: (AUG-CC-PVTZ AUX)
    Blend: AUG-CC-PVTZ-JKFIT

    Orbital Energies [Eh]
    ---------------------

    Doubly Occupied:

       1A    -92.216308     2A    -26.371585     3A    -26.371558
       4A    -26.368986     5A    -20.574105     6A    -20.574085
       7A    -11.550219     8A    -11.293335     9A    -11.288417
      10A    -11.285027    11A    -11.284719    12A    -11.265860
      13A    -11.265268    14A    -11.263921    15A     -9.185005
      16A     -6.869864    17A     -6.869138    18A     -6.868847
      19A     -1.756981    20A     -1.665299    21A     -1.664433
      22A     -1.465955    23A     -1.358519    24A     -1.198290
      25A     -1.100057    26A     -1.053938    27A     -1.038510
      28A     -0.977107    29A     -0.915642    30A     -0.869916
      31A     -0.856251    32A     -0.850667    33A     -0.844583
      34A     -0.796927    35A     -0.743072    36A     -0.736741
      37A     -0.725656    38A     -0.695544    39A     -0.693315
      40A     -0.683164    41A     -0.678156    42A     -0.671062
      43A     -0.666519    44A     -0.646791    45A     -0.638745
      46A     -0.625419    47A     -0.602944    48A     -0.558801
      49A     -0.544760    50A     -0.532461    51A     -0.523984
      52A     -0.522848    53A     -0.514630    54A     -0.497199
      55A     -0.468225    56A     -0.374142    57A     -0.372561

  @DF-RHF Final Energy: -1152.82389125158943

   => Energetics <=

    Nuclear Repulsion Energy =           1102.1643196907309630
    One-Electron Energy =               -3780.1843047004476830
    Two-Electron Energy =                1525.1960937581275175
    Total Energy =                      -1152.8238912515894299
  Basis Set: (AUG-CC-PVTZ AUX)
    Blend: AUG-CC-PVTZ-RI
    Molecular point group: c1

    Geometry (in Angstrom), charge = 0, multiplicity = 1:

       Center              X                  Y                   Z               Mass
    ------------   -----------------  -----------------  -----------------  -----------------
         S            1.116629110014     0.000688624571    -0.870797590740    31.972071174400
         F            1.459854110014    -1.093661375429     1.494411409260    18.998403162730
         F            3.186966110014    -0.001255375429     0.722264409260    18.998403162730
         F            1.459883110014     1.089335624571     1.497037409260    18.998403162730
         O            1.487407110014    -1.285978375429    -1.463455590740    15.994914619570
         O            1.487404110014     1.288784624571    -1.460345590740    15.994914619570
         C           -0.609304889986     0.000231624571    -0.494154590740    12.000000000000
         C           -1.269163889986    -1.220755375429    -0.339137590740    12.000000000000
         C           -1.269168889986     1.220840624571    -0.336209590740    12.000000000000
         C           -3.322956889986    -0.000531375429     0.137694409260    12.000000000000
         C            1.855099110014    -0.001359375429     0.823973409260    12.000000000000
         C           -2.627303889986    -1.206440375429    -0.027919590740    12.000000000000
         C           -2.627308889986     1.205774624571    -0.025026590740    12.000000000000
         C           -4.780826889986    -0.000986375429     0.513607409260    12.000000000000
         H           -0.733325889986    -2.153964375429    -0.489002590740     1.007825032230
         H           -0.733333889986     2.154408624571    -0.483836590740     1.007825032230
         H           -3.157439889986    -2.150243375429     0.083822409260     1.007825032230
         H           -3.157447889986     2.149305624571     0.088979409260     1.007825032230
         H           -5.334611389986     0.966315924571     0.087496209260     1.007825032230
         H           -5.288215889986    -0.886248375429     0.121008409260     1.007825032230
         H           -4.902435889986    -0.002336375429     1.602228409260     1.007825032230

  Basis Set: AUG-CC-PVTZ
    Blend: AUG-CC-PVTZ
  Basis Set: (AUG-CC-PVTZ AUX)
    Blend: AUG-CC-PVTZ-JKFIT
	 Reference Energy          =   -1152.8238912515894299 [Eh]
	 Singles Energy            =      -0.0000000000000000 [Eh]
	 Same-Spin Energy          =      -0.7697240115050970 [Eh]
	 Opposite-Spin Energy      =      -2.2434580385732290 [Eh]
	 Correlation Energy        =      -3.0131820500783260 [Eh]
	 Total Energy              =   -1155.8370733016677150 [Eh]

	 ================> DF-SCS-MP2 Energies <==================
	-----------------------------------------------------------
	 SCS Same-Spin Scale       =       0.3333333333333333 [-]
	 SCS Opposite-Spin Scale   =       1.2000000000000000 [-]
	 SCS Same-Spin Energy      =      -0.2565746705016990 [Eh]
	 SCS Opposite-Spin Energy  =      -2.6921496462878749 [Eh]
	 SCS Correlation Energy    =      -2.9487243167895740 [Eh]
	 SCS Total Energy          =   -1155.7726155683790239 [Eh]
	-----------------------------------------------------------

  Dipole Moment: [D]
     X:    -5.3756      Y:    -0.0338      Z:     2.1417     Total:     5.7866

*** Psi4 exiting successfully. Buy a developer a beer!
