                               Psi4 1.4a3.dev225

  ==> Input File <==

--------------------------------------------------------------------------
#psi4
#
memory 32 gb

molecule  {
0 1
  S        1.2441830     0.0010390    -0.8590750
  F        1.5874080    -1.0933110     1.5061340
  F        3.3145200    -0.0009050     0.7339870
  F        1.5874370     1.0896860     1.5087600
  O        1.6149610    -1.2856280    -1.4517330
  O        1.6149580     1.2891350    -1.4486230
  C       -0.4817510     0.0005820    -0.4824320
  C       -1.1416100    -1.2204050    -0.3274150
  C       -1.1416150     1.2211910    -0.3244870
  C       -3.1954030    -0.0001810     0.1494170
  C        1.9826530    -0.0010090     0.8356960
  C       -2.4997500    -1.2060900    -0.0161970
  C       -2.4997550     1.2061250    -0.0133040
  C       -4.6532730    -0.0006360     0.5253300
  H       -0.6057720    -2.1536140    -0.4772800
  H       -0.6057800     2.1547590    -0.4721140
  H       -3.0298860    -2.1498930     0.0955450
  H       -3.0298940     2.1496560     0.1007020
  H       -5.1606490     0.8856040     0.1349280
  H       -5.1606620    -0.8858980     0.1327310
  H       -4.7748820    -0.0019860     1.6139510
units angstrom
no_reorient  #important for SAPT in psi4, default
symmetry c1  #important for SAPT in psi4, default
}

set PROPERTIES_ORIGIN ["COM"]
properties('MP2/aug-cc-pvtz', properties = ['dipole'])
--------------------------------------------------------------------------

    Molecular point group: c1
  Charge       = 0
  Multiplicity = 1
  Basis Set: AUG-CC-PVTZ
    Blend: AUG-CC-PVTZ
  Basis Set: (AUG-CC-PVTZ AUX)
    Blend: AUG-CC-PVTZ-JKFIT

    Orbital Energies [Eh]
    ---------------------

    Doubly Occupied:

       1A    -92.216096     2A    -26.371411     3A    -26.371389
       4A    -26.368824     5A    -20.573912     6A    -20.573892
       7A    -11.550032     8A    -11.292997     9A    -11.287539
      10A    -11.284647    11A    -11.284544    12A    -11.265117
      13A    -11.265078    14A    -11.252422    15A     -9.184792
      16A     -6.869652    17A     -6.868925    18A     -6.868635
      19A     -1.756813    20A     -1.665128    21A     -1.664271
      22A     -1.465760    23A     -1.358329    24A     -1.198013
      25A     -1.100701    26A     -1.053614    27A     -1.039024
      28A     -0.980865    29A     -0.917174    30A     -0.869728
      31A     -0.856831    32A     -0.850499    33A     -0.845030
      34A     -0.796842    35A     -0.742989    36A     -0.736582
      37A     -0.725724    38A     -0.695438    39A     -0.693189
      40A     -0.683854    41A     -0.678004    42A     -0.671313
      43A     -0.666407    44A     -0.647058    45A     -0.638734
      46A     -0.625196    47A     -0.604969    48A     -0.569970
      49A     -0.545646    50A     -0.532601    51A     -0.526311
      52A     -0.522690    53A     -0.514673    54A     -0.497075
      55A     -0.467998    56A     -0.373974    57A     -0.372294

  @DF-RHF Final Energy: -1152.83055041727994

   => Energetics <=

    Nuclear Repulsion Energy =           1102.5914389199779180
    One-Electron Energy =               -3781.0415491433077477
    Two-Electron Energy =                1525.6195598060498924
    Total Energy =                      -1152.8305504172799374
  Basis Set: (AUG-CC-PVTZ AUX)
    Blend: AUG-CC-PVTZ-RI
    Molecular point group: c1

    Geometry (in Angstrom), charge = 0, multiplicity = 1:

       Center              X                  Y                   Z               Mass
    ------------   -----------------  -----------------  -----------------  -----------------
         S            1.116420319092     0.001053322252    -0.870958245723    31.972071174400
         F            1.459645319092    -1.093296677748     1.494250754277    18.998403162730
         F            3.186757319092    -0.000890677748     0.722103754277    18.998403162730
         F            1.459674319092     1.089700322252     1.496876754277    18.998403162730
         O            1.487198319092    -1.285613677748    -1.463616245723    15.994914619570
         O            1.487195319092     1.289149322252    -1.460506245723    15.994914619570
         C           -0.609513680908     0.000596322252    -0.494315245723    12.000000000000
         C           -1.269372680908    -1.220390677748    -0.339298245723    12.000000000000
         C           -1.269377680908     1.221205322252    -0.336370245723    12.000000000000
         C           -3.323165680908    -0.000166677748     0.137533754277    12.000000000000
         C            1.854890319092    -0.000994677748     0.823812754277    12.000000000000
         C           -2.627512680908    -1.206075677748    -0.028080245723    12.000000000000
         C           -2.627517680908     1.206139322252    -0.025187245723    12.000000000000
         C           -4.781035680908    -0.000621677748     0.513446754277    12.000000000000
         H           -0.733534680908    -2.153599677748    -0.489163245723     1.007825032230
         H           -0.733542680908     2.154773322252    -0.483997245723     1.007825032230
         H           -3.157648680908    -2.149878677748     0.083661754277     1.007825032230
         H           -3.157656680908     2.149670322252     0.088818754277     1.007825032230
         H           -5.288411680908     0.885618322252     0.123044754277     1.007825032230
         H           -5.288424680908    -0.885883677748     0.120847754277     1.007825032230
         H           -4.902644680908    -0.001971677748     1.602067754277     1.007825032230

  Basis Set: AUG-CC-PVTZ
    Blend: AUG-CC-PVTZ
  Basis Set: (AUG-CC-PVTZ AUX)
    Blend: AUG-CC-PVTZ-JKFIT
	 Reference Energy          =   -1152.8305504172799374 [Eh]
	 Singles Energy            =      -0.0000000000000000 [Eh]
	 Same-Spin Energy          =      -0.7696818936608188 [Eh]
	 Opposite-Spin Energy      =      -2.2426829065246370 [Eh]
	 Correlation Energy        =      -3.0123648001854559 [Eh]
	 Total Energy              =   -1155.8429152174653609 [Eh]

	 ================> DF-SCS-MP2 Energies <==================
	-----------------------------------------------------------
	 SCS Same-Spin Scale       =       0.3333333333333333 [-]
	 SCS Opposite-Spin Scale   =       1.2000000000000000 [-]
	 SCS Same-Spin Energy      =      -0.2565606312202729 [Eh]
	 SCS Opposite-Spin Energy  =      -2.6912194878295641 [Eh]
	 SCS Correlation Energy    =      -2.9477801190498369 [Eh]
	 SCS Total Energy          =   -1155.7783305363298041 [Eh]
	-----------------------------------------------------------

  Dipole Moment: [D]
     X:    -5.4223      Y:    -0.0026      Z:     2.1352     Total:     5.8275

*** Psi4 exiting successfully. Buy a developer a beer!
