                               Psi4 1.4a3.dev225

  ==> Input File <==

--------------------------------------------------------------------------
#psi4
#
memory 32 gb

molecule  {
0 1
  S        1.2441830     0.0010390    -0.8590750
  F        1.5874080    -1.0933110     1.5061340
  F        3.3145200    -0.0009050     0.7339870
  F        1.5874370     1.0896860     1.5087600
  O        1.6149610    -1.2856280    -1.4517330
  O        1.6149580     1.2891350    -1.4486230
  C       -0.4817510     0.0005820    -0.4824320
  C       -1.1416100    -1.2204050    -0.3274150
  C       -1.1321648     1.2037102    -0.3267490
  C       -3.1954030    -0.0001810     0.1494170
  C        1.9826530    -0.0010090     0.8356960
  C       -2.4997500    -1.2060900    -0.0161970
  C       -2.4997550     1.2061250    -0.0133040
  C       -4.6532730    -0.0006360     0.5253300
  H       -0.6057720    -2.1536140    -0.4772800
  H       -0.6057800     2.1547590    -0.4721140
  H       -3.0298860    -2.1498930     0.0955450
  H       -3.0298940     2.1496560     0.1007020
  H       -5.1606490     0.8856040     0.1349280
  H       -5.1606620    -0.8858980     0.1327310
  H       -4.7748820    -0.0019860     1.6139510
units angstrom
no_reorient  #important for SAPT in psi4, default
symmetry c1  #important for SAPT in psi4, default
}

set PROPERTIES_ORIGIN ["COM"]
properties('MP2/aug-cc-pvtz', properties = ['dipole'])
--------------------------------------------------------------------------

    Molecular point group: c1
  Charge       = 0
  Multiplicity = 1
  Basis Set: AUG-CC-PVTZ
    Blend: AUG-CC-PVTZ
  Basis Set: (AUG-CC-PVTZ AUX)
    Blend: AUG-CC-PVTZ-JKFIT

    Orbital Energies [Eh]
    ---------------------

    Doubly Occupied:

       1A    -92.216306     2A    -26.371658     3A    -26.371595
       4A    -26.369063     5A    -20.574195     6A    -20.574135
       7A    -11.550322     8A    -11.291678     9A    -11.286865
      10A    -11.284201    11A    -11.283973    12A    -11.265757
      13A    -11.265067    14A    -11.252092    15A     -9.185050
      16A     -6.869906    17A     -6.869180    18A     -6.868883
      19A     -1.757045    20A     -1.665353    21A     -1.664498
      22A     -1.466061    23A     -1.358582    24A     -1.199270
      25A     -1.102061    26A     -1.052174    27A     -1.039293
      28A     -0.980857    29A     -0.917677    30A     -0.870725
      31A     -0.856615    32A     -0.850720    33A     -0.844785
      34A     -0.797145    35A     -0.743295    36A     -0.736790
      37A     -0.725912    38A     -0.695635    39A     -0.693365
      40A     -0.684397    41A     -0.678230    42A     -0.670069
      43A     -0.666176    44A     -0.647125    45A     -0.639920
      46A     -0.623304    47A     -0.604737    48A     -0.570347
      49A     -0.544745    50A     -0.533698    51A     -0.526434
      52A     -0.523134    53A     -0.514803    54A     -0.497157
      55A     -0.468080    56A     -0.375921    57A     -0.370484

  @DF-RHF Final Energy: -1152.83011875751959

   => Energetics <=

    Nuclear Repulsion Energy =           1102.9936333474590811
    One-Electron Energy =               -3781.8344110372154319
    Two-Electron Energy =                1526.0106589322369928
    Total Energy =                      -1152.8301187575195854
  Basis Set: (AUG-CC-PVTZ AUX)
    Blend: AUG-CC-PVTZ-RI
    Molecular point group: c1

    Geometry (in Angstrom), charge = 0, multiplicity = 1:

       Center              X                  Y                   Z               Mass
    ------------   -----------------  -----------------  -----------------  -----------------
         S            1.115914085238     0.001989743996    -0.870837073581    31.972071174400
         F            1.459139085238    -1.092360256004     1.494371926419    18.998403162730
         F            3.186251085238     0.000045743996     0.722224926419    18.998403162730
         F            1.459168085238     1.090636743996     1.496997926419    18.998403162730
         O            1.486692085238    -1.284677256004    -1.463495073581    15.994914619570
         O            1.486689085238     1.290085743996    -1.460385073581    15.994914619570
         C           -0.610019914762     0.001532743996    -0.494194073581    12.000000000000
         C           -1.269878914762    -1.219454256004    -0.339177073581    12.000000000000
         C           -1.260433714762     1.204660943996    -0.338511073581    12.000000000000
         C           -3.323671914762     0.000769743996     0.137654926419    12.000000000000
         C            1.854384085238    -0.000058256004     0.823933926419    12.000000000000
         C           -2.628018914762    -1.205139256004    -0.027959073581    12.000000000000
         C           -2.628023914762     1.207075743996    -0.025066073581    12.000000000000
         C           -4.781541914762     0.000314743996     0.513567926419    12.000000000000
         H           -0.734040914762    -2.152663256004    -0.489042073581     1.007825032230
         H           -0.734048914762     2.155709743996    -0.483876073581     1.007825032230
         H           -3.158154914762    -2.148942256004     0.083782926419     1.007825032230
         H           -3.158162914762     2.150606743996     0.088939926419     1.007825032230
         H           -5.288917914762     0.886554743996     0.123165926419     1.007825032230
         H           -5.288930914762    -0.884947256004     0.120968926419     1.007825032230
         H           -4.903150914762    -0.001035256004     1.602188926419     1.007825032230

  Basis Set: AUG-CC-PVTZ
    Blend: AUG-CC-PVTZ
  Basis Set: (AUG-CC-PVTZ AUX)
    Blend: AUG-CC-PVTZ-JKFIT
	 Reference Energy          =   -1152.8301187575195854 [Eh]
	 Singles Energy            =      -0.0000000000000000 [Eh]
	 Same-Spin Energy          =      -0.7697097918988145 [Eh]
	 Opposite-Spin Energy      =      -2.2426812714545639 [Eh]
	 Correlation Energy        =      -3.0123910633533786 [Eh]
	 Total Energy              =   -1155.8425098208729196 [Eh]

	 ================> DF-SCS-MP2 Energies <==================
	-----------------------------------------------------------
	 SCS Same-Spin Scale       =       0.3333333333333333 [-]
	 SCS Opposite-Spin Scale   =       1.2000000000000000 [-]
	 SCS Same-Spin Energy      =      -0.2565699306329381 [Eh]
	 SCS Opposite-Spin Energy  =      -2.6912175257454765 [Eh]
	 SCS Correlation Energy    =      -2.9477874563784146 [Eh]
	 SCS Total Energy          =   -1155.7779062138979498 [Eh]
	-----------------------------------------------------------

  Dipole Moment: [D]
     X:    -5.4090      Y:     0.0063      Z:     2.1332     Total:     5.8144

*** Psi4 exiting successfully. Buy a developer a beer!
