                               Psi4 1.4a3.dev225

  ==> Input File <==

--------------------------------------------------------------------------
#psi4
#
memory 32 gb

molecule  {
0 1
  S        1.2441830     0.0010390    -0.8590750
  F        1.5874080    -1.0933110     1.5061340
  F        3.3145200    -0.0009050     0.7339870
  F        1.5874370     1.0896860     1.5087600
  O        1.6149610    -1.2856280    -1.4517330
  O        1.6149580     1.2891350    -1.4486230
  C       -0.4817510     0.0005820    -0.4824320
  C       -1.1416100    -1.2204050    -0.3274150
  C       -1.1416150     1.2211910    -0.3244870
  C       -3.1954030    -0.0001810     0.1494170
  C        1.9826530    -0.0010090     0.8356960
  C       -2.4997500    -1.2060900    -0.0161970
  C       -2.5484892     1.2055844    -0.0021378
  C       -4.6532730    -0.0006360     0.5253300
  H       -0.6057720    -2.1536140    -0.4772800
  H       -0.6057800     2.1547590    -0.4721140
  H       -3.0298860    -2.1498930     0.0955450
  H       -3.0298940     2.1496560     0.1007020
  H       -5.1606490     0.8856040     0.1349280
  H       -5.1606620    -0.8858980     0.1327310
  H       -4.7748820    -0.0019860     1.6139510
units angstrom
no_reorient  #important for SAPT in psi4, default
symmetry c1  #important for SAPT in psi4, default
}

set PROPERTIES_ORIGIN ["COM"]
properties('MP2/aug-cc-pvtz', properties = ['dipole'])
--------------------------------------------------------------------------

    Molecular point group: c1
  Charge       = 0
  Multiplicity = 1
  Basis Set: AUG-CC-PVTZ
    Blend: AUG-CC-PVTZ
  Basis Set: (AUG-CC-PVTZ AUX)
    Blend: AUG-CC-PVTZ-JKFIT

    Orbital Energies [Eh]
    ---------------------

    Doubly Occupied:

       1A    -92.216652     2A    -26.371775     3A    -26.371685
       4A    -26.369200     5A    -20.574513     6A    -20.574334
       7A    -11.550476     8A    -11.294003     9A    -11.291295
      10A    -11.283731    11A    -11.283679    12A    -11.265822
      13A    -11.265554    14A    -11.250309    15A     -9.185365
      16A     -6.870223    17A     -6.869498    18A     -6.869201
      19A     -1.757158    20A     -1.665455    21A     -1.664620
      22A     -1.466282    23A     -1.358832    24A     -1.196321
      25A     -1.103207    26A     -1.049272    27A     -1.038425
      28A     -0.979156    29A     -0.917730    30A     -0.874129
      31A     -0.856451    32A     -0.850834    33A     -0.844522
      34A     -0.796879    35A     -0.743180    36A     -0.736883
      37A     -0.725546    38A     -0.695614    39A     -0.693429
      40A     -0.682775    41A     -0.678320    42A     -0.673749
      43A     -0.667153    44A     -0.647532    45A     -0.641142
      46A     -0.623756    47A     -0.604244    48A     -0.568809
      49A     -0.540769    50A     -0.533517    51A     -0.530051
      52A     -0.523255    53A     -0.514009    54A     -0.497451
      55A     -0.467678    56A     -0.378126    57A     -0.366889

  @DF-RHF Final Energy: -1152.82727850457218

   => Energetics <=

    Nuclear Repulsion Energy =           1101.9452418650307663
    One-Electron Energy =               -3779.7241143250512323
    Two-Electron Energy =                1524.9515939554482884
    Total Energy =                      -1152.8272785045721776
  Basis Set: (AUG-CC-PVTZ AUX)
    Blend: AUG-CC-PVTZ-RI
    Molecular point group: c1

    Geometry (in Angstrom), charge = 0, multiplicity = 1:

       Center              X                  Y                   Z               Mass
    ------------   -----------------  -----------------  -----------------  -----------------
         S            1.119030941290     0.001082281430    -0.871556403272    31.972071174400
         F            1.462255941290    -1.093267718570     1.493652596728    18.998403162730
         F            3.189367941290    -0.000861718570     0.721505596728    18.998403162730
         F            1.462284941290     1.089729281430     1.496278596728    18.998403162730
         O            1.489808941290    -1.285584718570    -1.464214403272    15.994914619570
         O            1.489805941290     1.289178281430    -1.461104403272    15.994914619570
         C           -0.606903058710     0.000625281430    -0.494913403272    12.000000000000
         C           -1.266762058710    -1.220361718570    -0.339896403272    12.000000000000
         C           -1.266767058710     1.221234281430    -0.336968403272    12.000000000000
         C           -3.320555058710    -0.000137718570     0.136935596728    12.000000000000
         C            1.857500941290    -0.000965718570     0.823214596728    12.000000000000
         C           -2.624902058710    -1.206046718570    -0.028678403272    12.000000000000
         C           -2.673641258710     1.205627681430    -0.014619203272    12.000000000000
         C           -4.778425058710    -0.000592718570     0.512848596728    12.000000000000
         H           -0.730924058710    -2.153570718570    -0.489761403272     1.007825032230
         H           -0.730932058710     2.154802281430    -0.484595403272     1.007825032230
         H           -3.155038058710    -2.149849718570     0.083063596728     1.007825032230
         H           -3.155046058710     2.149699281430     0.088220596728     1.007825032230
         H           -5.285801058710     0.885647281430     0.122446596728     1.007825032230
         H           -5.285814058710    -0.885854718570     0.120249596728     1.007825032230
         H           -4.900034058710    -0.001942718570     1.601469596728     1.007825032230

  Basis Set: AUG-CC-PVTZ
    Blend: AUG-CC-PVTZ
  Basis Set: (AUG-CC-PVTZ AUX)
    Blend: AUG-CC-PVTZ-JKFIT
	 Reference Energy          =   -1152.8272785045721776 [Eh]
	 Singles Energy            =      -0.0000000000000000 [Eh]
	 Same-Spin Energy          =      -0.7696293862318703 [Eh]
	 Opposite-Spin Energy      =      -2.2429806053763039 [Eh]
	 Correlation Energy        =      -3.0126099916081741 [Eh]
	 Total Energy              =   -1155.8398884961802651 [Eh]

	 ================> DF-SCS-MP2 Energies <==================
	-----------------------------------------------------------
	 SCS Same-Spin Scale       =       0.3333333333333333 [-]
	 SCS Opposite-Spin Scale   =       1.2000000000000000 [-]
	 SCS Same-Spin Energy      =      -0.2565431287439567 [Eh]
	 SCS Opposite-Spin Energy  =      -2.6915767264515646 [Eh]
	 SCS Correlation Energy    =      -2.9481198551955212 [Eh]
	 SCS Total Energy          =   -1155.7753983597676779 [Eh]
	-----------------------------------------------------------

  Dipole Moment: [D]
     X:    -5.3794      Y:     0.0232      Z:     2.1253     Total:     5.7841

*** Psi4 exiting successfully. Buy a developer a beer!
