                               Psi4 1.4a3.dev225

  ==> Input File <==

--------------------------------------------------------------------------
#psi4
#
memory 32 gb

molecule  {
0 1
  S        1.2441830     0.0010390    -0.8590750
  F        1.5874080    -1.0933110     1.5061340
  F        3.3145200    -0.0009050     0.7339870
  F        1.5874370     1.0896860     1.5087600
  O        1.6149610    -1.2856280    -1.4517330
  O        1.6149580     1.2891350    -1.4486230
  C       -0.4817510     0.0005820    -0.4824320
  C       -1.1416100    -1.2204050    -0.3274150
  C       -1.1416150     1.2211910    -0.3244870
  C       -3.1954030    -0.0001810     0.1494170
  C        1.9826530    -0.0010090     0.8356960
  C       -2.5989879    -1.0340619     0.0074286
  C       -2.4997550     1.2061250    -0.0133040
  C       -4.6532730    -0.0006360     0.5253300
  H       -0.6057720    -2.1536140    -0.4772800
  H       -0.6057800     2.1547590    -0.4721140
  H       -3.0298860    -2.1498930     0.0955450
  H       -3.0298940     2.1496560     0.1007020
  H       -5.1606490     0.8856040     0.1349280
  H       -5.1606620    -0.8858980     0.1327310
  H       -4.7748820    -0.0019860     1.6139510
units angstrom
no_reorient  #important for SAPT in psi4, default
symmetry c1  #important for SAPT in psi4, default
}

set PROPERTIES_ORIGIN ["COM"]
properties('MP2/aug-cc-pvtz', properties = ['dipole'])
--------------------------------------------------------------------------

    Molecular point group: c1
  Charge       = 0
  Multiplicity = 1
  Basis Set: AUG-CC-PVTZ
    Blend: AUG-CC-PVTZ
  Basis Set: (AUG-CC-PVTZ AUX)
    Blend: AUG-CC-PVTZ-JKFIT

    Orbital Energies [Eh]
    ---------------------

    Doubly Occupied:

       1A    -92.217443     2A    -26.373050     3A    -26.373016
       4A    -26.370528     5A    -20.576204     6A    -20.575673
       7A    -11.551977     8A    -11.301351     9A    -11.297146
      10A    -11.277520    11A    -11.267945    12A    -11.261662
      13A    -11.253647    14A    -11.248197    15A     -9.186428
      16A     -6.871272    17A     -6.870527    18A     -6.870224
      19A     -1.758470    20A     -1.666759    21A     -1.665910
      22A     -1.467857    23A     -1.360357    24A     -1.214082
      25A     -1.119806    26A     -1.046010    27A     -1.035323
      28A     -0.979503    29A     -0.925536    30A     -0.884385
      31A     -0.856697    32A     -0.852127    33A     -0.844260
      34A     -0.787660    35A     -0.744177    36A     -0.738267
      37A     -0.727042    38A     -0.697412    39A     -0.694896
      40A     -0.688471    41A     -0.679634    42A     -0.671180
      43A     -0.667472    44A     -0.649751    45A     -0.640730
      46A     -0.612397    47A     -0.609441    48A     -0.562637
      49A     -0.554377    50A     -0.535750    51A     -0.525878
      52A     -0.521070    53A     -0.501473    54A     -0.496544
      55A     -0.460435    56A     -0.405515    57A     -0.359011

  @DF-RHF Final Energy: -1152.76820031096054

   => Energetics <=

    Nuclear Repulsion Energy =           1104.5055674316336081
    One-Electron Energy =               -3784.6433180248263852
    Two-Electron Energy =                1527.3695502822322396
    Total Energy =                      -1152.7682003109605375
  Basis Set: (AUG-CC-PVTZ AUX)
    Blend: AUG-CC-PVTZ-RI
    Molecular point group: c1

    Geometry (in Angstrom), charge = 0, multiplicity = 1:

       Center              X                  Y                   Z               Mass
    ------------   -----------------  -----------------  -----------------  -----------------
         S            1.121736353102    -0.008161979868    -0.872223835716    31.972071174400
         F            1.464961353102    -1.102511979868     1.492985164284    18.998403162730
         F            3.192073353102    -0.010105979868     0.720838164284    18.998403162730
         F            1.464990353102     1.080485020132     1.495611164284    18.998403162730
         O            1.492514353102    -1.294828979868    -1.464881835716    15.994914619570
         O            1.492511353102     1.279934020132    -1.461771835716    15.994914619570
         C           -0.604197646898    -0.008618979868    -0.495580835716    12.000000000000
         C           -1.264056646898    -1.229605979868    -0.340563835716    12.000000000000
         C           -1.264061646898     1.211990020132    -0.337635835716    12.000000000000
         C           -3.317849646898    -0.009381979868     0.136268164284    12.000000000000
         C            1.860206353102    -0.010209979868     0.822547164284    12.000000000000
         C           -2.721434546898    -1.043262879868    -0.005720235716    12.000000000000
         C           -2.622201646898     1.196924020132    -0.026452835716    12.000000000000
         C           -4.775719646898    -0.009836979868     0.512181164284    12.000000000000
         H           -0.728218646898    -2.162814979868    -0.490428835716     1.007825032230
         H           -0.728226646898     2.145558020132    -0.485262835716     1.007825032230
         H           -3.152332646898    -2.159093979868     0.082396164284     1.007825032230
         H           -3.152340646898     2.140455020132     0.087553164284     1.007825032230
         H           -5.283095646898     0.876403020132     0.121779164284     1.007825032230
         H           -5.283108646898    -0.895098979868     0.119582164284     1.007825032230
         H           -4.897328646898    -0.011186979868     1.600802164284     1.007825032230

  Basis Set: AUG-CC-PVTZ
    Blend: AUG-CC-PVTZ
  Basis Set: (AUG-CC-PVTZ AUX)
    Blend: AUG-CC-PVTZ-JKFIT
	 Reference Energy          =   -1152.7682003109605375 [Eh]
	 Singles Energy            =      -0.0000000000000000 [Eh]
	 Same-Spin Energy          =      -0.7696484990095860 [Eh]
	 Opposite-Spin Energy      =      -2.2449492210113720 [Eh]
	 Correlation Energy        =      -3.0145977200209577 [Eh]
	 Total Energy              =   -1155.7827980309814393 [Eh]

	 ================> DF-SCS-MP2 Energies <==================
	-----------------------------------------------------------
	 SCS Same-Spin Scale       =       0.3333333333333333 [-]
	 SCS Opposite-Spin Scale   =       1.2000000000000000 [-]
	 SCS Same-Spin Energy      =      -0.2565494996698620 [Eh]
	 SCS Opposite-Spin Energy  =      -2.6939390652136463 [Eh]
	 SCS Correlation Energy    =      -2.9504885648835084 [Eh]
	 SCS Total Energy          =   -1155.7186888758440091 [Eh]
	-----------------------------------------------------------

  Dipole Moment: [D]
     X:    -5.1842      Y:     0.0421      Z:     2.0803     Total:     5.5862

*** Psi4 exiting successfully. Buy a developer a beer!
