                               Psi4 1.4a3.dev225

  ==> Input File <==

--------------------------------------------------------------------------
#psi4
#
memory 32 gb

molecule  {
0 1
  S        1.2441830     0.0010390    -0.8590750
  F        1.5874080    -1.0933110     1.5061340
  F        3.3145200    -0.0009050     0.7339870
  F        1.5874370     1.0896860     1.5087600
  O        1.6149610    -1.2856280    -1.4517330
  O        1.6149580     1.2891350    -1.4486230
  C       -0.4329007     0.0005949    -0.4930924
  C       -1.1416100    -1.2204050    -0.3274150
  C       -1.1416150     1.2211910    -0.3244870
  C       -3.1954030    -0.0001810     0.1494170
  C        1.9826530    -0.0010090     0.8356960
  C       -2.4997500    -1.2060900    -0.0161970
  C       -2.4997550     1.2061250    -0.0133040
  C       -4.6532730    -0.0006360     0.5253300
  H       -0.6057720    -2.1536140    -0.4772800
  H       -0.6057800     2.1547590    -0.4721140
  H       -3.0298860    -2.1498930     0.0955450
  H       -3.0298940     2.1496560     0.1007020
  H       -5.1606490     0.8856040     0.1349280
  H       -5.1606620    -0.8858980     0.1327310
  H       -4.7748820    -0.0019860     1.6139510
units angstrom
no_reorient  #important for SAPT in psi4, default
symmetry c1  #important for SAPT in psi4, default
}

set PROPERTIES_ORIGIN ["COM"]
properties('MP2/aug-cc-pvtz', properties = ['dipole'])
--------------------------------------------------------------------------

    Molecular point group: c1
  Charge       = 0
  Multiplicity = 1
  Basis Set: AUG-CC-PVTZ
    Blend: AUG-CC-PVTZ
  Basis Set: (AUG-CC-PVTZ AUX)
    Blend: AUG-CC-PVTZ-JKFIT

    Orbital Energies [Eh]
    ---------------------

    Doubly Occupied:

       1A    -92.215697     2A    -26.370518     3A    -26.370496
       4A    -26.367709     5A    -20.572605     6A    -20.572585
       7A    -11.548658     8A    -11.291929     9A    -11.291310
      10A    -11.289843    11A    -11.289554    12A    -11.265572
      13A    -11.265537    14A    -11.254178    15A     -9.184646
      16A     -6.869536    17A     -6.868927    18A     -6.868510
      19A     -1.755881    20A     -1.664264    21A     -1.663284
      22A     -1.466200    23A     -1.357620    24A     -1.194594
      25A     -1.103618    26A     -1.051769    27A     -1.038896
      28A     -0.984620    29A     -0.917516    30A     -0.867267
      31A     -0.859057    32A     -0.849592    33A     -0.845904
      34A     -0.796012    35A     -0.742271    36A     -0.735792
      37A     -0.725085    38A     -0.694784    39A     -0.692339
      40A     -0.683666    41A     -0.677111    42A     -0.673309
      43A     -0.666862    44A     -0.646178    45A     -0.640152
      46A     -0.621073    47A     -0.606300    48A     -0.570603
      49A     -0.546461    50A     -0.530201    51A     -0.524649
      52A     -0.519971    53A     -0.515449    54A     -0.496110
      55A     -0.472075    56A     -0.374128    57A     -0.372354

  @DF-RHF Final Energy: -1152.82763416084276

   => Energetics <=

    Nuclear Repulsion Energy =           1103.0935575301887184
    One-Electron Energy =               -3782.0407327618336240
    Two-Electron Energy =                1526.1195410708021427
    Total Energy =                      -1152.8276341608427629
  Basis Set: (AUG-CC-PVTZ AUX)
    Blend: AUG-CC-PVTZ-RI
    Molecular point group: c1

    Geometry (in Angstrom), charge = 0, multiplicity = 1:

       Center              X                  Y                   Z               Mass
    ------------   -----------------  -----------------  -----------------  -----------------
         S            1.113803477581     0.001052631218    -0.870387183166    31.972071174400
         F            1.457028477581    -1.093297368782     1.494821816834    18.998403162730
         F            3.184140477581    -0.000891368782     0.722674816834    18.998403162730
         F            1.457057477581     1.089699631218     1.497447816834    18.998403162730
         O            1.484581477581    -1.285614368782    -1.463045183166    15.994914619570
         O            1.484578477581     1.289148631218    -1.459935183166    15.994914619570
         C           -0.563280222419     0.000608531218    -0.504404583166    12.000000000000
         C           -1.271989522419    -1.220391368782    -0.338727183166    12.000000000000
         C           -1.271994522419     1.221204631218    -0.335799183166    12.000000000000
         C           -3.325782522419    -0.000167368782     0.138104816834    12.000000000000
         C            1.852273477581    -0.000995368782     0.824383816834    12.000000000000
         C           -2.630129522419    -1.206076368782    -0.027509183166    12.000000000000
         C           -2.630134522419     1.206138631218    -0.024616183166    12.000000000000
         C           -4.783652522419    -0.000622368782     0.514017816834    12.000000000000
         H           -0.736151522419    -2.153600368782    -0.488592183166     1.007825032230
         H           -0.736159522419     2.154772631218    -0.483426183166     1.007825032230
         H           -3.160265522419    -2.149879368782     0.084232816834     1.007825032230
         H           -3.160273522419     2.149669631218     0.089389816834     1.007825032230
         H           -5.291028522419     0.885617631218     0.123615816834     1.007825032230
         H           -5.291041522419    -0.885884368782     0.121418816834     1.007825032230
         H           -4.905261522419    -0.001972368782     1.602638816834     1.007825032230

  Basis Set: AUG-CC-PVTZ
    Blend: AUG-CC-PVTZ
  Basis Set: (AUG-CC-PVTZ AUX)
    Blend: AUG-CC-PVTZ-JKFIT
	 Reference Energy          =   -1152.8276341608427629 [Eh]
	 Singles Energy            =      -0.0000000000000000 [Eh]
	 Same-Spin Energy          =      -0.7697262435112994 [Eh]
	 Opposite-Spin Energy      =      -2.2428450461741725 [Eh]
	 Correlation Energy        =      -3.0125712896854719 [Eh]
	 Total Energy              =   -1155.8402054505281740 [Eh]

	 ================> DF-SCS-MP2 Energies <==================
	-----------------------------------------------------------
	 SCS Same-Spin Scale       =       0.3333333333333333 [-]
	 SCS Opposite-Spin Scale   =       1.2000000000000000 [-]
	 SCS Same-Spin Energy      =      -0.2565754145037664 [Eh]
	 SCS Opposite-Spin Energy  =      -2.6914140554090067 [Eh]
	 SCS Correlation Energy    =      -2.9479894699127733 [Eh]
	 SCS Total Energy          =   -1155.7756236307554900 [Eh]
	-----------------------------------------------------------

  Dipole Moment: [D]
     X:    -5.5951      Y:    -0.0026      Z:     2.1690     Total:     6.0008

*** Psi4 exiting successfully. Buy a developer a beer!
