                               Psi4 1.4a3.dev225

  ==> Input File <==

--------------------------------------------------------------------------
#psi4
#
memory 32 gb

molecule  {
0 1
  S        1.2441830     0.0010390    -0.8590750
  F        1.5874080    -1.0933110     1.5061340
  F        3.3145200    -0.0009050     0.7339870
  F        1.5874370     1.0896860     1.5087600
  O        1.6149610    -1.2856280    -1.4517330
  O        1.6149580     1.2891350    -1.4486230
  C       -0.4817510     0.0005820    -0.4824320
  C       -1.1416100    -1.2204050    -0.3274150
  C       -1.1179896     1.1774890    -0.3301420
  C       -3.1954030    -0.0001810     0.1494170
  C        1.9826530    -0.0010090     0.8356960
  C       -2.4997500    -1.2060900    -0.0161970
  C       -2.4997550     1.2061250    -0.0133040
  C       -4.6532730    -0.0006360     0.5253300
  H       -0.6057720    -2.1536140    -0.4772800
  H       -0.6057800     2.1547590    -0.4721140
  H       -3.0298860    -2.1498930     0.0955450
  H       -3.0298940     2.1496560     0.1007020
  H       -5.1606490     0.8856040     0.1349280
  H       -5.1606620    -0.8858980     0.1327310
  H       -4.7748820    -0.0019860     1.6139510
units angstrom
no_reorient  #important for SAPT in psi4, default
symmetry c1  #important for SAPT in psi4, default
}

set PROPERTIES_ORIGIN ["COM"]
properties('MP2/aug-cc-pvtz', properties = ['dipole'])
--------------------------------------------------------------------------

    Molecular point group: c1
  Charge       = 0
  Multiplicity = 1
  Basis Set: AUG-CC-PVTZ
    Blend: AUG-CC-PVTZ
  Basis Set: (AUG-CC-PVTZ AUX)
    Blend: AUG-CC-PVTZ-JKFIT

    Orbital Energies [Eh]
    ---------------------

    Doubly Occupied:

       1A    -92.216603     2A    -26.372051     3A    -26.371899
       4A    -26.369429     5A    -20.574628     6A    -20.574493
       7A    -11.550768     8A    -11.289519     9A    -11.285837
      10A    -11.283440    11A    -11.283048    12A    -11.266772
      13A    -11.265050    14A    -11.251586    15A     -9.185425
      16A     -6.870276    17A     -6.869550    18A     -6.869242
      19A     -1.757401    20A     -1.665700    21A     -1.664845
      22A     -1.466517    23A     -1.358960    24A     -1.201452
      25A     -1.104219    26A     -1.050081    27A     -1.039732
      28A     -0.980752    29A     -0.918514    30A     -0.872393
      31A     -0.856372    32A     -0.851061    33A     -0.844314
      34A     -0.797396    35A     -0.743770    36A     -0.737109
      37A     -0.726243    38A     -0.695947    39A     -0.693661
      40A     -0.685392    41A     -0.678577    42A     -0.669219
      43A     -0.665081    44A     -0.647447    45A     -0.641538
      46A     -0.619927    47A     -0.604389    48A     -0.570887
      49A     -0.543779    50A     -0.535532    51A     -0.526541
      52A     -0.523456    53A     -0.514654    54A     -0.497208
      55A     -0.467972    56A     -0.379244    57A     -0.367601

  @DF-RHF Final Energy: -1152.82746486862106

   => Energetics <=

    Nuclear Repulsion Energy =           1103.6086070789788209
    One-Electron Energy =               -3783.0431325528493289
    Two-Electron Energy =                1526.6070606052494441
    Total Energy =                      -1152.8274648686210639
  Basis Set: (AUG-CC-PVTZ AUX)
    Blend: AUG-CC-PVTZ-RI
    Molecular point group: c1

    Geometry (in Angstrom), charge = 0, multiplicity = 1:

       Center              X                  Y                   Z               Mass
    ------------   -----------------  -----------------  -----------------  -----------------
         S            1.115154739813     0.003394376611    -0.870655315368    31.972071174400
         F            1.458379739813    -1.090955623389     1.494553684632    18.998403162730
         F            3.185491739813     0.001450376611     0.722406684632    18.998403162730
         F            1.458408739813     1.092041376611     1.497179684632    18.998403162730
         O            1.485932739813    -1.283272623389    -1.463313315368    15.994914619570
         O            1.485929739813     1.291490376611    -1.460203315368    15.994914619570
         C           -0.610779260187     0.002937376611    -0.494012315368    12.000000000000
         C           -1.270638260187    -1.218049623389    -0.338995315368    12.000000000000
         C           -1.247017860187     1.179844376611    -0.341722315368    12.000000000000
         C           -3.324431260187     0.002174376611     0.137836684632    12.000000000000
         C            1.853624739813     0.001346376611     0.824115684632    12.000000000000
         C           -2.628778260187    -1.203734623389    -0.027777315368    12.000000000000
         C           -2.628783260187     1.208480376611    -0.024884315368    12.000000000000
         C           -4.782301260187     0.001719376611     0.513749684632    12.000000000000
         H           -0.734800260187    -2.151258623389    -0.488860315368     1.007825032230
         H           -0.734808260187     2.157114376611    -0.483694315368     1.007825032230
         H           -3.158914260187    -2.147537623389     0.083964684632     1.007825032230
         H           -3.158922260187     2.152011376611     0.089121684632     1.007825032230
         H           -5.289677260187     0.887959376611     0.123347684632     1.007825032230
         H           -5.289690260187    -0.883542623389     0.121150684632     1.007825032230
         H           -4.903910260187     0.000369376611     1.602370684632     1.007825032230

  Basis Set: AUG-CC-PVTZ
    Blend: AUG-CC-PVTZ
  Basis Set: (AUG-CC-PVTZ AUX)
    Blend: AUG-CC-PVTZ-JKFIT
	 Reference Energy          =   -1152.8274648686210639 [Eh]
	 Singles Energy            =      -0.0000000000000000 [Eh]
	 Same-Spin Energy          =      -0.7697357590080068 [Eh]
	 Opposite-Spin Energy      =      -2.2427681985206056 [Eh]
	 Correlation Energy        =      -3.0125039575286126 [Eh]
	 Total Energy              =   -1155.8399688261497431 [Eh]

	 ================> DF-SCS-MP2 Energies <==================
	-----------------------------------------------------------
	 SCS Same-Spin Scale       =       0.3333333333333333 [-]
	 SCS Opposite-Spin Scale   =       1.2000000000000000 [-]
	 SCS Same-Spin Energy      =      -0.2565785863360023 [Eh]
	 SCS Opposite-Spin Energy  =      -2.6913218382247268 [Eh]
	 SCS Correlation Energy    =      -2.9479004245607290 [Eh]
	 SCS Total Energy          =   -1155.7753652931817214 [Eh]
	-----------------------------------------------------------

  Dipole Moment: [D]
     X:    -5.3873      Y:     0.0201      Z:     2.1301     Total:     5.7932

*** Psi4 exiting successfully. Buy a developer a beer!
