                               Psi4 1.4a3.dev225

  ==> Input File <==

--------------------------------------------------------------------------
#psi4
#
memory 32 gb

molecule  {
0 1
  S        1.2742241     0.0569160    -0.8708690
  F        1.5874080    -1.0933110     1.5061340
  F        3.3145200    -0.0009050     0.7339870
  F        1.5874370     1.0896860     1.5087600
  O        1.6149610    -1.2856280    -1.4517330
  O        1.6149580     1.2891350    -1.4486230
  C       -0.4817510     0.0005820    -0.4824320
  C       -1.1416100    -1.2204050    -0.3274150
  C       -1.1416150     1.2211910    -0.3244870
  C       -3.1954030    -0.0001810     0.1494170
  C        1.9826530    -0.0010090     0.8356960
  C       -2.4997500    -1.2060900    -0.0161970
  C       -2.4997550     1.2061250    -0.0133040
  C       -4.6532730    -0.0006360     0.5253300
  H       -0.6057720    -2.1536140    -0.4772800
  H       -0.6057800     2.1547590    -0.4721140
  H       -3.0298860    -2.1498930     0.0955450
  H       -3.0298940     2.1496560     0.1007020
  H       -5.1606490     0.8856040     0.1349280
  H       -5.1606620    -0.8858980     0.1327310
  H       -4.7748820    -0.0019860     1.6139510
units angstrom
no_reorient  #important for SAPT in psi4, default
symmetry c1  #important for SAPT in psi4, default
}

set PROPERTIES_ORIGIN ["COM"]
properties('MP2/aug-cc-pvtz', properties = ['dipole'])
--------------------------------------------------------------------------

    Molecular point group: c1
  Charge       = 0
  Multiplicity = 1
  Basis Set: AUG-CC-PVTZ
    Blend: AUG-CC-PVTZ
  Basis Set: (AUG-CC-PVTZ AUX)
    Blend: AUG-CC-PVTZ-JKFIT

    Orbital Energies [Eh]
    ---------------------

    Doubly Occupied:

       1A    -92.215621     2A    -26.372322     3A    -26.372008
       4A    -26.369157     5A    -20.588278     6A    -20.566475
       7A    -11.550474     8A    -11.291782     9A    -11.284147
      10A    -11.281279    11A    -11.280989    12A    -11.262924
      13A    -11.262871    14A    -11.250382    15A     -9.184875
      16A     -6.869686    17A     -6.869224    18A     -6.868577
      19A     -1.757492    20A     -1.665838    21A     -1.664900
      22A     -1.488683    23A     -1.357304    24A     -1.194233
      25A     -1.095360    26A     -1.050824    27A     -1.038796
      28A     -0.976818    29A     -0.916485    30A     -0.866697
      31A     -0.856454    32A     -0.851089    33A     -0.842898
      34A     -0.796053    35A     -0.745301    36A     -0.736863
      37A     -0.726728    38A     -0.696096    39A     -0.693793
      40A     -0.682316    41A     -0.678637    42A     -0.673790
      43A     -0.669413    44A     -0.652914    45A     -0.640070
      46A     -0.622659    47A     -0.602919    48A     -0.567992
      49A     -0.547236    50A     -0.533654    51A     -0.526345
      52A     -0.523895    53A     -0.517035    54A     -0.497354
      55A     -0.463243    56A     -0.370605    57A     -0.369567

  @DF-RHF Final Energy: -1152.82504285449454

   => Energetics <=

    Nuclear Repulsion Energy =           1102.1663143166927057
    One-Electron Energy =               -3780.1838763902615028
    Two-Electron Energy =                1525.1925192190744838
    Total Energy =                      -1152.8250428544945407
  Basis Set: (AUG-CC-PVTZ AUX)
    Blend: AUG-CC-PVTZ-RI
    Molecular point group: c1

    Geometry (in Angstrom), charge = 0, multiplicity = 1:

       Center              X                  Y                   Z               Mass
    ------------   -----------------  -----------------  -----------------  -----------------
         S            1.142173806464     0.048955283696    -0.881068948397    31.972071174400
         F            1.455357706464    -1.101271716304     1.495934051603    18.998403162730
         F            3.182469706464    -0.008865716304     0.723787051603    18.998403162730
         F            1.455386706464     1.081725283696     1.498560051603    18.998403162730
         O            1.482910706464    -1.293588716304    -1.461932948397    15.994914619570
         O            1.482907706464     1.281174283696    -1.458822948397    15.994914619570
         C           -0.613801293536    -0.007378716304    -0.492631948397    12.000000000000
         C           -1.273660293536    -1.228365716304    -0.337614948397    12.000000000000
         C           -1.273665293536     1.213230283696    -0.334686948397    12.000000000000
         C           -3.327453293536    -0.008141716304     0.139217051603    12.000000000000
         C            1.850602706464    -0.008969716304     0.825496051603    12.000000000000
         C           -2.631800293536    -1.214050716304    -0.026396948397    12.000000000000
         C           -2.631805293536     1.198164283696    -0.023503948397    12.000000000000
         C           -4.785323293536    -0.008596716304     0.515130051603    12.000000000000
         H           -0.737822293536    -2.161574716304    -0.487479948397     1.007825032230
         H           -0.737830293536     2.146798283696    -0.482313948397     1.007825032230
         H           -3.161936293536    -2.157853716304     0.085345051603     1.007825032230
         H           -3.161944293536     2.141695283696     0.090502051603     1.007825032230
         H           -5.292699293536     0.877643283696     0.124728051603     1.007825032230
         H           -5.292712293536    -0.893858716304     0.122531051603     1.007825032230
         H           -4.906932293536    -0.009946716304     1.603751051603     1.007825032230

  Basis Set: AUG-CC-PVTZ
    Blend: AUG-CC-PVTZ
  Basis Set: (AUG-CC-PVTZ AUX)
    Blend: AUG-CC-PVTZ-JKFIT
	 Reference Energy          =   -1152.8250428544945407 [Eh]
	 Singles Energy            =      -0.0000000000000000 [Eh]
	 Same-Spin Energy          =      -0.7691285387221655 [Eh]
	 Opposite-Spin Energy      =      -2.2419352236965793 [Eh]
	 Correlation Energy        =      -3.0110637624187446 [Eh]
	 Total Energy              =   -1155.8361066169131846 [Eh]

	 ================> DF-SCS-MP2 Energies <==================
	-----------------------------------------------------------
	 SCS Same-Spin Scale       =       0.3333333333333333 [-]
	 SCS Opposite-Spin Scale   =       1.2000000000000000 [-]
	 SCS Same-Spin Energy      =      -0.2563761795740551 [Eh]
	 SCS Opposite-Spin Energy  =      -2.6903222684358949 [Eh]
	 SCS Correlation Energy    =      -2.9466984480099501 [Eh]
	 SCS Total Energy          =   -1155.7717413025045516 [Eh]
	-----------------------------------------------------------

  Dipole Moment: [D]
     X:    -5.0577      Y:     0.4326      Z:     2.0122     Total:     5.4604

*** Psi4 exiting successfully. Buy a developer a beer!
