                               Psi4 1.4a3.dev225

  ==> Input File <==

--------------------------------------------------------------------------
#psi4
#
memory 32 gb

molecule  {
0 1
  S        1.2441830     0.0010390    -0.8590750
  F        1.5874080    -1.0933110     1.5061340
  F        3.3145200    -0.0009050     0.7339870
  F        1.5874370     1.0896860     1.5087600
  O        1.6149610    -1.2856280    -1.4517330
  O        1.6149580     1.2891350    -1.4486230
  C       -0.4817510     0.0005820    -0.4824320
  C       -1.1416100    -1.2204050    -0.3274150
  C       -1.1416150     1.2211910    -0.3244870
  C       -3.2758688    -0.0529955     0.1670800
  C        1.9826530    -0.0010090     0.8356960
  C       -2.4997500    -1.2060900    -0.0161970
  C       -2.4997550     1.2061250    -0.0133040
  C       -4.6532730    -0.0006360     0.5253300
  H       -0.6057720    -2.1536140    -0.4772800
  H       -0.6057800     2.1547590    -0.4721140
  H       -3.0298860    -2.1498930     0.0955450
  H       -3.0298940     2.1496560     0.1007020
  H       -5.1606490     0.8856040     0.1349280
  H       -5.1606620    -0.8858980     0.1327310
  H       -4.7748820    -0.0019860     1.6139510
units angstrom
no_reorient  #important for SAPT in psi4, default
symmetry c1  #important for SAPT in psi4, default
}

set PROPERTIES_ORIGIN ["COM"]
properties('MP2/aug-cc-pvtz', properties = ['dipole'])
--------------------------------------------------------------------------

    Molecular point group: c1
  Charge       = 0
  Multiplicity = 1
  Basis Set: AUG-CC-PVTZ
    Blend: AUG-CC-PVTZ
  Basis Set: (AUG-CC-PVTZ AUX)
    Blend: AUG-CC-PVTZ-JKFIT

    Orbital Energies [Eh]
    ---------------------

    Doubly Occupied:

       1A    -92.215388     2A    -26.370829     3A    -26.370804
       4A    -26.368300     5A    -20.573352     6A    -20.573229
       7A    -11.549427     8A    -11.294888     9A    -11.292404
      10A    -11.286542    11A    -11.281611    12A    -11.272113
      13A    -11.265071    14A    -11.251711    15A     -9.184091
      16A     -6.868949    17A     -6.868221    18A     -6.867937
      19A     -1.756250    20A     -1.664545    21A     -1.663734
      22A     -1.465140    23A     -1.357729    24A     -1.192457
      25A     -1.108293    26A     -1.049269    27A     -1.042162
      28A     -0.986458    29A     -0.916734    30A     -0.865843
      31A     -0.854207    32A     -0.849928    33A     -0.843028
      34A     -0.794547    35A     -0.742260    36A     -0.735999
      37A     -0.725197    38A     -0.694889    39A     -0.692892
      40A     -0.683341    41A     -0.677456    42A     -0.676670
      43A     -0.666366    44A     -0.647175    45A     -0.635847
      46A     -0.619716    47A     -0.614503    48A     -0.576429
      49A     -0.566641    50A     -0.529395    51A     -0.522416
      52A     -0.514207    53A     -0.506372    54A     -0.496236
      55A     -0.467747    56A     -0.374443    57A     -0.361731

  @DF-RHF Final Energy: -1152.81659295798795

   => Energetics <=

    Nuclear Repulsion Energy =           1101.3689923269646442
    One-Electron Energy =               -3778.5849406105994603
    Two-Electron Energy =                1524.3993553256470932
    Total Energy =                      -1152.8165929579879503
  Basis Set: (AUG-CC-PVTZ AUX)
    Blend: AUG-CC-PVTZ-RI
    Molecular point group: c1

    Geometry (in Angstrom), charge = 0, multiplicity = 1:

       Center              X                  Y                   Z               Mass
    ------------   -----------------  -----------------  -----------------  -----------------
         S            1.120730758243     0.003882520353    -0.871904427663    31.972071174400
         F            1.463955758243    -1.090467479647     1.493304572337    18.998403162730
         F            3.191067758243     0.001938520353     0.721157572337    18.998403162730
         F            1.463984758243     1.092529520353     1.495930572337    18.998403162730
         O            1.491508758243    -1.282784479647    -1.464562427663    15.994914619570
         O            1.491505758243     1.291978520353    -1.461452427663    15.994914619570
         C           -0.605203241757     0.003425520353    -0.495261427663    12.000000000000
         C           -1.265062241757    -1.217561479647    -0.340244427663    12.000000000000
         C           -1.265067241757     1.224034520353    -0.337316427663    12.000000000000
         C           -3.399321041757    -0.050151979647     0.154250572337    12.000000000000
         C            1.859200758243     0.001834520353     0.822866572337    12.000000000000
         C           -2.623202241757    -1.203246479647    -0.029026427663    12.000000000000
         C           -2.623207241757     1.208968520353    -0.026133427663    12.000000000000
         C           -4.776725241757     0.002207520353     0.512500572337    12.000000000000
         H           -0.729224241757    -2.150770479647    -0.490109427663     1.007825032230
         H           -0.729232241757     2.157602520353    -0.484943427663     1.007825032230
         H           -3.153338241757    -2.147049479647     0.082715572337     1.007825032230
         H           -3.153346241757     2.152499520353     0.087872572337     1.007825032230
         H           -5.284101241757     0.888447520353     0.122098572337     1.007825032230
         H           -5.284114241757    -0.883054479647     0.119901572337     1.007825032230
         H           -4.898334241757     0.000857520353     1.601121572337     1.007825032230

  Basis Set: AUG-CC-PVTZ
    Blend: AUG-CC-PVTZ
  Basis Set: (AUG-CC-PVTZ AUX)
    Blend: AUG-CC-PVTZ-JKFIT
	 Reference Energy          =   -1152.8165929579879503 [Eh]
	 Singles Energy            =      -0.0000000000000000 [Eh]
	 Same-Spin Energy          =      -0.7707832844082543 [Eh]
	 Opposite-Spin Energy      =      -2.2446143440835087 [Eh]
	 Correlation Energy        =      -3.0153976284917627 [Eh]
	 Total Energy              =   -1155.8319905864796056 [Eh]

	 ================> DF-SCS-MP2 Energies <==================
	-----------------------------------------------------------
	 SCS Same-Spin Scale       =       0.3333333333333333 [-]
	 SCS Opposite-Spin Scale   =       1.2000000000000000 [-]
	 SCS Same-Spin Energy      =      -0.2569277614694181 [Eh]
	 SCS Opposite-Spin Energy  =      -2.6935372129002104 [Eh]
	 SCS Correlation Energy    =      -2.9504649743696283 [Eh]
	 SCS Total Energy          =   -1155.7670579323576021 [Eh]
	-----------------------------------------------------------

  Dipole Moment: [D]
     X:    -5.6015      Y:     0.0139      Z:     2.1883     Total:     6.0138

*** Psi4 exiting successfully. Buy a developer a beer!
