                               Psi4 1.4a3.dev225

  ==> Input File <==

--------------------------------------------------------------------------
#psi4
#
memory 32 gb

molecule  {
0 1
  S        1.2441830     0.0010390    -0.8590750
  F        1.5874080    -1.0933110     1.5061340
  F        3.3145200    -0.0009050     0.7339870
  F        1.5874370     1.0896860     1.5087600
  O        1.6149610    -1.2856280    -1.4517330
  O        1.6149580     1.2891350    -1.4486230
  C       -0.4817510     0.0005820    -0.4824320
  C       -1.2361108    -1.3952670    -0.3052144
  C       -1.1416150     1.2211910    -0.3244870
  C       -3.1954030    -0.0001810     0.1494170
  C        1.9826530    -0.0010090     0.8356960
  C       -2.4997500    -1.2060900    -0.0161970
  C       -2.4997550     1.2061250    -0.0133040
  C       -4.6532730    -0.0006360     0.5253300
  H       -0.6057720    -2.1536140    -0.4772800
  H       -0.6057800     2.1547590    -0.4721140
  H       -3.0298860    -2.1498930     0.0955450
  H       -3.0298940     2.1496560     0.1007020
  H       -5.1606490     0.8856040     0.1349280
  H       -5.1606620    -0.8858980     0.1327310
  H       -4.7748820    -0.0019860     1.6139510
units angstrom
no_reorient  #important for SAPT in psi4, default
symmetry c1  #important for SAPT in psi4, default
}

set PROPERTIES_ORIGIN ["COM"]
properties('MP2/aug-cc-pvtz', properties = ['dipole'])
--------------------------------------------------------------------------

    Molecular point group: c1
  Charge       = 0
  Multiplicity = 1
  Basis Set: AUG-CC-PVTZ
    Blend: AUG-CC-PVTZ
  Basis Set: (AUG-CC-PVTZ AUX)
    Blend: AUG-CC-PVTZ-JKFIT

    Orbital Energies [Eh]
    ---------------------

    Doubly Occupied:

       1A    -92.213425     2A    -26.369584     3A    -26.369069
       4A    -26.366666     5A    -20.571626     6A    -20.570790
       7A    -11.547393     8A    -11.300486     9A    -11.293219
      10A    -11.289323    11A    -11.287747    12A    -11.266426
      13A    -11.260599    14A    -11.255167    15A     -9.181819
      16A     -6.866692    17A     -6.865950    18A     -6.865714
      19A     -1.754704    20A     -1.663102    21A     -1.662177
      22A     -1.462732    23A     -1.355704    24A     -1.191342
      25A     -1.091148    26A     -1.068737    27A     -1.037045
      28A     -0.979282    29A     -0.914165    30A     -0.869198
      31A     -0.856826    32A     -0.848473    33A     -0.844517
      34A     -0.791605    35A     -0.740420    36A     -0.734663
      37A     -0.726913    38A     -0.703390    39A     -0.693171
      40A     -0.690290    41A     -0.676514    42A     -0.675179
      43A     -0.664248    44A     -0.648202    45A     -0.637698
      46A     -0.618866    47A     -0.607009    48A     -0.566739
      49A     -0.557356    50A     -0.526837    51A     -0.522427
      52A     -0.515847    53A     -0.501733    54A     -0.493475
      55A     -0.460557    56A     -0.393677    57A     -0.357196

  @DF-RHF Final Energy: -1152.78959646851308

   => Energetics <=

    Nuclear Repulsion Energy =           1098.8239857805324391
    One-Electron Energy =               -3773.5374498775972825
    Two-Electron Energy =                1521.9238676285517613
    Total Energy =                      -1152.7895964685130821
  Basis Set: (AUG-CC-PVTZ AUX)
    Blend: AUG-CC-PVTZ-RI
    Molecular point group: c1

    Geometry (in Angstrom), charge = 0, multiplicity = 1:

       Center              X                  Y                   Z               Mass
    ------------   -----------------  -----------------  -----------------  -----------------
         S            1.121482593352     0.010420432389    -0.872147500480    31.972071174400
         F            1.464707593352    -1.083929567611     1.493061499520    18.998403162730
         F            3.191819593352     0.008476432389     0.720914499520    18.998403162730
         F            1.464736593352     1.099067432389     1.495687499520    18.998403162730
         O            1.492260593352    -1.276246567611    -1.464805500480    15.994914619570
         O            1.492257593352     1.298516432389    -1.461695500480    15.994914619570
         C           -0.604451406648     0.009963432389    -0.495504500480    12.000000000000
         C           -1.358811206648    -1.385885567611    -0.318286900480    12.000000000000
         C           -1.264315406648     1.230572432389    -0.337559500480    12.000000000000
         C           -3.318103406648     0.009200432389     0.136344499520    12.000000000000
         C            1.859952593352     0.008372432389     0.822623499520    12.000000000000
         C           -2.622450406648    -1.196708567611    -0.029269500480    12.000000000000
         C           -2.622455406648     1.215506432389    -0.026376500480    12.000000000000
         C           -4.775973406648     0.008745432389     0.512257499520    12.000000000000
         H           -0.728472406648    -2.144232567611    -0.490352500480     1.007825032230
         H           -0.728480406648     2.164140432389    -0.485186500480     1.007825032230
         H           -3.152586406648    -2.140511567611     0.082472499520     1.007825032230
         H           -3.152594406648     2.159037432389     0.087629499520     1.007825032230
         H           -5.283349406648     0.894985432389     0.121855499520     1.007825032230
         H           -5.283362406648    -0.876516567611     0.119658499520     1.007825032230
         H           -4.897582406648     0.007395432389     1.600878499520     1.007825032230

  Basis Set: AUG-CC-PVTZ
    Blend: AUG-CC-PVTZ
  Basis Set: (AUG-CC-PVTZ AUX)
    Blend: AUG-CC-PVTZ-JKFIT
	 Reference Energy          =   -1152.7895964685130821 [Eh]
	 Singles Energy            =      -0.0000000000000000 [Eh]
	 Same-Spin Energy          =      -0.7693448713706009 [Eh]
	 Opposite-Spin Energy      =      -2.2452546191846152 [Eh]
	 Correlation Energy        =      -3.0145994905552160 [Eh]
	 Total Energy              =   -1155.8041959590682382 [Eh]

	 ================> DF-SCS-MP2 Energies <==================
	-----------------------------------------------------------
	 SCS Same-Spin Scale       =       0.3333333333333333 [-]
	 SCS Opposite-Spin Scale   =       1.2000000000000000 [-]
	 SCS Same-Spin Energy      =      -0.2564482904568670 [Eh]
	 SCS Opposite-Spin Energy  =      -2.6943055430215384 [Eh]
	 SCS Correlation Energy    =      -2.9507538334784051 [Eh]
	 SCS Total Energy          =   -1155.7403503019913842 [Eh]
	-----------------------------------------------------------

  Dipole Moment: [D]
     X:    -5.5411      Y:     0.0493      Z:     2.1517     Total:     5.9444

*** Psi4 exiting successfully. Buy a developer a beer!
