                               Psi4 1.4a3.dev225

  ==> Input File <==

--------------------------------------------------------------------------
#psi4
#
memory 32 gb

molecule  {
0 1
  S        1.2441830     0.0010390    -0.8590750
  F        1.5874080    -1.0933110     1.5061340
  F        3.3145200    -0.0009050     0.7339870
  F        1.5874370     1.0896860     1.5087600
  O        1.6149610    -1.2856280    -1.4517330
  O        1.6149580     1.2891350    -1.4486230
  C       -0.4817510     0.0005820    -0.4824320
  C       -1.0471092    -1.0455430    -0.3496156
  C       -1.1416150     1.2211910    -0.3244870
  C       -3.1954030    -0.0001810     0.1494170
  C        1.9826530    -0.0010090     0.8356960
  C       -2.4997500    -1.2060900    -0.0161970
  C       -2.4997550     1.2061250    -0.0133040
  C       -4.6532730    -0.0006360     0.5253300
  H       -0.6057720    -2.1536140    -0.4772800
  H       -0.6057800     2.1547590    -0.4721140
  H       -3.0298860    -2.1498930     0.0955450
  H       -3.0298940     2.1496560     0.1007020
  H       -5.1606490     0.8856040     0.1349280
  H       -5.1606620    -0.8858980     0.1327310
  H       -4.7748820    -0.0019860     1.6139510
units angstrom
no_reorient  #important for SAPT in psi4, default
symmetry c1  #important for SAPT in psi4, default
}

set PROPERTIES_ORIGIN ["COM"]
properties('MP2/aug-cc-pvtz', properties = ['dipole'])
--------------------------------------------------------------------------

    Molecular point group: c1
  Charge       = 0
  Multiplicity = 1
  Basis Set: AUG-CC-PVTZ
    Blend: AUG-CC-PVTZ
  Basis Set: (AUG-CC-PVTZ AUX)
    Blend: AUG-CC-PVTZ-JKFIT

    Orbital Energies [Eh]
    ---------------------

    Doubly Occupied:

       1A    -92.217685     2A    -26.374154     3A    -26.373517
       4A    -26.371368     5A    -20.576694     6A    -20.576410
       7A    -11.553143     8A    -11.280779     9A    -11.278942
      10A    -11.277907    11A    -11.273695    12A    -11.271904
      13A    -11.265359    14A    -11.249045    15A     -9.187023
      16A     -6.871827    17A     -6.871106    18A     -6.870728
      19A     -1.759294    20A     -1.667577    21A     -1.666662
      22A     -1.468812    23A     -1.360810    24A     -1.219233
      25A     -1.116116    26A     -1.042532    27A     -1.041338
      28A     -0.978118    29A     -0.924001    30A     -0.881466
      31A     -0.856773    32A     -0.852874    33A     -0.841874
      34A     -0.793869    35A     -0.746426    36A     -0.738769
      37A     -0.728575    38A     -0.697594    39A     -0.695597
      40A     -0.690298    41A     -0.680398    42A     -0.670959
      43A     -0.658532    44A     -0.652319    45A     -0.644516
      46A     -0.603125    47A     -0.599908    48A     -0.572843
      49A     -0.551858    50A     -0.541067    51A     -0.528857
      52A     -0.523164    53A     -0.508003    54A     -0.495302
      55A     -0.460060    56A     -0.398216    57A     -0.354737

  @DF-RHF Final Energy: -1152.76818062266352

   => Energetics <=

    Nuclear Repulsion Energy =           1106.9420331712699408
    One-Electron Energy =               -3789.5129112702393286
    Two-Electron Energy =                1529.8026974763058661
    Total Energy =                      -1152.7681806226635217
  Basis Set: (AUG-CC-PVTZ AUX)
    Blend: AUG-CC-PVTZ-RI
    Molecular point group: c1

    Geometry (in Angstrom), charge = 0, multiplicity = 1:

       Center              X                  Y                   Z               Mass
    ------------   -----------------  -----------------  -----------------  -----------------
         S            1.111358044832    -0.008313787885    -0.869768990966    31.972071174400
         F            1.454583044832    -1.102663787885     1.495440009034    18.998403162730
         F            3.181695044832    -0.010257787885     0.723293009034    18.998403162730
         F            1.454612044832     1.080333212115     1.498066009034    18.998403162730
         O            1.482136044832    -1.294980787885    -1.462426990966    15.994914619570
         O            1.482133044832     1.279782212115    -1.459316990966    15.994914619570
         C           -0.614575955168    -0.008770787885    -0.493125990966    12.000000000000
         C           -1.179934155168    -1.054895787885    -0.360309590966    12.000000000000
         C           -1.274439955168     1.211838212115    -0.335180990966    12.000000000000
         C           -3.328227955168    -0.009533787885     0.138723009034    12.000000000000
         C            1.849828044832    -0.010361787885     0.825002009034    12.000000000000
         C           -2.632574955168    -1.215442787885    -0.026890990966    12.000000000000
         C           -2.632579955168     1.196772212115    -0.023997990966    12.000000000000
         C           -4.786097955168    -0.009988787885     0.514636009034    12.000000000000
         H           -0.738596955168    -2.162966787885    -0.487973990966     1.007825032230
         H           -0.738604955168     2.145406212115    -0.482807990966     1.007825032230
         H           -3.162710955168    -2.159245787885     0.084851009034     1.007825032230
         H           -3.162718955168     2.140303212115     0.090008009034     1.007825032230
         H           -5.293473955168     0.876251212115     0.124234009034     1.007825032230
         H           -5.293486955168    -0.895250787885     0.122037009034     1.007825032230
         H           -4.907706955168    -0.011338787885     1.603257009034     1.007825032230

  Basis Set: AUG-CC-PVTZ
    Blend: AUG-CC-PVTZ
  Basis Set: (AUG-CC-PVTZ AUX)
    Blend: AUG-CC-PVTZ-JKFIT
	 Reference Energy          =   -1152.7681806226635217 [Eh]
	 Singles Energy            =      -0.0000000000000000 [Eh]
	 Same-Spin Energy          =      -0.7696986596507924 [Eh]
	 Opposite-Spin Energy      =      -2.2446819169868837 [Eh]
	 Correlation Energy        =      -3.0143805766376763 [Eh]
	 Total Energy              =   -1155.7825611993011989 [Eh]

	 ================> DF-SCS-MP2 Energies <==================
	-----------------------------------------------------------
	 SCS Same-Spin Scale       =       0.3333333333333333 [-]
	 SCS Opposite-Spin Scale   =       1.2000000000000000 [-]
	 SCS Same-Spin Energy      =      -0.2565662198835975 [Eh]
	 SCS Opposite-Spin Energy  =      -2.6936183003842604 [Eh]
	 SCS Correlation Energy    =      -2.9501845202678578 [Eh]
	 SCS Total Energy          =   -1155.7183651429313613 [Eh]
	-----------------------------------------------------------

  Dipole Moment: [D]
     X:    -5.2435      Y:    -0.0926      Z:     2.1080     Total:     5.6521

*** Psi4 exiting successfully. Buy a developer a beer!
