                               Psi4 1.4a3.dev225

  ==> Input File <==

--------------------------------------------------------------------------
#psi4
#
memory 32 gb

molecule  {
0 1
  S        1.2441830     0.0010390    -0.8590750
  F        1.5874080    -1.0933110     1.5061340
  F        3.3145200    -0.0009050     0.7339870
  F        1.5874370     1.0896860     1.5087600
  O        1.6149610    -1.2856280    -1.4517330
  O        1.6149580     1.2891350    -1.4486230
  C       -0.4817510     0.0005820    -0.4824320
  C       -1.1416100    -1.2204050    -0.3274150
  C       -1.1416150     1.2211910    -0.3244870
  C       -3.1954030    -0.0001810     0.1494170
  C        1.9826530    -0.0010090     0.8356960
  C       -2.4997500    -1.2060900    -0.0161970
  C       -2.4997550     1.2061250    -0.0133040
  C       -4.6532730    -0.0006360     0.5253300
  H       -0.6057720    -2.1536140    -0.4772800
  H       -0.6057800     2.1547590    -0.4721140
  H       -3.0298860    -2.1498930     0.0955450
  H       -3.0055367     2.1063053     0.0954640
  H       -5.1606490     0.8856040     0.1349280
  H       -5.1606620    -0.8858980     0.1327310
  H       -4.7748820    -0.0019860     1.6139510
units angstrom
no_reorient  #important for SAPT in psi4, default
symmetry c1  #important for SAPT in psi4, default
}

set PROPERTIES_ORIGIN ["COM"]
properties('MP2/aug-cc-pvtz', properties = ['dipole'])
--------------------------------------------------------------------------

    Molecular point group: c1
  Charge       = 0
  Multiplicity = 1
  Basis Set: AUG-CC-PVTZ
    Blend: AUG-CC-PVTZ
  Basis Set: (AUG-CC-PVTZ AUX)
    Blend: AUG-CC-PVTZ-JKFIT

    Orbital Energies [Eh]
    ---------------------

    Doubly Occupied:

       1A    -92.215932     2A    -26.371333     3A    -26.371309
       4A    -26.368739     5A    -20.573787     6A    -20.573756
       7A    -11.549927     8A    -11.292725     9A    -11.287136
      10A    -11.284476    11A    -11.284219    12A    -11.264773
      13A    -11.259295    14A    -11.252493    15A     -9.184633
      16A     -6.869492    17A     -6.868764    18A     -6.868476
      19A     -1.756733    20A     -1.665051    21A     -1.664190
      22A     -1.465631    23A     -1.358205    24A     -1.198066
      25A     -1.100830    26A     -1.054797    27A     -1.038923
      28A     -0.981085    29A     -0.917199    30A     -0.872258
      31A     -0.856728    32A     -0.850420    33A     -0.845003
      34A     -0.798633    35A     -0.743296    36A     -0.736513
      37A     -0.726264    38A     -0.695359    39A     -0.693155
      40A     -0.683689    41A     -0.677926    42A     -0.672963
      43A     -0.666592    44A     -0.646965    45A     -0.642199
      46A     -0.626720    47A     -0.605013    48A     -0.571262
      49A     -0.545623    50A     -0.532479    51A     -0.527634
      52A     -0.522735    53A     -0.514625    54A     -0.496953
      55A     -0.467949    56A     -0.373760    57A     -0.372111

  @DF-RHF Final Energy: -1152.82982735068845

   => Energetics <=

    Nuclear Repulsion Energy =           1102.8855791723324273
    One-Electron Energy =               -3781.6172106427088693
    Two-Electron Energy =                1525.9018041196882223
    Total Energy =                      -1152.8298273506884470
  Basis Set: (AUG-CC-PVTZ AUX)
    Blend: AUG-CC-PVTZ-RI
    Molecular point group: c1

    Geometry (in Angstrom), charge = 0, multiplicity = 1:

       Center              X                  Y                   Z               Mass
    ------------   -----------------  -----------------  -----------------  -----------------
         S            1.116310736082     0.001248356193    -0.870934680065    31.972071174400
         F            1.459535736082    -1.093101643807     1.494274319935    18.998403162730
         F            3.186647736082    -0.000695643807     0.722127319935    18.998403162730
         F            1.459564736082     1.089895356193     1.496900319935    18.998403162730
         O            1.487088736082    -1.285418643807    -1.463592680065    15.994914619570
         O            1.487085736082     1.289344356193    -1.460482680065    15.994914619570
         C           -0.609623263918     0.000791356193    -0.494291680065    12.000000000000
         C           -1.269482263918    -1.220195643807    -0.339274680065    12.000000000000
         C           -1.269487263918     1.221400356193    -0.336346680065    12.000000000000
         C           -3.323275263918     0.000028356193     0.137557319935    12.000000000000
         C            1.854780736082    -0.000799643807     0.823836319935    12.000000000000
         C           -2.627622263918    -1.205880643807    -0.028056680065    12.000000000000
         C           -2.627627263918     1.206334356193    -0.025163680065    12.000000000000
         C           -4.781145263918    -0.000426643807     0.513470319935    12.000000000000
         H           -0.733644263918    -2.153404643807    -0.489139680065     1.007825032230
         H           -0.733652263918     2.154968356193    -0.483973680065     1.007825032230
         H           -3.157758263918    -2.149683643807     0.083685319935     1.007825032230
         H           -3.133408963918     2.106514656193     0.083604319935     1.007825032230
         H           -5.288521263918     0.885813356193     0.123068319935     1.007825032230
         H           -5.288534263918    -0.885688643807     0.120871319935     1.007825032230
         H           -4.902754263918    -0.001776643807     1.602091319935     1.007825032230

  Basis Set: AUG-CC-PVTZ
    Blend: AUG-CC-PVTZ
  Basis Set: (AUG-CC-PVTZ AUX)
    Blend: AUG-CC-PVTZ-JKFIT
	 Reference Energy          =   -1152.8298273506884470 [Eh]
	 Singles Energy            =      -0.0000000000000000 [Eh]
	 Same-Spin Energy          =      -0.7695721915095862 [Eh]
	 Opposite-Spin Energy      =      -2.2423496974831303 [Eh]
	 Correlation Energy        =      -3.0119218889927164 [Eh]
	 Total Energy              =   -1155.8417492396811213 [Eh]

	 ================> DF-SCS-MP2 Energies <==================
	-----------------------------------------------------------
	 SCS Same-Spin Scale       =       0.3333333333333333 [-]
	 SCS Opposite-Spin Scale   =       1.2000000000000000 [-]
	 SCS Same-Spin Energy      =      -0.2565240638365287 [Eh]
	 SCS Opposite-Spin Energy  =      -2.6908196369797563 [Eh]
	 SCS Correlation Energy    =      -2.9473437008162851 [Eh]
	 SCS Total Energy          =   -1155.7771710515046379 [Eh]
	-----------------------------------------------------------

  Dipole Moment: [D]
     X:    -5.4327      Y:     0.0055      Z:     2.1368     Total:     5.8378

*** Psi4 exiting successfully. Buy a developer a beer!
