                               Psi4 1.4a3.dev225

  ==> Input File <==

--------------------------------------------------------------------------
#psi4
#
memory 32 gb

molecule  {
0 1
  S        1.2441830     0.0010390    -0.8590750
  F        1.5874080    -1.0933110     1.5061340
  F        3.3145200    -0.0009050     0.7339870
  F        1.5874370     1.0896860     1.5087600
  O        1.6149610    -1.2856280    -1.4517330
  O        1.6149580     1.2891350    -1.4486230
  C       -0.4817510     0.0005820    -0.4824320
  C       -1.1416100    -1.2204050    -0.3274150
  C       -1.1416150     1.2211910    -0.3244870
  C       -3.1954030    -0.0001810     0.1494170
  C        1.9826530    -0.0010090     0.8356960
  C       -2.4997500    -1.2060900    -0.0161970
  C       -2.6946919     1.2039625     0.0313608
  C       -4.6532730    -0.0006360     0.5253300
  H       -0.6057720    -2.1536140    -0.4772800
  H       -0.6057800     2.1547590    -0.4721140
  H       -3.0298860    -2.1498930     0.0955450
  H       -3.0298940     2.1496560     0.1007020
  H       -5.1606490     0.8856040     0.1349280
  H       -5.1606620    -0.8858980     0.1327310
  H       -4.7748820    -0.0019860     1.6139510
units angstrom
no_reorient  #important for SAPT in psi4, default
symmetry c1  #important for SAPT in psi4, default
}

set PROPERTIES_ORIGIN ["COM"]
properties('MP2/aug-cc-pvtz', properties = ['dipole'])
--------------------------------------------------------------------------

    Molecular point group: c1
  Charge       = 0
  Multiplicity = 1
  Basis Set: AUG-CC-PVTZ
    Blend: AUG-CC-PVTZ
  Basis Set: (AUG-CC-PVTZ AUX)
    Blend: AUG-CC-PVTZ-JKFIT

    Orbital Energies [Eh]
    ---------------------

    Doubly Occupied:

       1A    -92.217573     2A    -26.372584     3A    -26.372225
       4A    -26.369908     5A    -20.575727     6A    -20.575034
       7A    -11.551308     8A    -11.305594     9A    -11.295606
      10A    -11.282423    11A    -11.273646    12A    -11.267895
      13A    -11.266625    14A    -11.244901    15A     -9.186336
      16A     -6.871187    17A     -6.870467    18A     -6.870156
      19A     -1.757842    20A     -1.666136    21A     -1.665289
      22A     -1.467231    23A     -1.359749    24A     -1.193763
      25A     -1.111675    26A     -1.046477    27A     -1.031578
      28A     -0.973089    29A     -0.918859    30A     -0.884781
      31A     -0.855824    32A     -0.851509    33A     -0.843179
      34A     -0.799310    35A     -0.743507    36A     -0.737489
      37A     -0.725006    38A     -0.697192    39A     -0.694944
      40A     -0.693358    41A     -0.679182    42A     -0.676987
      43A     -0.668281    44A     -0.650116    45A     -0.640931
      46A     -0.615695    47A     -0.603367    48A     -0.568759
      49A     -0.546702    50A     -0.531245    51A     -0.524448
      52A     -0.519742    53A     -0.505575    54A     -0.496583
      55A     -0.462269    56A     -0.391767    57A     -0.355144

  @DF-RHF Final Energy: -1152.78807496928152

   => Energetics <=

    Nuclear Repulsion Energy =           1100.2132749706211143
    One-Electron Energy =               -3776.1551521180554118
    Two-Electron Energy =                1523.1538021781527732
    Total Energy =                      -1152.7880749692815243
  Basis Set: (AUG-CC-PVTZ AUX)
    Blend: AUG-CC-PVTZ-RI
    Molecular point group: c1

    Geometry (in Angstrom), charge = 0, multiplicity = 1:

       Center              X                  Y                   Z               Mass
    ------------   -----------------  -----------------  -----------------  -----------------
         S            1.126862813242     0.001169164320    -0.873350875917    31.972071174400
         F            1.470087813242    -1.093180835680     1.491858124083    18.998403162730
         F            3.197199813242    -0.000774835680     0.719711124083    18.998403162730
         F            1.470116813242     1.089816164320     1.494484124083    18.998403162730
         O            1.497640813242    -1.285497835680    -1.466008875917    15.994914619570
         O            1.497637813242     1.289265164320    -1.462898875917    15.994914619570
         C           -0.599071186758     0.000712164320    -0.496707875917    12.000000000000
         C           -1.258930186758    -1.220274835680    -0.341690875917    12.000000000000
         C           -1.258935186758     1.221321164320    -0.338762875917    12.000000000000
         C           -3.312723186758    -0.000050835680     0.135141124083    12.000000000000
         C            1.865332813242    -0.000878835680     0.821420124083    12.000000000000
         C           -2.617070186758    -1.205959835680    -0.030472875917    12.000000000000
         C           -2.812012086758     1.204092664320     0.017084924083    12.000000000000
         C           -4.770593186758    -0.000505835680     0.511054124083    12.000000000000
         H           -0.723092186758    -2.153483835680    -0.491555875917     1.007825032230
         H           -0.723100186758     2.154889164320    -0.486389875917     1.007825032230
         H           -3.147206186758    -2.149762835680     0.081269124083     1.007825032230
         H           -3.147214186758     2.149786164320     0.086426124083     1.007825032230
         H           -5.277969186758     0.885734164320     0.120652124083     1.007825032230
         H           -5.277982186758    -0.885767835680     0.118455124083     1.007825032230
         H           -4.892202186758    -0.001855835680     1.599675124083     1.007825032230

  Basis Set: AUG-CC-PVTZ
    Blend: AUG-CC-PVTZ
  Basis Set: (AUG-CC-PVTZ AUX)
    Blend: AUG-CC-PVTZ-JKFIT
	 Reference Energy          =   -1152.7880749692815243 [Eh]
	 Singles Energy            =      -0.0000000000000000 [Eh]
	 Same-Spin Energy          =      -0.7692238069192926 [Eh]
	 Opposite-Spin Energy      =      -2.2451290166877156 [Eh]
	 Correlation Energy        =      -3.0143528236070081 [Eh]
	 Total Energy              =   -1155.8024277928884658 [Eh]

	 ================> DF-SCS-MP2 Energies <==================
	-----------------------------------------------------------
	 SCS Same-Spin Scale       =       0.3333333333333333 [-]
	 SCS Opposite-Spin Scale   =       1.2000000000000000 [-]
	 SCS Same-Spin Energy      =      -0.2564079356397642 [Eh]
	 SCS Opposite-Spin Energy  =      -2.6941548200252585 [Eh]
	 SCS Correlation Energy    =      -2.9505627556650227 [Eh]
	 SCS Total Energy          =   -1155.7386377249465568 [Eh]
	-----------------------------------------------------------

  Dipole Moment: [D]
     X:    -5.2500      Y:     0.0787      Z:     2.0951     Total:     5.6532

*** Psi4 exiting successfully. Buy a developer a beer!
