                               Psi4 1.4a3.dev225

  ==> Input File <==

--------------------------------------------------------------------------
#psi4
#
memory 32 gb

molecule  {
0 1
  S        1.2441830     0.0010390    -0.8590750
  F        1.5874080    -1.0933110     1.5061340
  F        3.3145200    -0.0009050     0.7339870
  F        1.5874370     1.0896860     1.5087600
  O        1.6149610    -1.2856280    -1.4517330
  O        1.6149580     1.2891350    -1.4486230
  C       -0.4817510     0.0005820    -0.4824320
  C       -1.1416100    -1.2204050    -0.3274150
  C       -1.1416150     1.2211910    -0.3244870
  C       -3.2360844    -0.0258693     0.1583548
  C        1.9826530    -0.0010090     0.8356960
  C       -2.4997500    -1.2060900    -0.0161970
  C       -2.4997550     1.2061250    -0.0133040
  C       -4.6532730    -0.0006360     0.5253300
  H       -0.6057720    -2.1536140    -0.4772800
  H       -0.6057800     2.1547590    -0.4721140
  H       -3.0298860    -2.1498930     0.0955450
  H       -3.0298940     2.1496560     0.1007020
  H       -5.1606490     0.8856040     0.1349280
  H       -5.1606620    -0.8858980     0.1327310
  H       -4.7748820    -0.0019860     1.6139510
units angstrom
no_reorient  #important for SAPT in psi4, default
symmetry c1  #important for SAPT in psi4, default
}

set PROPERTIES_ORIGIN ["COM"]
properties('MP2/aug-cc-pvtz', properties = ['dipole'])
--------------------------------------------------------------------------

    Molecular point group: c1
  Charge       = 0
  Multiplicity = 1
  Basis Set: AUG-CC-PVTZ
    Blend: AUG-CC-PVTZ
  Basis Set: (AUG-CC-PVTZ AUX)
    Blend: AUG-CC-PVTZ-JKFIT

    Orbital Energies [Eh]
    ---------------------

    Doubly Occupied:

       1A    -92.215755     2A    -26.371130     3A    -26.371107
       4A    -26.368573     5A    -20.573643     6A    -20.573579
       7A    -11.549742     8A    -11.292727     9A    -11.291242
      10A    -11.285556    11A    -11.283121    12A    -11.268839
      13A    -11.265005    14A    -11.252078    15A     -9.184456
      16A     -6.869314    17A     -6.868586    18A     -6.868300
      19A     -1.756542    20A     -1.664846    21A     -1.664013
      22A     -1.465465    23A     -1.358043    24A     -1.194945
      25A     -1.103792    26A     -1.051313    27A     -1.040611
      28A     -0.983975    29A     -0.916894    30A     -0.867234
      31A     -0.855887    32A     -0.850223    33A     -0.844294
      34A     -0.795723    35A     -0.742625    36A     -0.736300
      37A     -0.725433    38A     -0.695163    39A     -0.693012
      40A     -0.683461    41A     -0.677736    42A     -0.673625
      43A     -0.666483    44A     -0.647070    45A     -0.637320
      46A     -0.622332    47A     -0.609500    48A     -0.572281
      49A     -0.557426    50A     -0.530993    51A     -0.522826
      52A     -0.517251    53A     -0.514174    54A     -0.496748
      55A     -0.467964    56A     -0.373620    57A     -0.367464

  @DF-RHF Final Energy: -1152.82643342114966

   => Energetics <=

    Nuclear Repulsion Energy =           1101.9566739215676989
    One-Electron Energy =               -3779.7714960967568913
    Two-Electron Energy =                1524.9883887540393061
    Total Energy =                      -1152.8264334211496589
  Basis Set: (AUG-CC-PVTZ AUX)
    Blend: AUG-CC-PVTZ-RI
    Molecular point group: c1

    Geometry (in Angstrom), charge = 0, multiplicity = 1:

       Center              X                  Y                   Z               Mass
    ------------   -----------------  -----------------  -----------------  -----------------
         S            1.118599564178     0.002429408168    -0.871437031034    31.972071174400
         F            1.461824564178    -1.091920591832     1.493771968966    18.998403162730
         F            3.188936564178     0.000485408168     0.721624968966    18.998403162730
         F            1.461853564178     1.091076408168     1.496397968966    18.998403162730
         O            1.489377564178    -1.284237591832    -1.464095031034    15.994914619570
         O            1.489374564178     1.290525408168    -1.460985031034    15.994914619570
         C           -0.607334435822     0.001972408168    -0.494794031034    12.000000000000
         C           -1.267193435822    -1.219014591832    -0.339777031034    12.000000000000
         C           -1.267198435822     1.222581408168    -0.336849031034    12.000000000000
         C           -3.361667835822    -0.024478891832     0.145992768966    12.000000000000
         C            1.857069564178     0.000381408168     0.823333968966    12.000000000000
         C           -2.625333435822    -1.204699591832    -0.028559031034    12.000000000000
         C           -2.625338435822     1.207515408168    -0.025666031034    12.000000000000
         C           -4.778856435822     0.000754408168     0.512967968966    12.000000000000
         H           -0.731355435822    -2.152223591832    -0.489642031034     1.007825032230
         H           -0.731363435822     2.156149408168    -0.484476031034     1.007825032230
         H           -3.155469435822    -2.148502591832     0.083182968966     1.007825032230
         H           -3.155477435822     2.151046408168     0.088339968966     1.007825032230
         H           -5.286232435822     0.886994408168     0.122565968966     1.007825032230
         H           -5.286245435822    -0.884507591832     0.120368968966     1.007825032230
         H           -4.900465435822    -0.000595591832     1.601588968966     1.007825032230

  Basis Set: AUG-CC-PVTZ
    Blend: AUG-CC-PVTZ
  Basis Set: (AUG-CC-PVTZ AUX)
    Blend: AUG-CC-PVTZ-JKFIT
	 Reference Energy          =   -1152.8264334211496589 [Eh]
	 Singles Energy            =      -0.0000000000000000 [Eh]
	 Same-Spin Energy          =      -0.7701680515929989 [Eh]
	 Opposite-Spin Energy      =      -2.2434664933424702 [Eh]
	 Correlation Energy        =      -3.0136345449354689 [Eh]
	 Total Energy              =   -1155.8400679660851438 [Eh]

	 ================> DF-SCS-MP2 Energies <==================
	-----------------------------------------------------------
	 SCS Same-Spin Scale       =       0.3333333333333333 [-]
	 SCS Opposite-Spin Scale   =       1.2000000000000000 [-]
	 SCS Same-Spin Energy      =      -0.2567226838643329 [Eh]
	 SCS Opposite-Spin Energy  =      -2.6921597920109641 [Eh]
	 SCS Correlation Energy    =      -2.9488824758752972 [Eh]
	 SCS Total Energy          =   -1155.7753158970249387 [Eh]
	-----------------------------------------------------------

  Dipole Moment: [D]
     X:    -5.5102      Y:     0.0058      Z:     2.1611     Total:     5.9189

*** Psi4 exiting successfully. Buy a developer a beer!
