                               Psi4 1.4a3.dev225

  ==> Input File <==

--------------------------------------------------------------------------
#psi4
#
memory 32 gb

molecule  {
0 1
  S        1.2441830     0.0010390    -0.8590750
  F        1.5874080    -1.0933110     1.5061340
  F        3.3145200    -0.0009050     0.7339870
  F        1.5874370     1.0896860     1.5087600
  O        1.6149610    -1.2856280    -1.4517330
  O        1.6149580     1.2891350    -1.4486230
  C       -0.4817510     0.0005820    -0.4824320
  C       -1.1416100    -1.2204050    -0.3274150
  C       -1.1416150     1.2211910    -0.3244870
  C       -3.1954030    -0.0001810     0.1494170
  C        1.9826530    -0.0010090     0.8356960
  C       -2.4997500    -1.2060900    -0.0161970
  C       -2.4997550     1.2061250    -0.0133040
  C       -4.6532730    -0.0006360     0.5253300
  H       -0.6057720    -2.1536140    -0.4772800
  H       -0.6057800     2.1547590    -0.4721140
  H       -3.0542432    -2.1932562     0.1006790
  H       -3.0298940     2.1496560     0.1007020
  H       -5.1606490     0.8856040     0.1349280
  H       -5.1606620    -0.8858980     0.1327310
  H       -4.7748820    -0.0019860     1.6139510
units angstrom
no_reorient  #important for SAPT in psi4, default
symmetry c1  #important for SAPT in psi4, default
}

set PROPERTIES_ORIGIN ["COM"]
properties('MP2/aug-cc-pvtz', properties = ['dipole'])
--------------------------------------------------------------------------

    Molecular point group: c1
  Charge       = 0
  Multiplicity = 1
  Basis Set: AUG-CC-PVTZ
    Blend: AUG-CC-PVTZ
  Basis Set: (AUG-CC-PVTZ AUX)
    Blend: AUG-CC-PVTZ-JKFIT

    Orbital Energies [Eh]
    ---------------------

    Doubly Occupied:

       1A    -92.216284     2A    -26.371506     3A    -26.371481
       4A    -26.368923     5A    -20.574069     6A    -20.574037
       7A    -11.550153     8A    -11.293305     9A    -11.288010
      10A    -11.285040    11A    -11.284757    12A    -11.270698
      13A    -11.265459    14A    -11.252357    15A     -9.184975
      16A     -6.869834    17A     -6.869109    18A     -6.868817
      19A     -1.756908    20A     -1.665220    21A     -1.664366
      22A     -1.465909    23A     -1.358473    24A     -1.198064
      25A     -1.100665    26A     -1.052704    27A     -1.039144
      28A     -0.980718    29A     -0.917205    30A     -0.867746
      31A     -0.856947    32A     -0.850591    33A     -0.845077
      34A     -0.795298    35A     -0.742765    36A     -0.736667
      37A     -0.725285    38A     -0.695534    39A     -0.693250
      40A     -0.684057    41A     -0.678097    42A     -0.670323
      43A     -0.666181    44A     -0.647197    45A     -0.636099
      46A     -0.622546    47A     -0.604930    48A     -0.568532
      49A     -0.545699    50A     -0.532788    51A     -0.524898
      52A     -0.522336    53A     -0.514672    54A     -0.497217
      55A     -0.468048    56A     -0.374231    57A     -0.372529

  @DF-RHF Final Energy: -1152.82804331611192

   => Energetics <=

    Nuclear Repulsion Energy =           1102.3123186312382131
    One-Electron Energy =               -3780.4852579778557811
    Two-Electron Energy =                1525.3448960305056517
    Total Energy =                      -1152.8280433161119163
  Basis Set: (AUG-CC-PVTZ AUX)
    Blend: AUG-CC-PVTZ-RI
    Molecular point group: c1

    Geometry (in Angstrom), charge = 0, multiplicity = 1:

       Center              X                  Y                   Z               Mass
    ------------   -----------------  -----------------  -----------------  -----------------
         S            1.116529901652     0.001248412430    -0.870981343488    31.972071174400
         F            1.459754901652    -1.093101587570     1.494227656512    18.998403162730
         F            3.186866901652    -0.000695587570     0.722080656512    18.998403162730
         F            1.459783901652     1.089895412430     1.496853656512    18.998403162730
         O            1.487307901652    -1.285418587570    -1.463639343488    15.994914619570
         O            1.487304901652     1.289344412430    -1.460529343488    15.994914619570
         C           -0.609404098348     0.000791412430    -0.494338343488    12.000000000000
         C           -1.269263098348    -1.220195587570    -0.339321343488    12.000000000000
         C           -1.269268098348     1.221400412430    -0.336393343488    12.000000000000
         C           -3.323056098348     0.000028412430     0.137510656512    12.000000000000
         C            1.854999901652    -0.000799587570     0.823789656512    12.000000000000
         C           -2.627403098348    -1.205880587570    -0.028103343488    12.000000000000
         C           -2.627408098348     1.206334412430    -0.025210343488    12.000000000000
         C           -4.780926098348    -0.000426587570     0.513423656512    12.000000000000
         H           -0.733425098348    -2.153404587570    -0.489186343488     1.007825032230
         H           -0.733433098348     2.154968412430    -0.484020343488     1.007825032230
         H           -3.181896298348    -2.193046787570     0.088772656512     1.007825032230
         H           -3.157547098348     2.149865412430     0.088795656512     1.007825032230
         H           -5.288302098348     0.885813412430     0.123021656512     1.007825032230
         H           -5.288315098348    -0.885688587570     0.120824656512     1.007825032230
         H           -4.902535098348    -0.001776587570     1.602044656512     1.007825032230

  Basis Set: AUG-CC-PVTZ
    Blend: AUG-CC-PVTZ
  Basis Set: (AUG-CC-PVTZ AUX)
    Blend: AUG-CC-PVTZ-JKFIT
	 Reference Energy          =   -1152.8280433161119163 [Eh]
	 Singles Energy            =      -0.0000000000000000 [Eh]
	 Same-Spin Energy          =      -0.7698104640585753 [Eh]
	 Opposite-Spin Energy      =      -2.2431271362628706 [Eh]
	 Correlation Energy        =      -3.0129376003214459 [Eh]
	 Total Energy              =   -1155.8409809164334092 [Eh]

	 ================> DF-SCS-MP2 Energies <==================
	-----------------------------------------------------------
	 SCS Same-Spin Scale       =       0.3333333333333333 [-]
	 SCS Opposite-Spin Scale   =       1.2000000000000000 [-]
	 SCS Same-Spin Energy      =      -0.2566034880195251 [Eh]
	 SCS Opposite-Spin Energy  =      -2.6917525635154447 [Eh]
	 SCS Correlation Energy    =      -2.9483560515349696 [Eh]
	 SCS Total Energy          =   -1155.7763993676469454 [Eh]
	-----------------------------------------------------------

  Dipole Moment: [D]
     X:    -5.4098      Y:     0.0085      Z:     2.1332     Total:     5.8152

*** Psi4 exiting successfully. Buy a developer a beer!
