                               Psi4 1.4a3.dev225

  ==> Input File <==

--------------------------------------------------------------------------
#psi4
#
memory 32 gb

molecule  {
0 1
  S        1.2441830     0.0010390    -0.8590750
  F        1.5874080    -1.0933110     1.5061340
  F        3.3145200    -0.0009050     0.7339870
  F        1.5874370     1.0896860     1.5087600
  O        1.6149610    -1.2856280    -1.4517330
  O        1.6149580     1.2891350    -1.4486230
  C       -0.5306013     0.0005691    -0.4717716
  C       -1.1416100    -1.2204050    -0.3274150
  C       -1.1416150     1.2211910    -0.3244870
  C       -3.1954030    -0.0001810     0.1494170
  C        1.9826530    -0.0010090     0.8356960
  C       -2.4997500    -1.2060900    -0.0161970
  C       -2.4997550     1.2061250    -0.0133040
  C       -4.6532730    -0.0006360     0.5253300
  H       -0.6057720    -2.1536140    -0.4772800
  H       -0.6057800     2.1547590    -0.4721140
  H       -3.0298860    -2.1498930     0.0955450
  H       -3.0298940     2.1496560     0.1007020
  H       -5.1606490     0.8856040     0.1349280
  H       -5.1606620    -0.8858980     0.1327310
  H       -4.7748820    -0.0019860     1.6139510
units angstrom
no_reorient  #important for SAPT in psi4, default
symmetry c1  #important for SAPT in psi4, default
}

set PROPERTIES_ORIGIN ["COM"]
properties('MP2/aug-cc-pvtz', properties = ['dipole'])
--------------------------------------------------------------------------

    Molecular point group: c1
  Charge       = 0
  Multiplicity = 1
  Basis Set: AUG-CC-PVTZ
    Blend: AUG-CC-PVTZ
  Basis Set: (AUG-CC-PVTZ AUX)
    Blend: AUG-CC-PVTZ-JKFIT

    Orbital Energies [Eh]
    ---------------------

    Doubly Occupied:

       1A    -92.214988     2A    -26.371869     3A    -26.371847
       4A    -26.369329     5A    -20.574398     6A    -20.574378
       7A    -11.550640     8A    -11.294348     9A    -11.284429
      10A    -11.280241    11A    -11.280160    12A    -11.265175
      13A    -11.265132    14A    -11.251080    15A     -9.183644
      16A     -6.868457    17A     -6.867623    18A     -6.867446
      19A     -1.757256    20A     -1.665567    21A     -1.664730
      22A     -1.464741    23A     -1.358299    24A     -1.202413
      25A     -1.098484    26A     -1.056446    27A     -1.038789
      28A     -0.977316    29A     -0.916635    30A     -0.872548
      31A     -0.855242    32A     -0.850938    33A     -0.843025
      34A     -0.797510    35A     -0.743316    36A     -0.736947
      37A     -0.726129    38A     -0.695733    39A     -0.693604
      40A     -0.684504    41A     -0.678447    42A     -0.669702
      43A     -0.665495    44A     -0.647688    45A     -0.637051
      46A     -0.629887    47A     -0.604127    48A     -0.569562
      49A     -0.545304    50A     -0.536054    51A     -0.529124
      52A     -0.523138    53A     -0.513090    54A     -0.497287
      55A     -0.462000    56A     -0.374163    57A     -0.372824

  @DF-RHF Final Energy: -1152.82829154336264

   => Energetics <=

    Nuclear Repulsion Energy =           1102.1487211423366261
    One-Electron Energy =               -3780.1734263841249231
    Two-Electron Energy =                1525.1964136984254310
    Total Energy =                      -1152.8282915433626385
  Basis Set: (AUG-CC-PVTZ AUX)
    Blend: AUG-CC-PVTZ-RI
    Molecular point group: c1

    Geometry (in Angstrom), charge = 0, multiplicity = 1:

       Center              X                  Y                   Z               Mass
    ------------   -----------------  -----------------  -----------------  -----------------
         S            1.119037160603     0.001054013287    -0.871529308281    31.972071174400
         F            1.462262160603    -1.093295986713     1.493679691719    18.998403162730
         F            3.189374160603    -0.000889986713     0.721532691719    18.998403162730
         F            1.462291160603     1.089701013287     1.496305691719    18.998403162730
         O            1.489815160603    -1.285612986713    -1.464187308281    15.994914619570
         O            1.489812160603     1.289150013287    -1.461077308281    15.994914619570
         C           -0.655747139397     0.000584113287    -0.484225908281    12.000000000000
         C           -1.266755839397    -1.220389986713    -0.339869308281    12.000000000000
         C           -1.266760839397     1.221206013287    -0.336941308281    12.000000000000
         C           -3.320548839397    -0.000165986713     0.136962691719    12.000000000000
         C            1.857507160603    -0.000993986713     0.823241691719    12.000000000000
         C           -2.624895839397    -1.206074986713    -0.028651308281    12.000000000000
         C           -2.624900839397     1.206140013287    -0.025758308281    12.000000000000
         C           -4.778418839397    -0.000620986713     0.512875691719    12.000000000000
         H           -0.730917839397    -2.153598986713    -0.489734308281     1.007825032230
         H           -0.730925839397     2.154774013287    -0.484568308281     1.007825032230
         H           -3.155031839397    -2.149877986713     0.083090691719     1.007825032230
         H           -3.155039839397     2.149671013287     0.088247691719     1.007825032230
         H           -5.285794839397     0.885619013287     0.122473691719     1.007825032230
         H           -5.285807839397    -0.885882986713     0.120276691719     1.007825032230
         H           -4.900027839397    -0.001970986713     1.601496691719     1.007825032230

  Basis Set: AUG-CC-PVTZ
    Blend: AUG-CC-PVTZ
  Basis Set: (AUG-CC-PVTZ AUX)
    Blend: AUG-CC-PVTZ-JKFIT
	 Reference Energy          =   -1152.8282915433626385 [Eh]
	 Singles Energy            =      -0.0000000000000000 [Eh]
	 Same-Spin Energy          =      -0.7698017597204209 [Eh]
	 Opposite-Spin Energy      =      -2.2428226836288401 [Eh]
	 Correlation Energy        =      -3.0126244433492610 [Eh]
	 Total Energy              =   -1155.8409159867119342 [Eh]

	 ================> DF-SCS-MP2 Energies <==================
	-----------------------------------------------------------
	 SCS Same-Spin Scale       =       0.3333333333333333 [-]
	 SCS Opposite-Spin Scale   =       1.2000000000000000 [-]
	 SCS Same-Spin Energy      =      -0.2566005865734736 [Eh]
	 SCS Opposite-Spin Energy  =      -2.6913872203546081 [Eh]
	 SCS Correlation Energy    =      -2.9479878069280816 [Eh]
	 SCS Total Energy          =   -1155.7762793502906788 [Eh]
	-----------------------------------------------------------

  Dipole Moment: [D]
     X:    -5.2958      Y:    -0.0025      Z:     2.1079     Total:     5.6999

*** Psi4 exiting successfully. Buy a developer a beer!
