                               Psi4 1.4a3.dev225

  ==> Input File <==

--------------------------------------------------------------------------
#psi4
#
memory 32 gb

molecule  {
0 1
  S        1.2441830     0.0010390    -0.8590750
  F        1.5874080    -1.0933110     1.5061340
  F        3.3145200    -0.0009050     0.7339870
  F        1.5874370     1.0896860     1.5087600
  O        1.6149610    -1.2856280    -1.4517330
  O        1.6149580     1.2891350    -1.4486230
  C       -0.4329262     0.0003665    -0.3040862
  C       -1.1416100    -1.2204050    -0.3274150
  C       -1.1416150     1.2211910    -0.3244870
  C       -3.1954030    -0.0001810     0.1494170
  C        1.9826530    -0.0010090     0.8356960
  C       -2.4997500    -1.2060900    -0.0161970
  C       -2.4997550     1.2061250    -0.0133040
  C       -4.6532730    -0.0006360     0.5253300
  H       -0.6057720    -2.1536140    -0.4772800
  H       -0.6057800     2.1547590    -0.4721140
  H       -3.0298860    -2.1498930     0.0955450
  H       -3.0298940     2.1496560     0.1007020
  H       -5.1606490     0.8856040     0.1349280
  H       -5.1606620    -0.8858980     0.1327310
  H       -4.7748820    -0.0019860     1.6139510
units angstrom
no_reorient  #important for SAPT in psi4, default
symmetry c1  #important for SAPT in psi4, default
}

set PROPERTIES_ORIGIN ["COM"]
properties('MP2/aug-cc-pvtz', properties = ['dipole'])
--------------------------------------------------------------------------

    Molecular point group: c1
  Charge       = 0
  Multiplicity = 1
  Basis Set: AUG-CC-PVTZ
    Blend: AUG-CC-PVTZ
  Basis Set: (AUG-CC-PVTZ AUX)
    Blend: AUG-CC-PVTZ-JKFIT

    Orbital Energies [Eh]
    ---------------------

    Doubly Occupied:

       1A    -92.216544     2A    -26.367892     3A    -26.367871
       4A    -26.363411     5A    -20.577423     6A    -20.577403
       7A    -11.542882     8A    -11.294632     9A    -11.289278
      10A    -11.288205    11A    -11.288093    12A    -11.264813
      13A    -11.264776    14A    -11.253134    15A     -9.185173
      16A     -6.870191    17A     -6.869130    18A     -6.869070
      19A     -1.752931    20A     -1.661783    21A     -1.659995
      22A     -1.467245    23A     -1.360429    24A     -1.196508
      25A     -1.101499    26A     -1.052863    27A     -1.037530
      28A     -0.979835    29A     -0.915765    30A     -0.867514
      31A     -0.853801    32A     -0.846717    33A     -0.840766
      34A     -0.795347    35A     -0.741565    36A     -0.733386
      37A     -0.723847    38A     -0.692581    39A     -0.689580
      40A     -0.681686    41A     -0.674266    42A     -0.671308
      43A     -0.666065    44A     -0.648023    45A     -0.639641
      46A     -0.624381    47A     -0.605521    48A     -0.569928
      49A     -0.547009    50A     -0.529844    51A     -0.525376
      52A     -0.524281    53A     -0.518392    54A     -0.500062
      55A     -0.466516    56A     -0.373637    57A     -0.370994

  @DF-RHF Final Energy: -1152.82008616923349

   => Energetics <=

    Nuclear Repulsion Energy =           1103.3349552140730339
    One-Electron Energy =               -3782.5934038909326773
    Two-Electron Energy =                1526.4383625076261524
    Total Energy =                      -1152.8200861692334911
  Basis Set: (AUG-CC-PVTZ AUX)
    Blend: AUG-CC-PVTZ-RI
    Molecular point group: c1

    Geometry (in Angstrom), charge = 0, multiplicity = 1:

       Center              X                  Y                   Z               Mass
    ------------   -----------------  -----------------  -----------------  -----------------
         S            1.113804843579     0.001064866283    -0.880511978101    31.972071174400
         F            1.457029843579    -1.093285133717     1.484697021899    18.998403162730
         F            3.184141843579    -0.000879133717     0.712550021899    18.998403162730
         F            1.457058843579     1.089711866283     1.487323021899    18.998403162730
         O            1.484582843579    -1.285602133717    -1.473169978101    15.994914619570
         O            1.484579843579     1.289160866283    -1.470059978101    15.994914619570
         C           -0.563304356421     0.000392366283    -0.325523178101    12.000000000000
         C           -1.271988156421    -1.220379133717    -0.348851978101    12.000000000000
         C           -1.271993156421     1.221216866283    -0.345923978101    12.000000000000
         C           -3.325781156421    -0.000155133717     0.127980021899    12.000000000000
         C            1.852274843579    -0.000983133717     0.814259021899    12.000000000000
         C           -2.630128156421    -1.206064133717    -0.037633978101    12.000000000000
         C           -2.630133156421     1.206150866283    -0.034740978101    12.000000000000
         C           -4.783651156421    -0.000610133717     0.503893021899    12.000000000000
         H           -0.736150156421    -2.153588133717    -0.498716978101     1.007825032230
         H           -0.736158156421     2.154784866283    -0.493550978101     1.007825032230
         H           -3.160264156421    -2.149867133717     0.074108021899     1.007825032230
         H           -3.160272156421     2.149681866283     0.079265021899     1.007825032230
         H           -5.291027156421     0.885629866283     0.113491021899     1.007825032230
         H           -5.291040156421    -0.885872133717     0.111294021899     1.007825032230
         H           -4.905260156421    -0.001960133717     1.592514021899     1.007825032230

  Basis Set: AUG-CC-PVTZ
    Blend: AUG-CC-PVTZ
  Basis Set: (AUG-CC-PVTZ AUX)
    Blend: AUG-CC-PVTZ-JKFIT
	 Reference Energy          =   -1152.8200861692334911 [Eh]
	 Singles Energy            =      -0.0000000000000000 [Eh]
	 Same-Spin Energy          =      -0.7704205687495786 [Eh]
	 Opposite-Spin Energy      =      -2.2447119454329796 [Eh]
	 Correlation Energy        =      -3.0151325141825582 [Eh]
	 Total Energy              =   -1155.8352186834160875 [Eh]

	 ================> DF-SCS-MP2 Energies <==================
	-----------------------------------------------------------
	 SCS Same-Spin Scale       =       0.3333333333333333 [-]
	 SCS Opposite-Spin Scale   =       1.2000000000000000 [-]
	 SCS Same-Spin Energy      =      -0.2568068562498595 [Eh]
	 SCS Opposite-Spin Energy  =      -2.6936543345195756 [Eh]
	 SCS Correlation Energy    =      -2.9504611907694351 [Eh]
	 SCS Total Energy          =   -1155.7705473600028654 [Eh]
	-----------------------------------------------------------

  Dipole Moment: [D]
     X:    -5.4766      Y:    -0.0024      Z:     1.9751     Total:     5.8219

*** Psi4 exiting successfully. Buy a developer a beer!
