                               Psi4 1.4a3.dev225

  ==> Input File <==

--------------------------------------------------------------------------
#psi4
#
memory 32 gb

molecule  {
0 1
  S        1.2441830     0.0010390    -0.8590750
  F        1.5874080    -1.0933110     1.5061340
  F        3.3145200    -0.0009050     0.7339870
  F        1.5874370     1.0896860     1.5087600
  O        1.6149610    -1.2856280    -1.4517330
  O        1.6149580     1.2891350    -1.4486230
  C       -0.4817510     0.0005820    -0.4824320
  C       -1.1416100    -1.2204050    -0.3274150
  C       -1.1416150     1.2211910    -0.3244870
  C       -3.1954030    -0.0001810     0.1494170
  C        1.9826530    -0.0010090     0.8356960
  C       -2.4997500    -1.2060900    -0.0161970
  C       -2.4997550     1.2061250    -0.0133040
  C       -4.6532730    -0.0006360     0.5253300
  H       -0.6057720    -2.1536140    -0.4772800
  H       -0.6057800     2.1547590    -0.4721140
  H       -3.0298860    -2.1498930     0.0955450
  H       -3.0298940     2.1496560     0.1007020
  H       -5.1606490     0.8856040     0.1349280
  H       -5.1606620    -0.8858980     0.1327310
  H       -4.7693311    -0.0019244     1.5642601
units angstrom
no_reorient  #important for SAPT in psi4, default
symmetry c1  #important for SAPT in psi4, default
}

set PROPERTIES_ORIGIN ["COM"]
properties('MP2/aug-cc-pvtz', properties = ['dipole'])
--------------------------------------------------------------------------

    Molecular point group: c1
  Charge       = 0
  Multiplicity = 1
  Basis Set: AUG-CC-PVTZ
    Blend: AUG-CC-PVTZ
  Basis Set: (AUG-CC-PVTZ AUX)
    Blend: AUG-CC-PVTZ-JKFIT

    Orbital Energies [Eh]
    ---------------------

    Doubly Occupied:

       1A    -92.216039     2A    -26.371377     3A    -26.371356
       4A    -26.368791     5A    -20.573858     6A    -20.573838
       7A    -11.549992     8A    -11.292899     9A    -11.287246
      10A    -11.284568    11A    -11.284466    12A    -11.264976
      13A    -11.264937    14A    -11.246459    15A     -9.184736
      16A     -6.869595    17A     -6.868868    18A     -6.868579
      19A     -1.756780    20A     -1.665095    21A     -1.664238
      22A     -1.465706    23A     -1.358276    24A     -1.197973
      25A     -1.101319    26A     -1.053512    27A     -1.039504
      28A     -0.983464    29A     -0.918165    30A     -0.869613
      31A     -0.857276    32A     -0.850466    33A     -0.845332
      34A     -0.796857    35A     -0.743030    36A     -0.736548
      37A     -0.725899    38A     -0.695396    39A     -0.693204
      40A     -0.683710    41A     -0.677970    42A     -0.671499
      43A     -0.666435    44A     -0.646974    45A     -0.639422
      46A     -0.625100    47A     -0.612840    48A     -0.569510
      49A     -0.545628    50A     -0.534035    51A     -0.526153
      52A     -0.522633    53A     -0.514650    54A     -0.497021
      55A     -0.467933    56A     -0.374375    57A     -0.372204

  @DF-RHF Final Energy: -1152.82959376605072

   => Energetics <=

    Nuclear Repulsion Energy =           1102.8200743598858935
    One-Electron Energy =               -3781.4826970589515440
    Two-Electron Energy =                1525.8330289330149299
    Total Energy =                      -1152.8295937660507207
  Basis Set: (AUG-CC-PVTZ AUX)
    Blend: AUG-CC-PVTZ-RI
    Molecular point group: c1

    Geometry (in Angstrom), charge = 0, multiplicity = 1:

       Center              X                  Y                   Z               Mass
    ------------   -----------------  -----------------  -----------------  -----------------
         S            1.116395345703     0.001053045115    -0.870734687349    31.972071174400
         F            1.459620345703    -1.093296954885     1.494474312651    18.998403162730
         F            3.186732345703    -0.000890954885     0.722327312651    18.998403162730
         F            1.459649345703     1.089700045115     1.497100312651    18.998403162730
         O            1.487173345703    -1.285613954885    -1.463392687349    15.994914619570
         O            1.487170345703     1.289149045115    -1.460282687349    15.994914619570
         C           -0.609538654297     0.000596045115    -0.494091687349    12.000000000000
         C           -1.269397654297    -1.220390954885    -0.339074687349    12.000000000000
         C           -1.269402654297     1.221205045115    -0.336146687349    12.000000000000
         C           -3.323190654297    -0.000166954885     0.137757312651    12.000000000000
         C            1.854865345703    -0.000994954885     0.824036312651    12.000000000000
         C           -2.627537654297    -1.206075954885    -0.027856687349    12.000000000000
         C           -2.627542654297     1.206139045115    -0.024963687349    12.000000000000
         C           -4.781060654297    -0.000621954885     0.513670312651    12.000000000000
         H           -0.733559654297    -2.153599954885    -0.488939687349     1.007825032230
         H           -0.733567654297     2.154773045115    -0.483773687349     1.007825032230
         H           -3.157673654297    -2.149878954885     0.083885312651     1.007825032230
         H           -3.157681654297     2.149670045115     0.089042312651     1.007825032230
         H           -5.288436654297     0.885618045115     0.123268312651     1.007825032230
         H           -5.288449654297    -0.885883954885     0.121071312651     1.007825032230
         H           -4.897118754297    -0.001910354885     1.552600412651     1.007825032230

  Basis Set: AUG-CC-PVTZ
    Blend: AUG-CC-PVTZ
  Basis Set: (AUG-CC-PVTZ AUX)
    Blend: AUG-CC-PVTZ-JKFIT
	 Reference Energy          =   -1152.8295937660507207 [Eh]
	 Singles Energy            =      -0.0000000000000000 [Eh]
	 Same-Spin Energy          =      -0.7696825262016884 [Eh]
	 Opposite-Spin Energy      =      -2.2424112318471945 [Eh]
	 Correlation Energy        =      -3.0120937580488829 [Eh]
	 Total Energy              =   -1155.8416875240995978 [Eh]

	 ================> DF-SCS-MP2 Energies <==================
	-----------------------------------------------------------
	 SCS Same-Spin Scale       =       0.3333333333333333 [-]
	 SCS Opposite-Spin Scale   =       1.2000000000000000 [-]
	 SCS Same-Spin Energy      =      -0.2565608420672295 [Eh]
	 SCS Opposite-Spin Energy  =      -2.6908934782166334 [Eh]
	 SCS Correlation Energy    =      -2.9474543202838630 [Eh]
	 SCS Total Energy          =   -1155.7770480863346165 [Eh]
	-----------------------------------------------------------

  Dipole Moment: [D]
     X:    -5.4320      Y:    -0.0026      Z:     2.1486     Total:     5.8415

*** Psi4 exiting successfully. Buy a developer a beer!
