                               Psi4 1.4a3.dev225

  ==> Input File <==

--------------------------------------------------------------------------
#psi4
#
memory 32 gb

molecule  {
0 1
  S        1.2441830     0.0010390    -0.8590750
  F        1.5874080    -1.0933110     1.5061340
  F        3.3145200    -0.0009050     0.7339870
  F        1.5874370     1.0896860     1.5087600
  O        1.6149610    -1.2856280    -1.4517330
  O        1.6149580     1.2891350    -1.4486230
  C       -0.4817510     0.0005820    -0.4824320
  C       -1.1416100    -1.2204050    -0.3274150
  C       -1.1416150     1.2211910    -0.3244870
  C       -3.1954030    -0.0001810     0.1494170
  C        1.9826530    -0.0010090     0.8356960
  C       -2.4997500    -1.2060900    -0.0161970
  C       -2.4997550     1.2061250    -0.0133040
  C       -4.6048566    -0.0006209     0.5128458
  H       -0.6057720    -2.1536140    -0.4772800
  H       -0.6057800     2.1547590    -0.4721140
  H       -3.0298860    -2.1498930     0.0955450
  H       -3.0298940     2.1496560     0.1007020
  H       -5.1606490     0.8856040     0.1349280
  H       -5.1606620    -0.8858980     0.1327310
  H       -4.7748820    -0.0019860     1.6139510
units angstrom
no_reorient  #important for SAPT in psi4, default
symmetry c1  #important for SAPT in psi4, default
}

set PROPERTIES_ORIGIN ["COM"]
properties('MP2/aug-cc-pvtz', properties = ['dipole'])
--------------------------------------------------------------------------

    Molecular point group: c1
  Charge       = 0
  Multiplicity = 1
  Basis Set: AUG-CC-PVTZ
    Blend: AUG-CC-PVTZ
  Basis Set: (AUG-CC-PVTZ AUX)
    Blend: AUG-CC-PVTZ-JKFIT

    Orbital Energies [Eh]
    ---------------------

    Doubly Occupied:

       1A    -92.216133     2A    -26.371447     3A    -26.371426
       4A    -26.368851     5A    -20.573942     6A    -20.573923
       7A    -11.550063     8A    -11.293046     9A    -11.285426
      10A    -11.284750    11A    -11.284647    12A    -11.265150
      13A    -11.265109    14A    -11.254127    15A     -9.184826
      16A     -6.869685    17A     -6.868958    18A     -6.868669
      19A     -1.756847    20A     -1.665165    21A     -1.664301
      22A     -1.465791    23A     -1.358361    24A     -1.199591
      25A     -1.105598    26A     -1.053895    27A     -1.040229
      28A     -0.981089    29A     -0.916009    30A     -0.870675
      31A     -0.856308    32A     -0.850534    33A     -0.844674
      34A     -0.797028    35A     -0.743132    36A     -0.736637
      37A     -0.726231    38A     -0.695568    39A     -0.693428
      40A     -0.684839    41A     -0.678048    42A     -0.674807
      43A     -0.666876    44A     -0.647210    45A     -0.640819
      46A     -0.625221    47A     -0.600895    48A     -0.561872
      49A     -0.555858    50A     -0.530462    51A     -0.523557
      52A     -0.522598    53A     -0.514733    54A     -0.497027
      55A     -0.468252    56A     -0.372515    57A     -0.372374

  @DF-RHF Final Energy: -1152.82721067073135

   => Energetics <=

    Nuclear Repulsion Energy =           1103.5928591568620050
    One-Electron Energy =               -3783.0216761068650158
    Two-Electron Energy =                1526.6016062792718913
    Total Energy =                      -1152.8272106707313469
  Basis Set: (AUG-CC-PVTZ AUX)
    Blend: AUG-CC-PVTZ-RI
    Molecular point group: c1

    Geometry (in Angstrom), charge = 0, multiplicity = 1:

       Center              X                  Y                   Z               Mass
    ------------   -----------------  -----------------  -----------------  -----------------
         S            1.113826720990     0.001052513367    -0.870289484778    31.972071174400
         F            1.457051720990    -1.093297486633     1.494919515222    18.998403162730
         F            3.184163720990    -0.000891486633     0.722772515222    18.998403162730
         F            1.457080720990     1.089699513367     1.497545515222    18.998403162730
         O            1.484604720990    -1.285614486633    -1.462947484778    15.994914619570
         O            1.484601720990     1.289148513367    -1.459837484778    15.994914619570
         C           -0.612107279010     0.000595513367    -0.493646484778    12.000000000000
         C           -1.271966279010    -1.220391486633    -0.338629484778    12.000000000000
         C           -1.271971279010     1.221204513367    -0.335701484778    12.000000000000
         C           -3.325759279010    -0.000167486633     0.138202515222    12.000000000000
         C            1.852296720990    -0.000995486633     0.824481515222    12.000000000000
         C           -2.630106279010    -1.206076486633    -0.027411484778    12.000000000000
         C           -2.630111279010     1.206138513367    -0.024518484778    12.000000000000
         C           -4.735212879010    -0.000607386633     0.501631315222    12.000000000000
         H           -0.736128279010    -2.153600486633    -0.488494484778     1.007825032230
         H           -0.736136279010     2.154772513367    -0.483328484778     1.007825032230
         H           -3.160242279010    -2.149879486633     0.084330515222     1.007825032230
         H           -3.160250279010     2.149669513367     0.089487515222     1.007825032230
         H           -5.291005279010     0.885617513367     0.123713515222     1.007825032230
         H           -5.291018279010    -0.885884486633     0.121516515222     1.007825032230
         H           -4.905238279010    -0.001972486633     1.602736515222     1.007825032230

  Basis Set: AUG-CC-PVTZ
    Blend: AUG-CC-PVTZ
  Basis Set: (AUG-CC-PVTZ AUX)
    Blend: AUG-CC-PVTZ-JKFIT
	 Reference Energy          =   -1152.8272106707313469 [Eh]
	 Singles Energy            =      -0.0000000000000000 [Eh]
	 Same-Spin Energy          =      -0.7702380120097110 [Eh]
	 Opposite-Spin Energy      =      -2.2432691721764297 [Eh]
	 Correlation Energy        =      -3.0135071841861407 [Eh]
	 Total Energy              =   -1155.8407178549175569 [Eh]

	 ================> DF-SCS-MP2 Energies <==================
	-----------------------------------------------------------
	 SCS Same-Spin Scale       =       0.3333333333333333 [-]
	 SCS Opposite-Spin Scale   =       1.2000000000000000 [-]
	 SCS Same-Spin Energy      =      -0.2567460040032370 [Eh]
	 SCS Opposite-Spin Energy  =      -2.6919230066117157 [Eh]
	 SCS Correlation Energy    =      -2.9486690106149527 [Eh]
	 SCS Total Energy          =   -1155.7758796813463960 [Eh]
	-----------------------------------------------------------

  Dipole Moment: [D]
     X:    -5.4388      Y:    -0.0026      Z:     2.1424     Total:     5.8456

*** Psi4 exiting successfully. Buy a developer a beer!
