                               Psi4 1.4a3.dev225

  ==> Input File <==

--------------------------------------------------------------------------
#psi4
#
memory 32 gb

molecule  {
0 1
  S        1.2441830     0.0010390    -0.8590750
  F        1.5874080    -1.0933110     1.5061340
  F        3.3145200    -0.0009050     0.7339870
  F        1.5874370     1.0896860     1.5087600
  O        1.6149610    -1.2856280    -1.4517330
  O        1.6149580     1.2891350    -1.4486230
  C       -0.4817510     0.0005820    -0.4824320
  C       -1.1416100    -1.2204050    -0.3274150
  C       -1.1416150     1.2211910    -0.3244870
  C       -3.1954030    -0.0001810     0.1494170
  C        1.9826530    -0.0010090     0.8356960
  C       -2.4997500    -1.2060900    -0.0161970
  C       -2.4997550     1.2061250    -0.0133040
  C       -4.6532730    -0.0006360     0.5253300
  H       -0.6057720    -2.1536140    -0.4772800
  H       -0.6057800     2.1547590    -0.4721140
  H       -3.0201431    -2.1325477     0.0934914
  H       -3.0298940     2.1496560     0.1007020
  H       -5.1606490     0.8856040     0.1349280
  H       -5.1606620    -0.8858980     0.1327310
  H       -4.7748820    -0.0019860     1.6139510
units angstrom
no_reorient  #important for SAPT in psi4, default
symmetry c1  #important for SAPT in psi4, default
}

set PROPERTIES_ORIGIN ["COM"]
properties('MP2/aug-cc-pvtz', properties = ['dipole'])
--------------------------------------------------------------------------

    Molecular point group: c1
  Charge       = 0
  Multiplicity = 1
  Basis Set: AUG-CC-PVTZ
    Blend: AUG-CC-PVTZ
  Basis Set: (AUG-CC-PVTZ AUX)
    Blend: AUG-CC-PVTZ-JKFIT

    Orbital Energies [Eh]
    ---------------------

    Doubly Occupied:

       1A    -92.216028     2A    -26.371378     3A    -26.371356
       4A    -26.368789     5A    -20.573858     6A    -20.573837
       7A    -11.549988     8A    -11.292884     9A    -11.287370
      10A    -11.284560    11A    -11.284419    12A    -11.264964
      13A    -11.262797    14A    -11.252450    15A     -9.184726
      16A     -6.869585    17A     -6.868857    18A     -6.868569
      19A     -1.756779    20A     -1.665095    21A     -1.664237
      22A     -1.465706    23A     -1.358277    24A     -1.198021
      25A     -1.100741    26A     -1.054052    27A     -1.038982
      28A     -0.980944    29A     -0.917177    30A     -0.870669
      31A     -0.856788    32A     -0.850466    33A     -0.845017
      34A     -0.797529    35A     -0.743101    36A     -0.736552
      37A     -0.725928    38A     -0.695404    39A     -0.693172
      40A     -0.683783    41A     -0.677971    42A     -0.671884
      43A     -0.666488    44A     -0.647014    45A     -0.640064
      46A     -0.625923    47A     -0.604986    48A     -0.570505
      49A     -0.545633    50A     -0.532544    51A     -0.526870
      52A     -0.522723    53A     -0.514657    54A     -0.497024
      55A     -0.467978    56A     -0.373883    57A     -0.372215

  @DF-RHF Final Energy: -1152.83070072143892

   => Energetics <=

    Nuclear Repulsion Energy =           1102.7071932624123747
    One-Electron Energy =               -3781.2694009354122500
    Two-Electron Energy =                1525.7315069515607320
    Total Energy =                      -1152.8307007214389159
  Basis Set: (AUG-CC-PVTZ AUX)
    Blend: AUG-CC-PVTZ-RI
    Molecular point group: c1

    Geometry (in Angstrom), charge = 0, multiplicity = 1:

       Center              X                  Y                   Z               Mass
    ------------   -----------------  -----------------  -----------------  -----------------
         S            1.116376485978     0.000975286091    -0.870949006618    31.972071174400
         F            1.459601485978    -1.093374713909     1.494259993382    18.998403162730
         F            3.186713485978    -0.000968713909     0.722112993382    18.998403162730
         F            1.459630485978     1.089622286091     1.496885993382    18.998403162730
         O            1.487154485978    -1.285691713909    -1.463607006618    15.994914619570
         O            1.487151485978     1.289071286091    -1.460497006618    15.994914619570
         C           -0.609557514022     0.000518286091    -0.494306006618    12.000000000000
         C           -1.269416514022    -1.220468713909    -0.339289006618    12.000000000000
         C           -1.269421514022     1.221127286091    -0.336361006618    12.000000000000
         C           -3.323209514022    -0.000244713909     0.137542993382    12.000000000000
         C            1.854846485978    -0.001072713909     0.823821993382    12.000000000000
         C           -2.627556514022    -1.206153713909    -0.028071006618    12.000000000000
         C           -2.627561514022     1.206061286091    -0.025178006618    12.000000000000
         C           -4.781079514022    -0.000699713909     0.513455993382    12.000000000000
         H           -0.733578514022    -2.153677713909    -0.489154006618     1.007825032230
         H           -0.733586514022     2.154695286091    -0.483988006618     1.007825032230
         H           -3.147949614022    -2.132611413909     0.081617393382     1.007825032230
         H           -3.157700514022     2.149592286091     0.088827993382     1.007825032230
         H           -5.288455514022     0.885540286091     0.123053993382     1.007825032230
         H           -5.288468514022    -0.885961713909     0.120856993382     1.007825032230
         H           -4.902688514022    -0.002049713909     1.602076993382     1.007825032230

  Basis Set: AUG-CC-PVTZ
    Blend: AUG-CC-PVTZ
  Basis Set: (AUG-CC-PVTZ AUX)
    Blend: AUG-CC-PVTZ-JKFIT
	 Reference Energy          =   -1152.8307007214389159 [Eh]
	 Singles Energy            =      -0.0000000000000000 [Eh]
	 Same-Spin Energy          =      -0.7696354960551099 [Eh]
	 Opposite-Spin Energy      =      -2.2425357004083772 [Eh]
	 Correlation Energy        =      -3.0121711964634872 [Eh]
	 Total Energy              =   -1155.8428719179023574 [Eh]

	 ================> DF-SCS-MP2 Energies <==================
	-----------------------------------------------------------
	 SCS Same-Spin Scale       =       0.3333333333333333 [-]
	 SCS Opposite-Spin Scale   =       1.2000000000000000 [-]
	 SCS Same-Spin Energy      =      -0.2565451653517033 [Eh]
	 SCS Opposite-Spin Energy  =      -2.6910428404900526 [Eh]
	 SCS Correlation Energy    =      -2.9475880058417561 [Eh]
	 SCS Total Energy          =   -1155.7782887272805965 [Eh]
	-----------------------------------------------------------

  Dipole Moment: [D]
     X:    -5.4267      Y:    -0.0062      Z:     2.1358     Total:     5.8319

*** Psi4 exiting successfully. Buy a developer a beer!
