                               Psi4 1.4a3.dev225

  ==> Input File <==

--------------------------------------------------------------------------
#psi4
#
memory 32 gb

molecule  {
0 1
  S        1.2441830     0.0010390    -0.8590750
  F        1.5874080    -1.0933110     1.5061340
  F        3.3145200    -0.0009050     0.7339870
  F        1.5874370     1.0896860     1.5087600
  O        1.6149610    -1.2856280    -1.4517330
  O        1.6149580     1.2891350    -1.4486230
  C       -0.4817510     0.0005820    -0.4824320
  C       -1.1416100    -1.2204050    -0.3274150
  C       -1.1415508     1.1968718    -0.3244341
  C       -3.1954030    -0.0001810     0.1494170
  C        1.9826530    -0.0010090     0.8356960
  C       -2.4997500    -1.2060900    -0.0161970
  C       -2.4997550     1.2061250    -0.0133040
  C       -4.6532730    -0.0006360     0.5253300
  H       -0.6057720    -2.1536140    -0.4772800
  H       -0.6057800     2.1547590    -0.4721140
  H       -3.0298860    -2.1498930     0.0955450
  H       -3.0298940     2.1496560     0.1007020
  H       -5.1606490     0.8856040     0.1349280
  H       -5.1606620    -0.8858980     0.1327310
  H       -4.7748820    -0.0019860     1.6139510
units angstrom
no_reorient  #important for SAPT in psi4, default
symmetry c1  #important for SAPT in psi4, default
}

set PROPERTIES_ORIGIN ["COM"]
properties('MP2/aug-cc-pvtz', properties = ['dipole'])
--------------------------------------------------------------------------

    Molecular point group: c1
  Charge       = 0
  Multiplicity = 1
  Basis Set: AUG-CC-PVTZ
    Blend: AUG-CC-PVTZ
  Basis Set: (AUG-CC-PVTZ AUX)
    Blend: AUG-CC-PVTZ-JKFIT

    Orbital Energies [Eh]
    ---------------------

    Doubly Occupied:

       1A    -92.216607     2A    -26.371699     3A    -26.371621
       4A    -26.369121     5A    -20.574420     6A    -20.574172
       7A    -11.550405     8A    -11.291147     9A    -11.287003
      10A    -11.284083    11A    -11.283501    12A    -11.264739
      13A    -11.264604    14A    -11.252115    15A     -9.185305
      16A     -6.870167    17A     -6.869443    18A     -6.869142
      19A     -1.757084    20A     -1.665381    21A     -1.664544
      22A     -1.466152    23A     -1.358674    24A     -1.200128
      25A     -1.101986    26A     -1.052866    27A     -1.039443
      28A     -0.981234    29A     -0.917752    30A     -0.870023
      31A     -0.856629    32A     -0.850757    33A     -0.844807
      34A     -0.797486    35A     -0.743330    36A     -0.736825
      37A     -0.725947    38A     -0.695715    39A     -0.693402
      40A     -0.684919    41A     -0.678271    42A     -0.669368
      43A     -0.665593    44A     -0.647398    45A     -0.640212
      46A     -0.622357    47A     -0.604867    48A     -0.570388
      49A     -0.544831    50A     -0.534321    51A     -0.524959
      52A     -0.523237    53A     -0.515056    54A     -0.497219
      55A     -0.468496    56A     -0.375614    57A     -0.371510

  @DF-RHF Final Energy: -1152.82998799463030

   => Energetics <=

    Nuclear Repulsion Energy =           1103.0793226941113971
    One-Electron Energy =               -3782.0024707450911592
    Two-Electron Energy =                1526.0931600563494612
    Total Energy =                      -1152.8299879946303008
  Basis Set: (AUG-CC-PVTZ AUX)
    Blend: AUG-CC-PVTZ-RI
    Molecular point group: c1

    Geometry (in Angstrom), charge = 0, multiplicity = 1:

       Center              X                  Y                   Z               Mass
    ------------   -----------------  -----------------  -----------------  -----------------
         S            1.116416879988     0.002356067416    -0.870961079502    31.972071174400
         F            1.459641879988    -1.091993932584     1.494247920498    18.998403162730
         F            3.186753879988     0.000412067416     0.722100920498    18.998403162730
         F            1.459670879988     1.091003067416     1.496873920498    18.998403162730
         O            1.487194879988    -1.284310932584    -1.463619079502    15.994914619570
         O            1.487191879988     1.290452067416    -1.460509079502    15.994914619570
         C           -0.609517120012     0.001899067416    -0.494318079502    12.000000000000
         C           -1.269376120012    -1.219087932584    -0.339301079502    12.000000000000
         C           -1.269316920012     1.198188867416    -0.336320179502    12.000000000000
         C           -3.323169120012     0.001136067416     0.137530920498    12.000000000000
         C            1.854886879988     0.000308067416     0.823809920498    12.000000000000
         C           -2.627516120012    -1.204772932584    -0.028083079502    12.000000000000
         C           -2.627521120012     1.207442067416    -0.025190079502    12.000000000000
         C           -4.781039120012     0.000681067416     0.513443920498    12.000000000000
         H           -0.733538120012    -2.152296932584    -0.489166079502     1.007825032230
         H           -0.733546120012     2.156076067416    -0.484000079502     1.007825032230
         H           -3.157652120012    -2.148575932584     0.083658920498     1.007825032230
         H           -3.157660120012     2.150973067416     0.088815920498     1.007825032230
         H           -5.288415120012     0.886921067416     0.123041920498     1.007825032230
         H           -5.288428120012    -0.884580932584     0.120844920498     1.007825032230
         H           -4.902648120012    -0.000668932584     1.602064920498     1.007825032230

  Basis Set: AUG-CC-PVTZ
    Blend: AUG-CC-PVTZ
  Basis Set: (AUG-CC-PVTZ AUX)
    Blend: AUG-CC-PVTZ-JKFIT
	 Reference Energy          =   -1152.8299879946303008 [Eh]
	 Singles Energy            =      -0.0000000000000000 [Eh]
	 Same-Spin Energy          =      -0.7697016904630074 [Eh]
	 Opposite-Spin Energy      =      -2.2426061369018746 [Eh]
	 Correlation Energy        =      -3.0123078273648822 [Eh]
	 Total Energy              =   -1155.8422958219950942 [Eh]

	 ================> DF-SCS-MP2 Energies <==================
	-----------------------------------------------------------
	 SCS Same-Spin Scale       =       0.3333333333333333 [-]
	 SCS Opposite-Spin Scale   =       1.2000000000000000 [-]
	 SCS Same-Spin Energy      =      -0.2565672301543358 [Eh]
	 SCS Opposite-Spin Energy  =      -2.6911273642822495 [Eh]
	 SCS Correlation Energy    =      -2.9476945944365851 [Eh]
	 SCS Total Energy          =   -1155.7776825890668988 [Eh]
	-----------------------------------------------------------

  Dipole Moment: [D]
     X:    -5.4013      Y:     0.0013      Z:     2.1326     Total:     5.8071

*** Psi4 exiting successfully. Buy a developer a beer!
