                               Psi4 1.3.2 release

  ==> Input File <==

--------------------------------------------------------------------------
#psi4
#
memory 32 gb

molecule  {
0 1
  O       -0.1070010     1.5019560    -0.1844920
  O        2.0546780    -0.2388480     0.3560180
  C       -0.2955110     0.1009390    -0.1081660
  C       -1.2473060    -0.4347329     0.9187310
  C       -1.6307620    -0.3904120    -0.5546590
  C        0.9536540    -0.6636150    -0.4527090
  H       -1.7417500     0.3211220     1.5538480
  H       -1.0582210    -1.3705490     1.3857280
  H       -1.6856880    -1.3325510    -1.0922370
  H       -2.3335820     0.3688280    -0.8792620
  H        1.1811620    -0.5295190    -1.5194400
  H        0.8172500    -1.7319370    -0.2626510
  H        0.3174590     1.7541820     0.6550680
  H        2.3334610     0.6171320    -0.0105960
units angstrom
no_reorient  #important for SAPT in psi4, default
symmetry c1  #important for SAPT in psi4, default
}

set PROPERTIES_ORIGIN ["COM"]
properties('MP2/aug-cc-pvtz', properties = ['dipole'])
--------------------------------------------------------------------------

    Molecular point group: c1
  Charge       = 0
  Multiplicity = 1
  Basis Set: AUG-CC-PVTZ
    Blend: AUG-CC-PVTZ
  Basis Set: (AUG-CC-PVTZ AUX)
    Blend: AUG-CC-PVTZ-JKFIT

    Orbital Energies [Eh]
    ---------------------

    Doubly Occupied:

       1A    -20.571678     2A    -20.564484     3A    -11.290115
       4A    -11.281830     5A    -11.231867     6A    -11.231212
       7A     -1.383082     8A     -1.352749     9A     -1.137995
      10A     -0.951922    11A     -0.838918    12A     -0.786059
      13A     -0.702902    14A     -0.692740    15A     -0.659115
      16A     -0.639737    17A     -0.587933    18A     -0.565910
      19A     -0.531746    20A     -0.519816    21A     -0.501744
      22A     -0.472501    23A     -0.415853    24A     -0.406315

  @DF-RHF Final Energy:  -305.92192507072031

   => Energetics <=

    Nuclear Repulsion Energy =            252.0551621821449260
    One-Electron Energy =                -917.3177256312882264
    Two-Electron Energy =                 359.3406383784229661
    Total Energy =                       -305.9219250707203059
  Basis Set: (AUG-CC-PVTZ AUX)
    Blend: AUG-CC-PVTZ-RI
    Molecular point group: c1

    Geometry (in Angstrom), charge = 0, multiplicity = 1:

       Center              X                  Y                   Z               Mass
    ------------   -----------------  -----------------  -----------------  -----------------
         O           -0.133427740601     1.483429895685    -0.186888743107    15.994914619570
         O            2.028251259399    -0.257374104315     0.353621256893    15.994914619570
         C           -0.321937740601     0.082412895685    -0.110562743107    12.000000000000
         C           -1.273732740601    -0.453259004315     0.916334256893    12.000000000000
         C           -1.657188740601    -0.408938104315    -0.557055743107    12.000000000000
         C            0.927227259399    -0.682141104315    -0.455105743107    12.000000000000
         H           -1.768176740601     0.302595895685     1.551451256893     1.007825032230
         H           -1.084647740601    -1.389075104315     1.383331256893     1.007825032230
         H           -1.712114740601    -1.351077104315    -1.094633743107     1.007825032230
         H           -2.360008740601     0.350301895685    -0.881658743107     1.007825032230
         H            1.154735259399    -0.548045104315    -1.521836743107     1.007825032230
         H            0.790823259399    -1.750463104315    -0.265047743107     1.007825032230
         H            0.291032259399     1.735655895685     0.652671256893     1.007825032230
         H            2.307034259399     0.598605895685    -0.012992743107     1.007825032230

  Basis Set: AUG-CC-PVTZ
    Blend: AUG-CC-PVTZ
  Basis Set: (AUG-CC-PVTZ AUX)
    Blend: AUG-CC-PVTZ-JKFIT
	 Reference Energy          =    -305.9219250707203059 [Eh]
	 Singles Energy            =      -0.0000000000000000 [Eh]
	 Same-Spin Energy          =      -0.3047574825156902 [Eh]
	 Opposite-Spin Energy      =      -0.9841881534865162 [Eh]
	 Correlation Energy        =      -1.2889456360022065 [Eh]
	 Total Energy              =    -307.2108707067225168 [Eh]

	 ================> DF-SCS-MP2 Energies <==================
	-----------------------------------------------------------
	 SCS Same-Spin Scale       =       0.3333333333333333 [-]
	 SCS Opposite-Spin Scale   =       1.2000000000000000 [-]
	 SCS Same-Spin Energy      =      -0.1015858275052301 [Eh]
	 SCS Opposite-Spin Energy  =      -1.1810257841838194 [Eh]
	 SCS Correlation Energy    =      -1.2826116116890496 [Eh]
	 SCS Total Energy          =    -307.2045366824093549 [Eh]
	-----------------------------------------------------------

  Dipole Moment: [D]
     X:    -0.4598      Y:    -0.1462      Z:    -0.0393     Total:     0.4841

*** Psi4 exiting successfully. Buy a developer a beer!
