                               Psi4 1.3.2 release

  ==> Input File <==

--------------------------------------------------------------------------
#psi4
#
memory 32 gb

molecule  {
0 1
  O       -0.1541658     1.5081592    -0.1711194
  O        2.0546780    -0.2388480     0.3560180
  C       -0.2955110     0.1009390    -0.1081660
  C       -1.2626320    -0.4138420     0.9150900
  C       -1.6307620    -0.3904120    -0.5546590
  C        0.9536540    -0.6636150    -0.4527090
  H       -1.7417500     0.3211220     1.5538480
  H       -1.0582210    -1.3705490     1.3857280
  H       -1.6856880    -1.3325510    -1.0922370
  H       -2.3335820     0.3688280    -0.8792620
  H        1.1811620    -0.5295190    -1.5194400
  H        0.8172500    -1.7319370    -0.2626510
  H        0.3174590     1.7541820     0.6550680
  H        2.3334610     0.6171320    -0.0105960
units angstrom
no_reorient  #important for SAPT in psi4, default
symmetry c1  #important for SAPT in psi4, default
}

set PROPERTIES_ORIGIN ["COM"]
properties('MP2/aug-cc-pvtz', properties = ['dipole'])
--------------------------------------------------------------------------

    Molecular point group: c1
  Charge       = 0
  Multiplicity = 1
  Basis Set: AUG-CC-PVTZ
    Blend: AUG-CC-PVTZ
  Basis Set: (AUG-CC-PVTZ AUX)
    Blend: AUG-CC-PVTZ-JKFIT

    Orbital Energies [Eh]
    ---------------------

    Doubly Occupied:

       1A    -20.571829     2A    -20.565993     3A    -11.289221
       4A    -11.283930     5A    -11.230497     6A    -11.229846
       7A     -1.381827     8A     -1.353876     9A     -1.137393
      10A     -0.953402    11A     -0.836954    12A     -0.784575
      13A     -0.704573    14A     -0.692579    15A     -0.656518
      16A     -0.637817    17A     -0.589551    18A     -0.566357
      19A     -0.532678    20A     -0.519758    21A     -0.501245
      22A     -0.474581    23A     -0.415789    24A     -0.404712

  @DF-RHF Final Energy:  -305.92191797628794

   => Energetics <=

    Nuclear Repulsion Energy =            251.9560469829966678
    One-Electron Energy =                -917.1249272260408816
    Two-Electron Energy =                 359.2469622667562703
    Total Energy =                       -305.9219179762879435
  Basis Set: (AUG-CC-PVTZ AUX)
    Blend: AUG-CC-PVTZ-RI
    Molecular point group: c1

    Geometry (in Angstrom), charge = 0, multiplicity = 1:

       Center              X                  Y                   Z               Mass
    ------------   -----------------  -----------------  -----------------  -----------------
         O           -0.169936287794     1.485659208123    -0.175449100507    15.994914619570
         O            2.038907512206    -0.261347991877     0.351688299493    15.994914619570
         C           -0.311281487794     0.078439008123    -0.112495700507    12.000000000000
         C           -1.278402487794    -0.436341991877     0.910760299493    12.000000000000
         C           -1.646532487794    -0.412911991877    -0.558988700507    12.000000000000
         C            0.937883512206    -0.686114991877    -0.457038700507    12.000000000000
         H           -1.757520487794     0.298622008123     1.549518299493     1.007825032230
         H           -1.073991487794    -1.393048991877     1.381398299493     1.007825032230
         H           -1.701458487794    -1.355050991877    -1.096566700507     1.007825032230
         H           -2.349352487794     0.346328008123    -0.883591700507     1.007825032230
         H            1.165391512206    -0.552018991877    -1.523769700507     1.007825032230
         H            0.801479512206    -1.754436991877    -0.266980700507     1.007825032230
         H            0.301688512206     1.731682008123     0.650738299493     1.007825032230
         H            2.317690512206     0.594632008123    -0.014925700507     1.007825032230

  Basis Set: AUG-CC-PVTZ
    Blend: AUG-CC-PVTZ
  Basis Set: (AUG-CC-PVTZ AUX)
    Blend: AUG-CC-PVTZ-JKFIT
	 Reference Energy          =    -305.9219179762879435 [Eh]
	 Singles Energy            =      -0.0000000000000000 [Eh]
	 Same-Spin Energy          =      -0.3048820981184539 [Eh]
	 Opposite-Spin Energy      =      -0.9844373386268945 [Eh]
	 Correlation Energy        =      -1.2893194367453484 [Eh]
	 Total Energy              =    -307.2112374130333023 [Eh]

	 ================> DF-SCS-MP2 Energies <==================
	-----------------------------------------------------------
	 SCS Same-Spin Scale       =       0.3333333333333333 [-]
	 SCS Opposite-Spin Scale   =       1.2000000000000000 [-]
	 SCS Same-Spin Energy      =      -0.1016273660394846 [Eh]
	 SCS Opposite-Spin Energy  =      -1.1813248063522734 [Eh]
	 SCS Correlation Energy    =      -1.2829521723917581 [Eh]
	 SCS Total Energy          =    -307.2048701486796745 [Eh]
	-----------------------------------------------------------

  Dipole Moment: [D]
     X:    -0.3348      Y:    -0.1659      Z:    -0.0837     Total:     0.3829

*** Psi4 exiting successfully. Buy a developer a beer!
