                               Psi4 1.3.2 release

  ==> Input File <==

--------------------------------------------------------------------------
#psi4
#
memory 32 gb

molecule  {
0 1
  O       -0.1070010     1.5019560    -0.1844920
  O        2.1112495    -0.3055933     0.3078917
  C       -0.2955110     0.1009390    -0.1081660
  C       -1.2626320    -0.4138420     0.9150900
  C       -1.6307620    -0.3904120    -0.5546590
  C        0.9536540    -0.6636150    -0.4527090
  H       -1.7417500     0.3211220     1.5538480
  H       -1.0582210    -1.3705490     1.3857280
  H       -1.6856880    -1.3325510    -1.0922370
  H       -2.3335820     0.3688280    -0.8792620
  H        1.1811620    -0.5295190    -1.5194400
  H        0.8172500    -1.7319370    -0.2626510
  H        0.3174590     1.7541820     0.6550680
  H        2.3334610     0.6171320    -0.0105960
units angstrom
no_reorient  #important for SAPT in psi4, default
symmetry c1  #important for SAPT in psi4, default
}

set PROPERTIES_ORIGIN ["COM"]
properties('MP2/aug-cc-pvtz', properties = ['dipole'])
--------------------------------------------------------------------------

    Molecular point group: c1
  Charge       = 0
  Multiplicity = 1
  Basis Set: AUG-CC-PVTZ
    Blend: AUG-CC-PVTZ
  Basis Set: (AUG-CC-PVTZ AUX)
    Blend: AUG-CC-PVTZ-JKFIT

    Orbital Energies [Eh]
    ---------------------

    Doubly Occupied:

       1A    -20.573300     2A    -20.567755     3A    -11.292033
       4A    -11.280998     5A    -11.233481     6A    -11.232653
       7A     -1.382477     8A     -1.349661     9A     -1.140460
      10A     -0.950242    11A     -0.839101    12A     -0.787283
      13A     -0.703772    14A     -0.690805    15A     -0.653586
      16A     -0.639622    17A     -0.586834    18A     -0.568729
      19A     -0.533284    20A     -0.521980    21A     -0.499863
      22A     -0.471704    23A     -0.419130    24A     -0.406702

  @DF-RHF Final Energy:  -305.91931219177860

   => Energetics <=

    Nuclear Repulsion Energy =            251.1492364821061756
    One-Electron Energy =                -915.4861857001445742
    Two-Electron Energy =                 358.4176370262597970
    Total Energy =                       -305.9193121917786016
  Basis Set: (AUG-CC-PVTZ AUX)
    Blend: AUG-CC-PVTZ-RI
    Molecular point group: c1

    Geometry (in Angstrom), charge = 0, multiplicity = 1:

       Center              X                  Y                   Z               Mass
    ------------   -----------------  -----------------  -----------------  -----------------
         O           -0.141615411476     1.492707261221    -0.177650292060    15.994914619570
         O            2.076635088524    -0.314842038779     0.314733407940    15.994914619570
         C           -0.330125411476     0.091690261221    -0.101324292060    12.000000000000
         C           -1.297246411476    -0.423090738779     0.921931707940    12.000000000000
         C           -1.665376411476    -0.399660738779    -0.547817292060    12.000000000000
         C            0.919039588524    -0.672863738779    -0.445867292060    12.000000000000
         H           -1.776364411476     0.311873261221     1.560689707940     1.007825032230
         H           -1.092835411476    -1.379797738779     1.392569707940     1.007825032230
         H           -1.720302411476    -1.341799738779    -1.085395292060     1.007825032230
         H           -2.368196411476     0.359579261221    -0.872420292060     1.007825032230
         H            1.146547588524    -0.538767738779    -1.512598292060     1.007825032230
         H            0.782635588524    -1.741185738779    -0.255809292060     1.007825032230
         H            0.282844588524     1.744933261221     0.661909707940     1.007825032230
         H            2.298846588524     0.607883261221    -0.003754292060     1.007825032230

  Basis Set: AUG-CC-PVTZ
    Blend: AUG-CC-PVTZ
  Basis Set: (AUG-CC-PVTZ AUX)
    Blend: AUG-CC-PVTZ-JKFIT
	 Reference Energy          =    -305.9193121917786016 [Eh]
	 Singles Energy            =      -0.0000000000000000 [Eh]
	 Same-Spin Energy          =      -0.3050708877966161 [Eh]
	 Opposite-Spin Energy      =      -0.9851170831588205 [Eh]
	 Correlation Energy        =      -1.2901879709554365 [Eh]
	 Total Energy              =    -307.2095001627340594 [Eh]

	 ================> DF-SCS-MP2 Energies <==================
	-----------------------------------------------------------
	 SCS Same-Spin Scale       =       0.3333333333333333 [-]
	 SCS Opposite-Spin Scale   =       1.2000000000000000 [-]
	 SCS Same-Spin Energy      =      -0.1016902959322054 [Eh]
	 SCS Opposite-Spin Energy  =      -1.1821404997905847 [Eh]
	 SCS Correlation Energy    =      -1.2838307957227899 [Eh]
	 SCS Total Energy          =    -307.2031429875013941 [Eh]
	-----------------------------------------------------------

  Dipole Moment: [D]
     X:    -0.6530      Y:    -0.0123      Z:     0.0958     Total:     0.6601

*** Psi4 exiting successfully. Buy a developer a beer!
