                               Psi4 1.3.2 release

  ==> Input File <==

--------------------------------------------------------------------------
#psi4
#
memory 32 gb

molecule  {
0 1
  O       -0.1070010     1.5019560    -0.1844920
  O        2.0546780    -0.2388480     0.3560180
  C       -0.2748770     0.1014801    -0.0632687
  C       -1.2626320    -0.4138420     0.9150900
  C       -1.6307620    -0.3904120    -0.5546590
  C        0.9536540    -0.6636150    -0.4527090
  H       -1.7417500     0.3211220     1.5538480
  H       -1.0582210    -1.3705490     1.3857280
  H       -1.6856880    -1.3325510    -1.0922370
  H       -2.3335820     0.3688280    -0.8792620
  H        1.1811620    -0.5295190    -1.5194400
  H        0.8172500    -1.7319370    -0.2626510
  H        0.3174590     1.7541820     0.6550680
  H        2.3334610     0.6171320    -0.0105960
units angstrom
no_reorient  #important for SAPT in psi4, default
symmetry c1  #important for SAPT in psi4, default
}

set PROPERTIES_ORIGIN ["COM"]
properties('MP2/aug-cc-pvtz', properties = ['dipole'])
--------------------------------------------------------------------------

    Molecular point group: c1
  Charge       = 0
  Multiplicity = 1
  Basis Set: AUG-CC-PVTZ
    Blend: AUG-CC-PVTZ
  Basis Set: (AUG-CC-PVTZ AUX)
    Blend: AUG-CC-PVTZ-JKFIT

    Orbital Energies [Eh]
    ---------------------

    Doubly Occupied:

       1A    -20.572364     2A    -20.563297     3A    -11.289623
       4A    -11.282103     5A    -11.233959     6A    -11.229343
       7A     -1.384223     8A     -1.352916     9A     -1.136066
      10A     -0.953137    11A     -0.836714    12A     -0.785106
      13A     -0.700939    14A     -0.693525    15A     -0.658368
      16A     -0.640218    17A     -0.588771    18A     -0.568628
      19A     -0.530875    20A     -0.519477    21A     -0.500728
      22A     -0.474156    23A     -0.416747    24A     -0.403024

  @DF-RHF Final Energy:  -305.92064691385934

   => Energetics <=

    Nuclear Repulsion Energy =            252.1328772113474770
    One-Electron Energy =                -917.4784349372204133
    Two-Electron Energy =                 359.4249108120135929
    Total Energy =                       -305.9206469138593434
  Basis Set: (AUG-CC-PVTZ AUX)
    Blend: AUG-CC-PVTZ-RI
    Molecular point group: c1

    Geometry (in Angstrom), charge = 0, multiplicity = 1:

       Center              X                  Y                   Z               Mass
    ------------   -----------------  -----------------  -----------------  -----------------
         O           -0.134151127797     1.480509090416    -0.192511252364    15.994914619570
         O            2.027527872203    -0.260294909584     0.347998747636    15.994914619570
         C           -0.302027127797     0.080033190416    -0.071287952364    12.000000000000
         C           -1.289782127797    -0.435288909584     0.907070747636    12.000000000000
         C           -1.657912127797    -0.411858909584    -0.562678252364    12.000000000000
         C            0.926503872203    -0.685061909584    -0.460728252364    12.000000000000
         H           -1.768900127797     0.299675090416     1.545828747636     1.007825032230
         H           -1.085371127797    -1.391995909584     1.377708747636     1.007825032230
         H           -1.712838127797    -1.353997909584    -1.100256252364     1.007825032230
         H           -2.360732127797     0.347381090416    -0.887281252364     1.007825032230
         H            1.154011872203    -0.550965909584    -1.527459252364     1.007825032230
         H            0.790099872203    -1.753383909584    -0.270670252364     1.007825032230
         H            0.290308872203     1.732735090416     0.647048747636     1.007825032230
         H            2.306310872203     0.595685090416    -0.018615252364     1.007825032230

  Basis Set: AUG-CC-PVTZ
    Blend: AUG-CC-PVTZ
  Basis Set: (AUG-CC-PVTZ AUX)
    Blend: AUG-CC-PVTZ-JKFIT
	 Reference Energy          =    -305.9206469138593434 [Eh]
	 Singles Energy            =      -0.0000000000000000 [Eh]
	 Same-Spin Energy          =      -0.3049054314056120 [Eh]
	 Opposite-Spin Energy      =      -0.9845840652283139 [Eh]
	 Correlation Energy        =      -1.2894894966339259 [Eh]
	 Total Energy              =    -307.2101364104932486 [Eh]

	 ================> DF-SCS-MP2 Energies <==================
	-----------------------------------------------------------
	 SCS Same-Spin Scale       =       0.3333333333333333 [-]
	 SCS Opposite-Spin Scale   =       1.2000000000000000 [-]
	 SCS Same-Spin Energy      =      -0.1016351438018707 [Eh]
	 SCS Opposite-Spin Energy  =      -1.1815008782739767 [Eh]
	 SCS Correlation Energy    =      -1.2831360220758472 [Eh]
	 SCS Total Energy          =    -307.2037829359351804 [Eh]
	-----------------------------------------------------------

  Dipole Moment: [D]
     X:    -0.4413      Y:    -0.1363      Z:     0.0203     Total:     0.4623

*** Psi4 exiting successfully. Buy a developer a beer!
