                               Psi4 1.3.2 release

  ==> Input File <==

--------------------------------------------------------------------------
#psi4
#
memory 32 gb

molecule  {
0 1
  O       -0.2054301     1.5133658    -0.0743100
  O        2.0546780    -0.2388480     0.3560180
  C       -0.2955110     0.1009390    -0.1081660
  C       -1.2626320    -0.4138420     0.9150900
  C       -1.6307620    -0.3904120    -0.5546590
  C        0.9536540    -0.6636150    -0.4527090
  H       -1.7417500     0.3211220     1.5538480
  H       -1.0582210    -1.3705490     1.3857280
  H       -1.6856880    -1.3325510    -1.0922370
  H       -2.3335820     0.3688280    -0.8792620
  H        1.1811620    -0.5295190    -1.5194400
  H        0.8172500    -1.7319370    -0.2626510
  H        0.3174590     1.7541820     0.6550680
  H        2.3334610     0.6171320    -0.0105960
units angstrom
no_reorient  #important for SAPT in psi4, default
symmetry c1  #important for SAPT in psi4, default
}

set PROPERTIES_ORIGIN ["COM"]
properties('MP2/aug-cc-pvtz', properties = ['dipole'])
--------------------------------------------------------------------------

    Molecular point group: c1
  Charge       = 0
  Multiplicity = 1
  Basis Set: AUG-CC-PVTZ
    Blend: AUG-CC-PVTZ
  Basis Set: (AUG-CC-PVTZ AUX)
    Blend: AUG-CC-PVTZ-JKFIT

    Orbital Energies [Eh]
    ---------------------

    Doubly Occupied:

       1A    -20.568048     2A    -20.564640     3A    -11.289852
       4A    -11.286861     5A    -11.230787     6A    -11.226175
       7A     -1.388642     8A     -1.358661     9A     -1.138254
      10A     -0.955087    11A     -0.835716    12A     -0.793430
      13A     -0.712975    14A     -0.693750    15A     -0.656069
      16A     -0.636019    17A     -0.590218    18A     -0.566746
      19A     -0.535935    20A     -0.521158    21A     -0.501792
      22A     -0.476348    23A     -0.418240    24A     -0.399019

  @DF-RHF Final Energy:  -305.92164538455046

   => Energetics <=

    Nuclear Repulsion Energy =            252.2246215676384793
    One-Electron Energy =                -917.6036876464240777
    Two-Electron Energy =                 359.4574206942351680
    Total Energy =                       -305.9216453845504589
  Basis Set: (AUG-CC-PVTZ AUX)
    Blend: AUG-CC-PVTZ-RI
    Molecular point group: c1

    Geometry (in Angstrom), charge = 0, multiplicity = 1:

       Center              X                  Y                   Z               Mass
    ------------   -----------------  -----------------  -----------------  -----------------
         O           -0.211888316614     1.489920017951    -0.096225337794    15.994914619570
         O            2.048219783386    -0.262293782049     0.334102662206    15.994914619570
         C           -0.301969216614     0.077493217951    -0.130081337794    12.000000000000
         C           -1.269090216614    -0.437287782049     0.893174662206    12.000000000000
         C           -1.637220216614    -0.413857782049    -0.576574337794    12.000000000000
         C            0.947195783386    -0.687060782049    -0.474624337794    12.000000000000
         H           -1.748208216614     0.297676217951     1.531932662206     1.007825032230
         H           -1.064679216614    -1.393994782049     1.363812662206     1.007825032230
         H           -1.692146216614    -1.355996782049    -1.114152337794     1.007825032230
         H           -2.340040216614     0.345382217951    -0.901177337794     1.007825032230
         H            1.174703783386    -0.552964782049    -1.541355337794     1.007825032230
         H            0.810791783386    -1.755382782049    -0.284566337794     1.007825032230
         H            0.311000783386     1.730736217951     0.633152662206     1.007825032230
         H            2.327002783386     0.593686217951    -0.032511337794     1.007825032230

  Basis Set: AUG-CC-PVTZ
    Blend: AUG-CC-PVTZ
  Basis Set: (AUG-CC-PVTZ AUX)
    Blend: AUG-CC-PVTZ-JKFIT
	 Reference Energy          =    -305.9216453845504589 [Eh]
	 Singles Energy            =      -0.0000000000000000 [Eh]
	 Same-Spin Energy          =      -0.3041735515850862 [Eh]
	 Opposite-Spin Energy      =      -0.9826569766251563 [Eh]
	 Correlation Energy        =      -1.2868305282102424 [Eh]
	 Total Energy              =    -307.2084759127607185 [Eh]

	 ================> DF-SCS-MP2 Energies <==================
	-----------------------------------------------------------
	 SCS Same-Spin Scale       =       0.3333333333333333 [-]
	 SCS Opposite-Spin Scale   =       1.2000000000000000 [-]
	 SCS Same-Spin Energy      =      -0.1013911838616954 [Eh]
	 SCS Opposite-Spin Energy  =      -1.1791883719501874 [Eh]
	 SCS Correlation Energy    =      -1.2805795558118829 [Eh]
	 SCS Total Energy          =    -307.2022249403623277 [Eh]
	-----------------------------------------------------------

  Dipole Moment: [D]
     X:    -0.1479      Y:    -0.2035      Z:    -0.2590     Total:     0.3611

*** Psi4 exiting successfully. Buy a developer a beer!
