                               Psi4 1.3.2 release

  ==> Input File <==

--------------------------------------------------------------------------
#psi4
#
memory 32 gb

molecule  {
0 1
  O       -0.1070010     1.5019560    -0.1844920
  O        2.0546780    -0.2388480     0.3560180
  C       -0.2821953     0.1999018    -0.1135574
  C       -1.2626320    -0.4138420     0.9150900
  C       -1.6307620    -0.3904120    -0.5546590
  C        0.9536540    -0.6636150    -0.4527090
  H       -1.7417500     0.3211220     1.5538480
  H       -1.0582210    -1.3705490     1.3857280
  H       -1.6856880    -1.3325510    -1.0922370
  H       -2.3335820     0.3688280    -0.8792620
  H        1.1811620    -0.5295190    -1.5194400
  H        0.8172500    -1.7319370    -0.2626510
  H        0.3174590     1.7541820     0.6550680
  H        2.3334610     0.6171320    -0.0105960
units angstrom
no_reorient  #important for SAPT in psi4, default
symmetry c1  #important for SAPT in psi4, default
}

set PROPERTIES_ORIGIN ["COM"]
properties('MP2/aug-cc-pvtz', properties = ['dipole'])
--------------------------------------------------------------------------

    Molecular point group: c1
  Charge       = 0
  Multiplicity = 1
  Basis Set: AUG-CC-PVTZ
    Blend: AUG-CC-PVTZ
  Basis Set: (AUG-CC-PVTZ AUX)
    Blend: AUG-CC-PVTZ-JKFIT

    Orbital Energies [Eh]
    ---------------------

    Doubly Occupied:

       1A    -20.582632     2A    -20.562038     3A    -11.291261
       4A    -11.279568     5A    -11.229360     6A    -11.228719
       7A     -1.423147     8A     -1.356467     9A     -1.117834
      10A     -0.940868    11A     -0.833322    12A     -0.802529
      13A     -0.710226    14A     -0.692701    15A     -0.659506
      16A     -0.644789    17A     -0.595315    18A     -0.574684
      19A     -0.536452    20A     -0.519383    21A     -0.506228
      22A     -0.472249    23A     -0.399408    24A     -0.385587

  @DF-RHF Final Energy:  -305.91280922184092

   => Energetics <=

    Nuclear Repulsion Energy =            252.2505790663409471
    One-Electron Energy =                -917.6382293172907794
    Two-Electron Energy =                 359.4748410291089158
    Total Energy =                       -305.9128092218409165
  Basis Set: (AUG-CC-PVTZ AUX)
    Blend: AUG-CC-PVTZ-RI
    Molecular point group: c1

    Geometry (in Angstrom), charge = 0, multiplicity = 1:

       Center              X                  Y                   Z               Mass
    ------------   -----------------  -----------------  -----------------  -----------------
         O           -0.133153772011     1.467095940924    -0.185657785589    15.994914619570
         O            2.028525227989    -0.273708059076     0.354852214411    15.994914619570
         C           -0.308348072011     0.165041740924    -0.114723185589    12.000000000000
         C           -1.288784772011    -0.448702059076     0.913924214411    12.000000000000
         C           -1.656914772011    -0.425272059076    -0.555824785589    12.000000000000
         C            0.927501227989    -0.698475059076    -0.453874785589    12.000000000000
         H           -1.767902772011     0.286261940924     1.552682214411     1.007825032230
         H           -1.084373772011    -1.405409059076     1.384562214411     1.007825032230
         H           -1.711840772011    -1.367411059076    -1.093402785589     1.007825032230
         H           -2.359734772011     0.333967940924    -0.880427785589     1.007825032230
         H            1.155009227989    -0.564379059076    -1.520605785589     1.007825032230
         H            0.791097227989    -1.766797059076    -0.263816785589     1.007825032230
         H            0.291306227989     1.719321940924     0.653902214411     1.007825032230
         H            2.307308227989     0.582271940924    -0.011761785589     1.007825032230

  Basis Set: AUG-CC-PVTZ
    Blend: AUG-CC-PVTZ
  Basis Set: (AUG-CC-PVTZ AUX)
    Blend: AUG-CC-PVTZ-JKFIT
	 Reference Energy          =    -305.9128092218409165 [Eh]
	 Singles Energy            =      -0.0000000000000000 [Eh]
	 Same-Spin Energy          =      -0.3047632206594632 [Eh]
	 Opposite-Spin Energy      =      -0.9835758667681238 [Eh]
	 Correlation Energy        =      -1.2883390874275871 [Eh]
	 Total Energy              =    -307.2011483092684898 [Eh]

	 ================> DF-SCS-MP2 Energies <==================
	-----------------------------------------------------------
	 SCS Same-Spin Scale       =       0.3333333333333333 [-]
	 SCS Opposite-Spin Scale   =       1.2000000000000000 [-]
	 SCS Same-Spin Energy      =      -0.1015877402198211 [Eh]
	 SCS Opposite-Spin Energy  =      -1.1802910401217486 [Eh]
	 SCS Correlation Energy    =      -1.2818787803415697 [Eh]
	 SCS Total Energy          =    -307.1946880021824882 [Eh]
	-----------------------------------------------------------

  Dipole Moment: [D]
     X:    -0.3539      Y:     0.2143      Z:    -0.0522     Total:     0.4170

*** Psi4 exiting successfully. Buy a developer a beer!
