                               Psi4 1.3.2 release

  ==> Input File <==

--------------------------------------------------------------------------
#psi4
#
memory 32 gb

molecule  {
0 1
  O       -0.1070010     1.5019560    -0.1844920
  O        2.0546780    -0.2388480     0.3560180
  C       -0.2955110     0.1009390    -0.1081660
  C       -1.2626320    -0.4138420     0.9150900
  C       -1.6307620    -0.3904120    -0.5546590
  C        0.7876022    -0.5619826    -0.4069088
  H       -1.7417500     0.3211220     1.5538480
  H       -1.0582210    -1.3705490     1.3857280
  H       -1.6856880    -1.3325510    -1.0922370
  H       -2.3335820     0.3688280    -0.8792620
  H        1.1811620    -0.5295190    -1.5194400
  H        0.8172500    -1.7319370    -0.2626510
  H        0.3174590     1.7541820     0.6550680
  H        2.3334610     0.6171320    -0.0105960
units angstrom
no_reorient  #important for SAPT in psi4, default
symmetry c1  #important for SAPT in psi4, default
}

set PROPERTIES_ORIGIN ["COM"]
properties('MP2/aug-cc-pvtz', properties = ['dipole'])
--------------------------------------------------------------------------

    Molecular point group: c1
  Charge       = 0
  Multiplicity = 1
  Basis Set: AUG-CC-PVTZ
    Blend: AUG-CC-PVTZ
  Basis Set: (AUG-CC-PVTZ AUX)
    Blend: AUG-CC-PVTZ-JKFIT

    Orbital Energies [Eh]
    ---------------------

    Doubly Occupied:

       1A    -20.573800     2A    -20.556931     3A    -11.288138
       4A    -11.284320     5A    -11.240703     6A    -11.238612
       7A     -1.388551     8A     -1.327748     9A     -1.159759
      10A     -0.987743    11A     -0.846570    12A     -0.785093
      13A     -0.713400    14A     -0.689950    15A     -0.654769
      16A     -0.640455    17A     -0.576966    18A     -0.559876
      19A     -0.534645    20A     -0.521167    21A     -0.490105
      22A     -0.470208    23A     -0.433140    24A     -0.401382

  @DF-RHF Final Energy:  -305.86860737178864

   => Energetics <=

    Nuclear Repulsion Energy =            254.6600425779197110
    One-Electron Energy =                -922.3292379868254329
    Two-Electron Energy =                 361.8005880371170520
    Total Energy =                       -305.8686073717886416
  Basis Set: (AUG-CC-PVTZ AUX)
    Blend: AUG-CC-PVTZ-RI
    Molecular point group: c1

    Geometry (in Angstrom), charge = 0, multiplicity = 1:

       Center              X                  Y                   Z               Mass
    ------------   -----------------  -----------------  -----------------  -----------------
         O           -0.108709131332     1.466732121320    -0.192634301780    15.994914619570
         O            2.052969868668    -0.274071878680     0.347875698220    15.994914619570
         C           -0.297219131332     0.065715121320    -0.116308301780    12.000000000000
         C           -1.264340131332    -0.449065878680     0.906947698220    12.000000000000
         C           -1.632470131332    -0.425635878680    -0.562801301780    12.000000000000
         C            0.785894068668    -0.597206478680    -0.415051101780    12.000000000000
         H           -1.743458131332     0.285898121320     1.545705698220     1.007825032230
         H           -1.059929131332    -1.405772878680     1.377585698220     1.007825032230
         H           -1.687396131332    -1.367774878680    -1.100379301780     1.007825032230
         H           -2.335290131332     0.333604121320    -0.887404301780     1.007825032230
         H            1.179453868668    -0.564742878680    -1.527582301780     1.007825032230
         H            0.815541868668    -1.767160878680    -0.270793301780     1.007825032230
         H            0.315750868668     1.718958121320     0.646925698220     1.007825032230
         H            2.331752868668     0.581908121320    -0.018738301780     1.007825032230

  Basis Set: AUG-CC-PVTZ
    Blend: AUG-CC-PVTZ
  Basis Set: (AUG-CC-PVTZ AUX)
    Blend: AUG-CC-PVTZ-JKFIT
	 Reference Energy          =    -305.8686073717886416 [Eh]
	 Singles Energy            =      -0.0000000000000000 [Eh]
	 Same-Spin Energy          =      -0.3084808195143530 [Eh]
	 Opposite-Spin Energy      =      -0.9905201543789000 [Eh]
	 Correlation Energy        =      -1.2990009738932531 [Eh]
	 Total Energy              =    -307.1676083456819129 [Eh]

	 ================> DF-SCS-MP2 Energies <==================
	-----------------------------------------------------------
	 SCS Same-Spin Scale       =       0.3333333333333333 [-]
	 SCS Opposite-Spin Scale   =       1.2000000000000000 [-]
	 SCS Same-Spin Energy      =      -0.1028269398381177 [Eh]
	 SCS Opposite-Spin Energy  =      -1.1886241852546799 [Eh]
	 SCS Correlation Energy    =      -1.2914511250927976 [Eh]
	 SCS Total Energy          =    -307.1600584968814474 [Eh]
	-----------------------------------------------------------

  Dipole Moment: [D]
     X:    -1.0441      Y:    -0.1287      Z:     0.0218     Total:     1.0523

*** Psi4 exiting successfully. Buy a developer a beer!
