                               Psi4 1.3.2 release

  ==> Input File <==

--------------------------------------------------------------------------
#psi4
#
memory 32 gb

molecule  {
0 1
  O       -0.1070010     1.5019560    -0.1844920
  O        2.0546780    -0.2388480     0.3560180
  C       -0.2934066     0.0927266    -0.0833132
  C       -1.2626320    -0.4138420     0.9150900
  C       -1.6307620    -0.3904120    -0.5546590
  C        0.9536540    -0.6636150    -0.4527090
  H       -1.7417500     0.3211220     1.5538480
  H       -1.0582210    -1.3705490     1.3857280
  H       -1.6856880    -1.3325510    -1.0922370
  H       -2.3335820     0.3688280    -0.8792620
  H        1.1811620    -0.5295190    -1.5194400
  H        0.8172500    -1.7319370    -0.2626510
  H        0.3174590     1.7541820     0.6550680
  H        2.3334610     0.6171320    -0.0105960
units angstrom
no_reorient  #important for SAPT in psi4, default
symmetry c1  #important for SAPT in psi4, default
}

set PROPERTIES_ORIGIN ["COM"]
properties('MP2/aug-cc-pvtz', properties = ['dipole'])
--------------------------------------------------------------------------

    Molecular point group: c1
  Charge       = 0
  Multiplicity = 1
  Basis Set: AUG-CC-PVTZ
    Blend: AUG-CC-PVTZ
  Basis Set: (AUG-CC-PVTZ AUX)
    Blend: AUG-CC-PVTZ-JKFIT

    Orbital Energies [Eh]
    ---------------------

    Doubly Occupied:

       1A    -20.570457     2A    -20.564094     3A    -11.289313
       4A    -11.282496     5A    -11.232679     6A    -11.230130
       7A     -1.380796     8A     -1.351661     9A     -1.141144
      10A     -0.952654    11A     -0.838342    12A     -0.784130
      13A     -0.701300    14A     -0.693517    15A     -0.658540
      16A     -0.638786    17A     -0.589496    18A     -0.565093
      19A     -0.530764    20A     -0.519576    21A     -0.499748
      22A     -0.473533    23A     -0.414467    24A     -0.411062

  @DF-RHF Final Energy:  -305.92200951792012

   => Energetics <=

    Nuclear Repulsion Energy =            252.1102584858725493
    One-Electron Energy =                -917.4369832297403491
    Two-Electron Energy =                 359.4047152259476547
    Total Energy =                       -305.9220095179201167
  Basis Set: (AUG-CC-PVTZ AUX)
    Blend: AUG-CC-PVTZ-RI
    Molecular point group: c1

    Geometry (in Angstrom), charge = 0, multiplicity = 1:

       Center              X                  Y                   Z               Mass
    ------------   -----------------  -----------------  -----------------  -----------------
         O           -0.131625868684     1.481702038761    -0.189779538982    15.994914619570
         O            2.030053131316    -0.259101961239     0.350730461018    15.994914619570
         C           -0.318031468684     0.072472638761    -0.088600738982    12.000000000000
         C           -1.287256868684    -0.434095961239     0.909802461018    12.000000000000
         C           -1.655386868684    -0.410665961239    -0.559946538982    12.000000000000
         C            0.929029131316    -0.683868961239    -0.457996538982    12.000000000000
         H           -1.766374868684     0.300868038761     1.548560461018     1.007825032230
         H           -1.082845868684    -1.390802961239     1.380440461018     1.007825032230
         H           -1.710312868684    -1.352804961239    -1.097524538982     1.007825032230
         H           -2.358206868684     0.348574038761    -0.884549538982     1.007825032230
         H            1.156537131316    -0.549772961239    -1.524727538982     1.007825032230
         H            0.792625131316    -1.752190961239    -0.267938538982     1.007825032230
         H            0.292834131316     1.733928038761     0.649780461018     1.007825032230
         H            2.308836131316     0.596878038761    -0.015883538982     1.007825032230

  Basis Set: AUG-CC-PVTZ
    Blend: AUG-CC-PVTZ
  Basis Set: (AUG-CC-PVTZ AUX)
    Blend: AUG-CC-PVTZ-JKFIT
	 Reference Energy          =    -305.9220095179201167 [Eh]
	 Singles Energy            =      -0.0000000000000000 [Eh]
	 Same-Spin Energy          =      -0.3048161978379721 [Eh]
	 Opposite-Spin Energy      =      -0.9843262710947768 [Eh]
	 Correlation Energy        =      -1.2891424689327489 [Eh]
	 Total Energy              =    -307.2111519868528831 [Eh]

	 ================> DF-SCS-MP2 Energies <==================
	-----------------------------------------------------------
	 SCS Same-Spin Scale       =       0.3333333333333333 [-]
	 SCS Opposite-Spin Scale   =       1.2000000000000000 [-]
	 SCS Same-Spin Energy      =      -0.1016053992793240 [Eh]
	 SCS Opposite-Spin Energy  =      -1.1811915253137322 [Eh]
	 SCS Correlation Energy    =      -1.2827969245930562 [Eh]
	 SCS Total Energy          =    -307.2048064425131884 [Eh]
	-----------------------------------------------------------

  Dipole Moment: [D]
     X:    -0.4663      Y:    -0.1701      Z:    -0.0051     Total:     0.4964

*** Psi4 exiting successfully. Buy a developer a beer!
