                               Psi4 1.3.2 release

  ==> Input File <==

--------------------------------------------------------------------------
#psi4
#
memory 32 gb

molecule  {
0 1
  O       -0.1070010     1.5019560    -0.1844920
  O        2.0546780    -0.2388480     0.3560180
  C       -0.2955110     0.1009390    -0.1081660
  C       -1.2316900    -0.4554605     0.9220591
  C       -1.6307620    -0.3904120    -0.5546590
  C        0.9536540    -0.6636150    -0.4527090
  H       -1.7417500     0.3211220     1.5538480
  H       -1.0582210    -1.3705490     1.3857280
  H       -1.6856880    -1.3325510    -1.0922370
  H       -2.3335820     0.3688280    -0.8792620
  H        1.1811620    -0.5295190    -1.5194400
  H        0.8172500    -1.7319370    -0.2626510
  H        0.3174590     1.7541820     0.6550680
  H        2.3334610     0.6171320    -0.0105960
units angstrom
no_reorient  #important for SAPT in psi4, default
symmetry c1  #important for SAPT in psi4, default
}

set PROPERTIES_ORIGIN ["COM"]
properties('MP2/aug-cc-pvtz', properties = ['dipole'])
--------------------------------------------------------------------------

    Molecular point group: c1
  Charge       = 0
  Multiplicity = 1
  Basis Set: AUG-CC-PVTZ
    Blend: AUG-CC-PVTZ
  Basis Set: (AUG-CC-PVTZ AUX)
    Blend: AUG-CC-PVTZ-JKFIT

    Orbital Energies [Eh]
    ---------------------

    Doubly Occupied:

       1A    -20.572493     2A    -20.564561     3A    -11.290796
       4A    -11.281501     5A    -11.232213     6A    -11.231600
       7A     -1.383405     8A     -1.352896     9A     -1.137272
      10A     -0.951279    11A     -0.840606    12A     -0.786422
      13A     -0.702972    14A     -0.692573    15A     -0.660753
      16A     -0.640163    17A     -0.586977    18A     -0.565687
      19A     -0.532060    20A     -0.520007    21A     -0.502012
      22A     -0.471374    23A     -0.416494    24A     -0.405435

  @DF-RHF Final Energy:  -305.91937706327565

   => Energetics <=

    Nuclear Repulsion Energy =            252.0300866221093941
    One-Electron Energy =                -917.2558292479297961
    Two-Electron Energy =                 359.3063655625447836
    Total Energy =                       -305.9193770632756468
  Basis Set: (AUG-CC-PVTZ AUX)
    Blend: AUG-CC-PVTZ-RI
    Molecular point group: c1

    Geometry (in Angstrom), charge = 0, multiplicity = 1:

       Center              X                  Y                   Z               Mass
    ------------   -----------------  -----------------  -----------------  -----------------
         O           -0.135555927195     1.486254703602    -0.187342304698    15.994914619570
         O            2.026123072805    -0.254549296398     0.353167695302    15.994914619570
         C           -0.324065927195     0.085237703602    -0.111016304698    12.000000000000
         C           -1.260244927195    -0.471161796398     0.919208795302    12.000000000000
         C           -1.659316927195    -0.406113296398    -0.557509304698    12.000000000000
         C            0.925099072805    -0.679316296398    -0.455559304698    12.000000000000
         H           -1.770304927195     0.305420703602     1.550997695302     1.007825032230
         H           -1.086775927195    -1.386250296398     1.382877695302     1.007825032230
         H           -1.714242927195    -1.348252296398    -1.095087304698     1.007825032230
         H           -2.362136927195     0.353126703602    -0.882112304698     1.007825032230
         H            1.152607072805    -0.545220296398    -1.522290304698     1.007825032230
         H            0.788695072805    -1.747638296398    -0.265501304698     1.007825032230
         H            0.288904072805     1.738480703602     0.652217695302     1.007825032230
         H            2.304906072805     0.601430703602    -0.013446304698     1.007825032230

  Basis Set: AUG-CC-PVTZ
    Blend: AUG-CC-PVTZ
  Basis Set: (AUG-CC-PVTZ AUX)
    Blend: AUG-CC-PVTZ-JKFIT
	 Reference Energy          =    -305.9193770632756468 [Eh]
	 Singles Energy            =      -0.0000000000000000 [Eh]
	 Same-Spin Energy          =      -0.3048114713248367 [Eh]
	 Opposite-Spin Energy      =      -0.9844008817669943 [Eh]
	 Correlation Energy        =      -1.2892123530918309 [Eh]
	 Total Energy              =    -307.2085894163674880 [Eh]

	 ================> DF-SCS-MP2 Energies <==================
	-----------------------------------------------------------
	 SCS Same-Spin Scale       =       0.3333333333333333 [-]
	 SCS Opposite-Spin Scale   =       1.2000000000000000 [-]
	 SCS Same-Spin Energy      =      -0.1016038237749456 [Eh]
	 SCS Opposite-Spin Energy  =      -1.1812810581203930 [Eh]
	 SCS Correlation Energy    =      -1.2828848818953384 [Eh]
	 SCS Total Energy          =    -307.2022619451709602 [Eh]
	-----------------------------------------------------------

  Dipole Moment: [D]
     X:    -0.4548      Y:    -0.1474      Z:    -0.0428     Total:     0.4800

*** Psi4 exiting successfully. Buy a developer a beer!
