                               Psi4 1.3.2 release

  ==> Input File <==

--------------------------------------------------------------------------
#psi4
#
memory 32 gb

molecule  {
0 1
  O       -0.1070010     1.5019560    -0.1844920
  O        2.0243625    -0.2062314     0.3786176
  C       -0.2955110     0.1009390    -0.1081660
  C       -1.2626320    -0.4138420     0.9150900
  C       -1.6307620    -0.3904120    -0.5546590
  C        0.9536540    -0.6636150    -0.4527090
  H       -1.7417500     0.3211220     1.5538480
  H       -1.0582210    -1.3705490     1.3857280
  H       -1.6856880    -1.3325510    -1.0922370
  H       -2.3335820     0.3688280    -0.8792620
  H        1.1811620    -0.5295190    -1.5194400
  H        0.8172500    -1.7319370    -0.2626510
  H        0.3174590     1.7541820     0.6550680
  H        2.3334610     0.6171320    -0.0105960
units angstrom
no_reorient  #important for SAPT in psi4, default
symmetry c1  #important for SAPT in psi4, default
}

set PROPERTIES_ORIGIN ["COM"]
properties('MP2/aug-cc-pvtz', properties = ['dipole'])
--------------------------------------------------------------------------

    Molecular point group: c1
  Charge       = 0
  Multiplicity = 1
  Basis Set: AUG-CC-PVTZ
    Blend: AUG-CC-PVTZ
  Basis Set: (AUG-CC-PVTZ AUX)
    Blend: AUG-CC-PVTZ-JKFIT

    Orbital Energies [Eh]
    ---------------------

    Doubly Occupied:

       1A    -20.569589     2A    -20.563229     3A    -11.288335
       4A    -11.282725     5A    -11.230872     6A    -11.229843
       7A     -1.383244     8A     -1.353275     9A     -1.137886
      10A     -0.953566    11A     -0.836939    12A     -0.784784
      13A     -0.702474    14A     -0.694585    15A     -0.659835
      16A     -0.638125    17A     -0.589725    18A     -0.564696
      19A     -0.530323    20A     -0.518363    21A     -0.501650
      22A     -0.474327    23A     -0.413650    24A     -0.406545

  @DF-RHF Final Energy:  -305.92301725820397

   => Energetics <=

    Nuclear Repulsion Energy =            252.5676529366155023
    One-Electron Energy =                -918.3641683748114701
    Two-Electron Energy =                 359.8734981799919410
    Total Energy =                       -305.9230172582039700
  Basis Set: (AUG-CC-PVTZ AUX)
    Blend: AUG-CC-PVTZ-RI
    Molecular point group: c1

    Geometry (in Angstrom), charge = 0, multiplicity = 1:

       Center              X                  Y                   Z               Mass
    ------------   -----------------  -----------------  -----------------  -----------------
         O           -0.125832199650     1.474657956778    -0.190497805051    15.994914619570
         O            2.005531300350    -0.233529443222     0.372611794949    15.994914619570
         C           -0.314342199650     0.073640956778    -0.114171805051    12.000000000000
         C           -1.281463199650    -0.441140043222     0.909084194949    12.000000000000
         C           -1.649593199650    -0.417710043222    -0.560664805051    12.000000000000
         C            0.934822800350    -0.690913043222    -0.458714805051    12.000000000000
         H           -1.760581199650     0.293823956778     1.547842194949     1.007825032230
         H           -1.077052199650    -1.397847043222     1.379722194949     1.007825032230
         H           -1.704519199650    -1.359849043222    -1.098242805051     1.007825032230
         H           -2.352413199650     0.341529956778    -0.885267805051     1.007825032230
         H            1.162330800350    -0.556817043222    -1.525445805051     1.007825032230
         H            0.798418800350    -1.759235043222    -0.268656805051     1.007825032230
         H            0.298627800350     1.726883956778     0.649062194949     1.007825032230
         H            2.314629800350     0.589833956778    -0.016601805051     1.007825032230

  Basis Set: AUG-CC-PVTZ
    Blend: AUG-CC-PVTZ
  Basis Set: (AUG-CC-PVTZ AUX)
    Blend: AUG-CC-PVTZ-JKFIT
	 Reference Energy          =    -305.9230172582039700 [Eh]
	 Singles Energy            =      -0.0000000000000000 [Eh]
	 Same-Spin Energy          =      -0.3046522574613478 [Eh]
	 Opposite-Spin Energy      =      -0.9837591032286339 [Eh]
	 Correlation Energy        =      -1.2884113606899819 [Eh]
	 Total Energy              =    -307.2114286188939332 [Eh]

	 ================> DF-SCS-MP2 Energies <==================
	-----------------------------------------------------------
	 SCS Same-Spin Scale       =       0.3333333333333333 [-]
	 SCS Opposite-Spin Scale   =       1.2000000000000000 [-]
	 SCS Same-Spin Energy      =      -0.1015507524871159 [Eh]
	 SCS Opposite-Spin Energy  =      -1.1805109238743607 [Eh]
	 SCS Correlation Energy    =      -1.2820616763614767 [Eh]
	 SCS Total Energy          =    -307.2050789345654493 [Eh]
	-----------------------------------------------------------

  Dipole Moment: [D]
     X:    -0.3596      Y:    -0.2111      Z:    -0.1012     Total:     0.4291

*** Psi4 exiting successfully. Buy a developer a beer!
