                               Psi4 1.3.2 release

  ==> Input File <==

--------------------------------------------------------------------------
#psi4
#
memory 32 gb

molecule  {
0 1
  O       -0.1070010     1.5019560    -0.1844920
  O        2.1374365    -0.3396407     0.2824235
  C       -0.2955110     0.1009390    -0.1081660
  C       -1.2626320    -0.4138420     0.9150900
  C       -1.6307620    -0.3904120    -0.5546590
  C        0.9536540    -0.6636150    -0.4527090
  H       -1.7417500     0.3211220     1.5538480
  H       -1.0582210    -1.3705490     1.3857280
  H       -1.6856880    -1.3325510    -1.0922370
  H       -2.3335820     0.3688280    -0.8792620
  H        1.1811620    -0.5295190    -1.5194400
  H        0.8172500    -1.7319370    -0.2626510
  H        0.3174590     1.7541820     0.6550680
  H        2.3334610     0.6171320    -0.0105960
units angstrom
no_reorient  #important for SAPT in psi4, default
symmetry c1  #important for SAPT in psi4, default
}

set PROPERTIES_ORIGIN ["COM"]
properties('MP2/aug-cc-pvtz', properties = ['dipole'])
--------------------------------------------------------------------------

    Molecular point group: c1
  Charge       = 0
  Multiplicity = 1
  Basis Set: AUG-CC-PVTZ
    Blend: AUG-CC-PVTZ
  Basis Set: (AUG-CC-PVTZ AUX)
    Blend: AUG-CC-PVTZ-JKFIT

    Orbital Energies [Eh]
    ---------------------

    Doubly Occupied:

       1A    -20.574382     2A    -20.569783     3A    -11.293279
       4A    -11.280368     5A    -11.234453     6A    -11.233318
       7A     -1.382577     8A     -1.347484     9A     -1.141239
      10A     -0.948923    11A     -0.839760    12A     -0.787735
      13A     -0.704002    14A     -0.689607    15A     -0.651451
      16A     -0.639790    17A     -0.585381    18A     -0.569933
      19A     -0.534063    20A     -0.522934    21A     -0.499000
      22A     -0.470668    23A     -0.420846    24A     -0.406589

  @DF-RHF Final Energy:  -305.91573623088487

   => Energetics <=

    Nuclear Repulsion Energy =            250.6984761841206364
    One-Electron Energy =                -914.5732961401832881
    Two-Electron Energy =                 357.9590837251777771
    Total Energy =                       -305.9157362308848747
  Basis Set: (AUG-CC-PVTZ AUX)
    Blend: AUG-CC-PVTZ-RI
    Molecular point group: c1

    Geometry (in Angstrom), charge = 0, multiplicity = 1:

       Center              X                  Y                   Z               Mass
    ------------   -----------------  -----------------  -----------------  -----------------
         O           -0.146372336770     1.498892045208    -0.173023938343    15.994914619570
         O            2.098065163230    -0.342704654792     0.293891561657    15.994914619570
         C           -0.334882336770     0.097875045208    -0.096697938343    12.000000000000
         C           -1.302003336770    -0.416905954792     0.926558061657    12.000000000000
         C           -1.670133336770    -0.393475954792    -0.543190938343    12.000000000000
         C            0.914282663230    -0.666678954792    -0.441240938343    12.000000000000
         H           -1.781121336770     0.318058045208     1.565316061657     1.007825032230
         H           -1.097592336770    -1.373612954792     1.397196061657     1.007825032230
         H           -1.725059336770    -1.335614954792    -1.080768938343     1.007825032230
         H           -2.372953336770     0.365764045208    -0.867793938343     1.007825032230
         H            1.141790663230    -0.532582954792    -1.507971938343     1.007825032230
         H            0.777878663230    -1.735000954792    -0.251182938343     1.007825032230
         H            0.278087663230     1.751118045208     0.666536061657     1.007825032230
         H            2.294089663230     0.614068045208     0.000872061657     1.007825032230

  Basis Set: AUG-CC-PVTZ
    Blend: AUG-CC-PVTZ
  Basis Set: (AUG-CC-PVTZ AUX)
    Blend: AUG-CC-PVTZ-JKFIT
	 Reference Energy          =    -305.9157362308848747 [Eh]
	 Singles Energy            =      -0.0000000000000000 [Eh]
	 Same-Spin Energy          =      -0.3053321173882607 [Eh]
	 Opposite-Spin Energy      =      -0.9858706150106620 [Eh]
	 Correlation Energy        =      -1.2912027323989226 [Eh]
	 Total Energy              =    -307.2069389632837897 [Eh]

	 ================> DF-SCS-MP2 Energies <==================
	-----------------------------------------------------------
	 SCS Same-Spin Scale       =       0.3333333333333333 [-]
	 SCS Opposite-Spin Scale   =       1.2000000000000000 [-]
	 SCS Same-Spin Energy      =      -0.1017773724627536 [Eh]
	 SCS Opposite-Spin Energy  =      -1.1830447380127944 [Eh]
	 SCS Correlation Energy    =      -1.2848221104755480 [Eh]
	 SCS Total Energy          =    -307.2005583413604199 [Eh]
	-----------------------------------------------------------

  Dipole Moment: [D]
     X:    -0.7381      Y:     0.0508      Z:     0.1671     Total:     0.7585

*** Psi4 exiting successfully. Buy a developer a beer!
