                               Psi4 1.3.2 release

  ==> Input File <==

--------------------------------------------------------------------------
#psi4
#
memory 32 gb

molecule  {
0 1
  O       -0.1070010     1.5019560    -0.1844920
  O        2.0546780    -0.2388480     0.3560180
  C       -0.2540384     0.1037274    -0.0185191
  C       -1.2626320    -0.4138420     0.9150900
  C       -1.6307620    -0.3904120    -0.5546590
  C        0.9536540    -0.6636150    -0.4527090
  H       -1.7417500     0.3211220     1.5538480
  H       -1.0582210    -1.3705490     1.3857280
  H       -1.6856880    -1.3325510    -1.0922370
  H       -2.3335820     0.3688280    -0.8792620
  H        1.1811620    -0.5295190    -1.5194400
  H        0.8172500    -1.7319370    -0.2626510
  H        0.3174590     1.7541820     0.6550680
  H        2.3334610     0.6171320    -0.0105960
units angstrom
no_reorient  #important for SAPT in psi4, default
symmetry c1  #important for SAPT in psi4, default
}

set PROPERTIES_ORIGIN ["COM"]
properties('MP2/aug-cc-pvtz', properties = ['dipole'])
--------------------------------------------------------------------------

    Molecular point group: c1
  Charge       = 0
  Multiplicity = 1
  Basis Set: AUG-CC-PVTZ
    Blend: AUG-CC-PVTZ
  Basis Set: (AUG-CC-PVTZ AUX)
    Blend: AUG-CC-PVTZ-JKFIT

    Orbital Energies [Eh]
    ---------------------

    Doubly Occupied:

       1A    -20.574109     2A    -20.562252     3A    -11.290564
       4A    -11.282407     5A    -11.236420     6A    -11.227523
       7A     -1.385934     8A     -1.353374     9A     -1.133320
      10A     -0.953339    11A     -0.835878    12A     -0.784482
      13A     -0.699008    14A     -0.693839    15A     -0.658615
      16A     -0.641864    17A     -0.588491    18A     -0.571076
      19A     -0.530711    20A     -0.519177    21A     -0.500479
      22A     -0.475067    23A     -0.425778    24A     -0.389840

  @DF-RHF Final Energy:  -305.91520206356006

   => Energetics <=

    Nuclear Repulsion Energy =            252.1404186199625883
    One-Electron Energy =                -917.4841467537836479
    Two-Electron Energy =                 359.4285260702610003
    Total Energy =                       -305.9152020635600593
  Basis Set: (AUG-CC-PVTZ AUX)
    Blend: AUG-CC-PVTZ-RI
    Molecular point group: c1

    Geometry (in Angstrom), charge = 0, multiplicity = 1:

       Center              X                  Y                   Z               Mass
    ------------   -----------------  -----------------  -----------------  -----------------
         O           -0.136991063065     1.480202822887    -0.198609837072    15.994914619570
         O            2.024687936935    -0.260601177113     0.341900162928    15.994914619570
         C           -0.284028463065     0.081974222887    -0.032636937072    12.000000000000
         C           -1.292622063065    -0.435595177113     0.900972162928    12.000000000000
         C           -1.660752063065    -0.412165177113    -0.568776837072    12.000000000000
         C            0.923663936935    -0.685368177113    -0.466826837072    12.000000000000
         H           -1.771740063065     0.299368822887     1.539730162928     1.007825032230
         H           -1.088211063065    -1.392302177113     1.371610162928     1.007825032230
         H           -1.715678063065    -1.354304177113    -1.106354837072     1.007825032230
         H           -2.363572063065     0.347074822887    -0.893379837072     1.007825032230
         H            1.151171936935    -0.551272177113    -1.533557837072     1.007825032230
         H            0.787259936935    -1.753690177113    -0.276768837072     1.007825032230
         H            0.287468936935     1.732428822887     0.640950162928     1.007825032230
         H            2.303470936935     0.595378822887    -0.024713837072     1.007825032230

  Basis Set: AUG-CC-PVTZ
    Blend: AUG-CC-PVTZ
  Basis Set: (AUG-CC-PVTZ AUX)
    Blend: AUG-CC-PVTZ-JKFIT
	 Reference Energy          =    -305.9152020635600593 [Eh]
	 Singles Energy            =      -0.0000000000000000 [Eh]
	 Same-Spin Energy          =      -0.3052378036698349 [Eh]
	 Opposite-Spin Energy      =      -0.9854320786608817 [Eh]
	 Correlation Energy        =      -1.2906698823307166 [Eh]
	 Total Energy              =    -307.2058719458907490 [Eh]

	 ================> DF-SCS-MP2 Energies <==================
	-----------------------------------------------------------
	 SCS Same-Spin Scale       =       0.3333333333333333 [-]
	 SCS Opposite-Spin Scale   =       1.2000000000000000 [-]
	 SCS Same-Spin Energy      =      -0.1017459345566116 [Eh]
	 SCS Opposite-Spin Energy  =      -1.1825184943930580 [Eh]
	 SCS Correlation Energy    =      -1.2842644289496696 [Eh]
	 SCS Total Energy          =    -307.1994664925097140 [Eh]
	-----------------------------------------------------------

  Dipole Moment: [D]
     X:    -0.4105      Y:    -0.1213      Z:     0.0756     Total:     0.4347

*** Psi4 exiting successfully. Buy a developer a beer!
