                               Psi4 1.3.2 release

  ==> Input File <==

--------------------------------------------------------------------------
#psi4
#
memory 32 gb

molecule  {
0 1
  O       -0.1070010     1.5019560    -0.1844920
  O        2.0546780    -0.2388480     0.3560180
  C       -0.3088267     0.0019762    -0.1027746
  C       -1.2626320    -0.4138420     0.9150900
  C       -1.6307620    -0.3904120    -0.5546590
  C        0.9536540    -0.6636150    -0.4527090
  H       -1.7417500     0.3211220     1.5538480
  H       -1.0582210    -1.3705490     1.3857280
  H       -1.6856880    -1.3325510    -1.0922370
  H       -2.3335820     0.3688280    -0.8792620
  H        1.1811620    -0.5295190    -1.5194400
  H        0.8172500    -1.7319370    -0.2626510
  H        0.3174590     1.7541820     0.6550680
  H        2.3334610     0.6171320    -0.0105960
units angstrom
no_reorient  #important for SAPT in psi4, default
symmetry c1  #important for SAPT in psi4, default
}

set PROPERTIES_ORIGIN ["COM"]
properties('MP2/aug-cc-pvtz', properties = ['dipole'])
--------------------------------------------------------------------------

    Molecular point group: c1
  Charge       = 0
  Multiplicity = 1
  Basis Set: AUG-CC-PVTZ
    Blend: AUG-CC-PVTZ
  Basis Set: (AUG-CC-PVTZ AUX)
    Blend: AUG-CC-PVTZ-JKFIT

    Orbital Energies [Eh]
    ---------------------

    Doubly Occupied:

       1A    -20.566897     2A    -20.558289     3A    -11.290788
       4A    -11.284982     5A    -11.234158     6A    -11.233290
       7A     -1.369463     8A     -1.331899     9A     -1.158913
      10A     -0.965464    11A     -0.844650    12A     -0.775780
      13A     -0.700080    14A     -0.693729    15A     -0.660445
      16A     -0.630022    17A     -0.596261    18A     -0.547262
      19A     -0.531162    20A     -0.518853    21A     -0.489159
      22A     -0.472661    23A     -0.431856    24A     -0.418271

  @DF-RHF Final Energy:  -305.91116939082463

   => Energetics <=

    Nuclear Repulsion Energy =            252.0042420158021912
    One-Electron Energy =                -917.2221485091496334
    Two-Electron Energy =                 359.3067371025227885
    Total Energy =                       -305.9111693908246252
  Basis Set: (AUG-CC-PVTZ AUX)
    Blend: AUG-CC-PVTZ-RI
    Molecular point group: c1

    Geometry (in Angstrom), charge = 0, multiplicity = 1:

       Center              X                  Y                   Z               Mass
    ------------   -----------------  -----------------  -----------------  -----------------
         O           -0.129524379820     1.494069724766    -0.187127291891    15.994914619570
         O            2.032154620180    -0.246734275234     0.353382708109    15.994914619570
         C           -0.331350079820    -0.005910075234    -0.105409891891    12.000000000000
         C           -1.285155379820    -0.421728275234     0.912454708109    12.000000000000
         C           -1.653285379820    -0.398298275234    -0.557294291891    12.000000000000
         C            0.931130620180    -0.671501275234    -0.455344291891    12.000000000000
         H           -1.764273379820     0.313235724766     1.551212708109     1.007825032230
         H           -1.080744379820    -1.378435275234     1.383092708109     1.007825032230
         H           -1.708211379820    -1.340437275234    -1.094872291891     1.007825032230
         H           -2.356105379820     0.360941724766    -0.881897291891     1.007825032230
         H            1.158638620180    -0.537405275234    -1.522075291891     1.007825032230
         H            0.794726620180    -1.739823275234    -0.265286291891     1.007825032230
         H            0.294935620180     1.746295724766     0.652432708109     1.007825032230
         H            2.310937620180     0.609245724766    -0.013231291891     1.007825032230

  Basis Set: AUG-CC-PVTZ
    Blend: AUG-CC-PVTZ
  Basis Set: (AUG-CC-PVTZ AUX)
    Blend: AUG-CC-PVTZ-JKFIT
	 Reference Energy          =    -305.9111693908246252 [Eh]
	 Singles Energy            =      -0.0000000000000000 [Eh]
	 Same-Spin Energy          =      -0.3055076581177250 [Eh]
	 Opposite-Spin Energy      =      -0.9859988350229404 [Eh]
	 Correlation Energy        =      -1.2915064931406652 [Eh]
	 Total Energy              =    -307.2026758839652985 [Eh]

	 ================> DF-SCS-MP2 Energies <==================
	-----------------------------------------------------------
	 SCS Same-Spin Scale       =       0.3333333333333333 [-]
	 SCS Opposite-Spin Scale   =       1.2000000000000000 [-]
	 SCS Same-Spin Energy      =      -0.1018358860392417 [Eh]
	 SCS Opposite-Spin Energy  =      -1.1831986020275285 [Eh]
	 SCS Correlation Energy    =      -1.2850344880667701 [Eh]
	 SCS Total Energy          =    -307.1962038788913674 [Eh]
	-----------------------------------------------------------

  Dipole Moment: [D]
     X:    -0.5619      Y:    -0.4595      Z:    -0.0294     Total:     0.7264

*** Psi4 exiting successfully. Buy a developer a beer!
