                               Psi4 1.4a3.dev225

  ==> Input File <==

--------------------------------------------------------------------------
#psi4
#
memory 32 gb

molecule  {
0 1
  O       -0.1070010     1.5019560    -0.1844920
  O        2.0546780    -0.2388480     0.3560180
  C       -0.3021688     0.0514576    -0.1054703
  C       -1.2626320    -0.4138420     0.9150900
  C       -1.6307620    -0.3904120    -0.5546590
  C        0.9536540    -0.6636150    -0.4527090
  H       -1.7417500     0.3211220     1.5538480
  H       -1.0582210    -1.3705490     1.3857280
  H       -1.6856880    -1.3325510    -1.0922370
  H       -2.3335820     0.3688280    -0.8792620
  H        1.1811620    -0.5295190    -1.5194400
  H        0.8172500    -1.7319370    -0.2626510
  H        0.3174590     1.7541820     0.6550680
  H        2.3334610     0.6171320    -0.0105960
units angstrom
no_reorient  #important for SAPT in psi4, default
symmetry c1  #important for SAPT in psi4, default
}

set PROPERTIES_ORIGIN ["COM"]
properties('MP2/aug-cc-pvtz', properties = ['dipole'])
--------------------------------------------------------------------------

    Molecular point group: c1
  Charge       = 0
  Multiplicity = 1
  Basis Set: AUG-CC-PVTZ
    Blend: AUG-CC-PVTZ
  Basis Set: (AUG-CC-PVTZ AUX)
    Blend: AUG-CC-PVTZ-JKFIT

    Orbital Energies [Eh]
    ---------------------

    Doubly Occupied:

       1A    -20.565661     2A    -20.564827     3A    -11.289797
       4A    -11.283533     5A    -11.232846     6A    -11.232048
       7A     -1.372939     8A     -1.344412     9A     -1.148996
      10A     -0.958910    11A     -0.840968    12A     -0.779985
      13A     -0.700662    14A     -0.693873    15A     -0.658691
      16A     -0.634902    17A     -0.592347    18A     -0.555873
      19A     -0.531237    20A     -0.519262    21A     -0.495844
      22A     -0.473527    23A     -0.423766    24A     -0.413676

  @DF-RHF Final Energy:  -305.91929736872385

   => Energetics <=

    Nuclear Repulsion Energy =            252.0380441211288769
    One-Electron Energy =                -917.2975159209455569
    Two-Electron Energy =                 359.3401744310928052
    Total Energy =                       -305.9192973687238464
  Basis Set: (AUG-CC-PVTZ AUX)
    Blend: AUG-CC-PVTZ-RI
    Molecular point group: c1

    Geometry (in Angstrom), charge = 0, multiplicity = 1:

       Center              X                  Y                   Z               Mass
    ------------   -----------------  -----------------  -----------------  -----------------
         O           -0.130431734682     1.487326278805    -0.186759915315    15.994914619570
         O            2.031247265318    -0.253477721195     0.353750084685    15.994914619570
         C           -0.325599534682     0.036827878805    -0.107738215315    12.000000000000
         C           -1.286062734682    -0.428471721195     0.912822084685    12.000000000000
         C           -1.654192734682    -0.405041721195    -0.556926915315    12.000000000000
         C            0.930223265318    -0.678244721195    -0.454976915315    12.000000000000
         H           -1.765180734682     0.306492278805     1.551580084685     1.007825032230
         H           -1.081651734682    -1.385178721195     1.383460084685     1.007825032230
         H           -1.709118734682    -1.347180721195    -1.094504915315     1.007825032230
         H           -2.357012734682     0.354198278805    -0.881529915315     1.007825032230
         H            1.157731265318    -0.544148721195    -1.521707915315     1.007825032230
         H            0.793819265318    -1.746566721195    -0.264918915315     1.007825032230
         H            0.294028265318     1.739552278805     0.652800084685     1.007825032230
         H            2.310030265318     0.602502278805    -0.012863915315     1.007825032230

  Basis Set: AUG-CC-PVTZ
    Blend: AUG-CC-PVTZ
  Basis Set: (AUG-CC-PVTZ AUX)
    Blend: AUG-CC-PVTZ-JKFIT
	 Reference Energy          =    -305.9192973687238464 [Eh]
	 Singles Energy            =      -0.0000000000000000 [Eh]
	 Same-Spin Energy          =      -0.3050248518119635 [Eh]
	 Opposite-Spin Energy      =      -0.9848671856599955 [Eh]
	 Correlation Energy        =      -1.2898920374719589 [Eh]
	 Total Energy              =    -307.2091894061958328 [Eh]

	 ================> DF-SCS-MP2 Energies <==================
	-----------------------------------------------------------
	 SCS Same-Spin Scale       =       0.3333333333333333 [-]
	 SCS Opposite-Spin Scale   =       1.2000000000000000 [-]
	 SCS Same-Spin Energy      =      -0.1016749506039878 [Eh]
	 SCS Opposite-Spin Energy  =      -1.1818406227919946 [Eh]
	 SCS Correlation Energy    =      -1.2835155733959824 [Eh]
	 SCS Total Energy          =    -307.2028129421198059 [Eh]
	-----------------------------------------------------------

  Dipole Moment: [D]
     X:    -0.5135      Y:    -0.3045      Z:    -0.0341     Total:     0.5980

*** Psi4 exiting successfully. Buy a developer a beer!
