                               Psi4 1.3.2 release

  ==> Input File <==

--------------------------------------------------------------------------
#psi4
#
memory 32 gb

molecule  {
0 1
  O       -0.1070010     1.5019560    -0.1844920
  O        2.0546780    -0.2388480     0.3560180
  C       -0.2972349     0.1089186    -0.1331238
  C       -1.2626320    -0.4138420     0.9150900
  C       -1.6307620    -0.3904120    -0.5546590
  C        0.9536540    -0.6636150    -0.4527090
  H       -1.7417500     0.3211220     1.5538480
  H       -1.0582210    -1.3705490     1.3857280
  H       -1.6856880    -1.3325510    -1.0922370
  H       -2.3335820     0.3688280    -0.8792620
  H        1.1811620    -0.5295190    -1.5194400
  H        0.8172500    -1.7319370    -0.2626510
  H        0.3174590     1.7541820     0.6550680
  H        2.3334610     0.6171320    -0.0105960
units angstrom
no_reorient  #important for SAPT in psi4, default
symmetry c1  #important for SAPT in psi4, default
}

set PROPERTIES_ORIGIN ["COM"]
properties('MP2/aug-cc-pvtz', properties = ['dipole'])
--------------------------------------------------------------------------

    Molecular point group: c1
  Charge       = 0
  Multiplicity = 1
  Basis Set: AUG-CC-PVTZ
    Blend: AUG-CC-PVTZ
  Basis Set: (AUG-CC-PVTZ AUX)
    Blend: AUG-CC-PVTZ-JKFIT

    Orbital Energies [Eh]
    ---------------------

    Doubly Occupied:

       1A    -20.571374     2A    -20.564815     3A    -11.290052
       4A    -11.282028     5A    -11.232205     6A    -11.230212
       7A     -1.384905     8A     -1.353502     9A     -1.136451
      10A     -0.952661    11A     -0.837113    12A     -0.787537
      13A     -0.704686    14A     -0.693220    15A     -0.657293
      16A     -0.638641    17A     -0.588580    18A     -0.567020
      19A     -0.531961    20A     -0.519772    21A     -0.502628
      22A     -0.473638    23A     -0.419395    24A     -0.399113

  @DF-RHF Final Energy:  -305.92259255021963

   => Energetics <=

    Nuclear Repulsion Energy =            252.0478398832281357
    One-Electron Energy =                -917.3032581789587994
    Two-Electron Energy =                 359.3328257455110588
    Total Energy =                       -305.9225925502196333
  Basis Set: (AUG-CC-PVTZ AUX)
    Blend: AUG-CC-PVTZ-RI
    Molecular point group: c1

    Geometry (in Angstrom), charge = 0, multiplicity = 1:

       Center              X                  Y                   Z               Mass
    ------------   -----------------  -----------------  -----------------  -----------------
         O           -0.131104138616     1.479495353481    -0.182991228842    15.994914619570
         O            2.030574861384    -0.261308646519     0.357518771158    15.994914619570
         C           -0.321338038616     0.086457953481    -0.131623028842    12.000000000000
         C           -1.286735138616    -0.436302646519     0.916590771158    12.000000000000
         C           -1.654865138616    -0.412872646519    -0.553158228842    12.000000000000
         C            0.929550861384    -0.686075646519    -0.451208228842    12.000000000000
         H           -1.765853138616     0.298661353481     1.555348771158     1.007825032230
         H           -1.082324138616    -1.393009646519     1.387228771158     1.007825032230
         H           -1.709791138616    -1.355011646519    -1.090736228842     1.007825032230
         H           -2.357685138616     0.346367353481    -0.877761228842     1.007825032230
         H            1.157058861384    -0.551979646519    -1.517939228842     1.007825032230
         H            0.793146861384    -1.754397646519    -0.261150228842     1.007825032230
         H            0.293355861384     1.731721353481     0.656568771158     1.007825032230
         H            2.309357861384     0.594671353481    -0.009095228842     1.007825032230

  Basis Set: AUG-CC-PVTZ
    Blend: AUG-CC-PVTZ
  Basis Set: (AUG-CC-PVTZ AUX)
    Blend: AUG-CC-PVTZ-JKFIT
	 Reference Energy          =    -305.9225925502196333 [Eh]
	 Singles Energy            =      -0.0000000000000000 [Eh]
	 Same-Spin Energy          =      -0.3046894761045637 [Eh]
	 Opposite-Spin Energy      =      -0.9839029034598341 [Eh]
	 Correlation Energy        =      -1.2885923795643976 [Eh]
	 Total Energy              =    -307.2111849297840536 [Eh]

	 ================> DF-SCS-MP2 Energies <==================
	-----------------------------------------------------------
	 SCS Same-Spin Scale       =       0.3333333333333333 [-]
	 SCS Opposite-Spin Scale   =       1.2000000000000000 [-]
	 SCS Same-Spin Energy      =      -0.1015631587015212 [Eh]
	 SCS Opposite-Spin Energy  =      -1.1806834841518008 [Eh]
	 SCS Correlation Energy    =      -1.2822466428533219 [Eh]
	 SCS Total Energy          =    -307.2048391930729281 [Eh]
	-----------------------------------------------------------

  Dipole Moment: [D]
     X:    -0.4587      Y:    -0.1166      Z:    -0.0739     Total:     0.4790

*** Psi4 exiting successfully. Buy a developer a beer!
