                               Psi4 1.3.2 release

  ==> Input File <==

--------------------------------------------------------------------------
#psi4
#
memory 32 gb

molecule  {
0 1
  O       -0.1070010     1.5019560    -0.1844920
  O        2.0396856    -0.2224725     0.3674427
  C       -0.2955110     0.1009390    -0.1081660
  C       -1.2626320    -0.4138420     0.9150900
  C       -1.6307620    -0.3904120    -0.5546590
  C        0.9536540    -0.6636150    -0.4527090
  H       -1.7417500     0.3211220     1.5538480
  H       -1.0582210    -1.3705490     1.3857280
  H       -1.6856880    -1.3325510    -1.0922370
  H       -2.3335820     0.3688280    -0.8792620
  H        1.1811620    -0.5295190    -1.5194400
  H        0.8172500    -1.7319370    -0.2626510
  H        0.3174590     1.7541820     0.6550680
  H        2.3334610     0.6171320    -0.0105960
units angstrom
no_reorient  #important for SAPT in psi4, default
symmetry c1  #important for SAPT in psi4, default
}

set PROPERTIES_ORIGIN ["COM"]
properties('MP2/aug-cc-pvtz', properties = ['dipole'])
--------------------------------------------------------------------------

    Molecular point group: c1
  Charge       = 0
  Multiplicity = 1
  Basis Set: AUG-CC-PVTZ
    Blend: AUG-CC-PVTZ
  Basis Set: (AUG-CC-PVTZ AUX)
    Blend: AUG-CC-PVTZ-JKFIT

    Orbital Energies [Eh]
    ---------------------

    Doubly Occupied:

       1A    -20.570259     2A    -20.563791     3A    -11.288944
       4A    -11.282470     5A    -11.231265     6A    -11.230406
       7A     -1.383011     8A     -1.353033     9A     -1.138341
      10A     -0.953114    11A     -0.837320    12A     -0.785322
      13A     -0.702712    14A     -0.694009    15A     -0.658906
      16A     -0.638442    17A     -0.589410    18A     -0.565405
      19A     -0.530820    20A     -0.519038    21A     -0.501432
      22A     -0.473962    23A     -0.414594    24A     -0.406624

  @DF-RHF Final Energy:  -305.92302358668780

   => Energetics <=

    Nuclear Repulsion Energy =            252.3249779536409960
    One-Electron Energy =                -917.8707451170847662
    Two-Electron Energy =                 359.6227435767559655
    Total Energy =                       -305.9230235866878047
  Basis Set: (AUG-CC-PVTZ AUX)
    Blend: AUG-CC-PVTZ-RI
    Molecular point group: c1

    Geometry (in Angstrom), charge = 0, multiplicity = 1:

       Center              X                  Y                   Z               Mass
    ------------   -----------------  -----------------  -----------------  -----------------
         O           -0.128615673968     1.477608187786    -0.188467860251    15.994914619570
         O            2.018070926032    -0.246820312214     0.363466839749    15.994914619570
         C           -0.317125673968     0.076591187786    -0.112141860251    12.000000000000
         C           -1.284246673968    -0.438189812214     0.911114139749    12.000000000000
         C           -1.652376673968    -0.414759812214    -0.558634860251    12.000000000000
         C            0.932039326032    -0.687962812214    -0.456684860251    12.000000000000
         H           -1.763364673968     0.296774187786     1.549872139749     1.007825032230
         H           -1.079835673968    -1.394896812214     1.381752139749     1.007825032230
         H           -1.707302673968    -1.356898812214    -1.096212860251     1.007825032230
         H           -2.355196673968     0.344480187786    -0.883237860251     1.007825032230
         H            1.159547326032    -0.553866812214    -1.523415860251     1.007825032230
         H            0.795635326032    -1.756284812214    -0.266626860251     1.007825032230
         H            0.295844326032     1.729834187786     0.651092139749     1.007825032230
         H            2.311846326032     0.592784187786    -0.014571860251     1.007825032230

  Basis Set: AUG-CC-PVTZ
    Blend: AUG-CC-PVTZ
  Basis Set: (AUG-CC-PVTZ AUX)
    Blend: AUG-CC-PVTZ-JKFIT
	 Reference Energy          =    -305.9230235866878047 [Eh]
	 Singles Energy            =      -0.0000000000000000 [Eh]
	 Same-Spin Energy          =      -0.3046821684816469 [Eh]
	 Opposite-Spin Energy      =      -0.9838912614149811 [Eh]
	 Correlation Energy        =      -1.2885734298966280 [Eh]
	 Total Energy              =    -307.2115970165844487 [Eh]

	 ================> DF-SCS-MP2 Energies <==================
	-----------------------------------------------------------
	 SCS Same-Spin Scale       =       0.3333333333333333 [-]
	 SCS Opposite-Spin Scale   =       1.2000000000000000 [-]
	 SCS Same-Spin Energy      =      -0.1015607228272156 [Eh]
	 SCS Opposite-Spin Energy  =      -1.1806695136979772 [Eh]
	 SCS Correlation Energy    =      -1.2822302365251930 [Eh]
	 SCS Total Energy          =    -307.2052538232130132 [Eh]
	-----------------------------------------------------------

  Dipole Moment: [D]
     X:    -0.4125      Y:    -0.1773      Z:    -0.0707     Total:     0.4546

*** Psi4 exiting successfully. Buy a developer a beer!
