                               Psi4 1.3.2 release

  ==> Input File <==

--------------------------------------------------------------------------
#psi4
#
memory 32 gb

molecule  {
0 1
  O       -0.0106372     1.4751963    -0.2938377
  O        2.0546780    -0.2388480     0.3560180
  C       -0.2955110     0.1009390    -0.1081660
  C       -1.2626320    -0.4138420     0.9150900
  C       -1.6307620    -0.3904120    -0.5546590
  C        0.9536540    -0.6636150    -0.4527090
  H       -1.7417500     0.3211220     1.5538480
  H       -1.0582210    -1.3705490     1.3857280
  H       -1.6856880    -1.3325510    -1.0922370
  H       -2.3335820     0.3688280    -0.8792620
  H        1.1811620    -0.5295190    -1.5194400
  H        0.8172500    -1.7319370    -0.2626510
  H        0.3174590     1.7541820     0.6550680
  H        2.3334610     0.6171320    -0.0105960
units angstrom
no_reorient  #important for SAPT in psi4, default
symmetry c1  #important for SAPT in psi4, default
}

set PROPERTIES_ORIGIN ["COM"]
properties('MP2/aug-cc-pvtz', properties = ['dipole'])
--------------------------------------------------------------------------

    Molecular point group: c1
  Charge       = 0
  Multiplicity = 1
  Basis Set: AUG-CC-PVTZ
    Blend: AUG-CC-PVTZ
  Basis Set: (AUG-CC-PVTZ AUX)
    Blend: AUG-CC-PVTZ-JKFIT

    Orbital Energies [Eh]
    ---------------------

    Doubly Occupied:

       1A    -20.578683     2A    -20.560769     3A    -11.288984
       4A    -11.277661     5A    -11.236447     6A    -11.231059
       7A     -1.376909     8A     -1.345220     9A     -1.138830
      10A     -0.949735    11A     -0.839124    12A     -0.777106
      13A     -0.696682    14A     -0.687836    15A     -0.658022
      16A     -0.638297    17A     -0.587911    18A     -0.565959
      19A     -0.530275    20A     -0.516603    21A     -0.498167
      22A     -0.470671    23A     -0.412306    24A     -0.411450

  @DF-RHF Final Energy:  -305.91132497886883

   => Energetics <=

    Nuclear Repulsion Energy =            252.0376800048506993
    One-Electron Energy =                -917.3485937214361456
    Two-Electron Energy =                 359.3995887377166127
    Total Energy =                       -305.9113249788688336
  Basis Set: (AUG-CC-PVTZ AUX)
    Blend: AUG-CC-PVTZ-RI
    Molecular point group: c1

    Geometry (in Angstrom), charge = 0, multiplicity = 1:

       Center              X                  Y                   Z               Mass
    ------------   -----------------  -----------------  -----------------  -----------------
         O           -0.052479968997     1.458684090336    -0.275875355393    15.994914619570
         O            2.012835231003    -0.255360209664     0.373980344607    15.994914619570
         C           -0.337353768997     0.084426790336    -0.090203655393    12.000000000000
         C           -1.304474768997    -0.430354209664     0.933052344607    12.000000000000
         C           -1.672604768997    -0.406924209664    -0.536696655393    12.000000000000
         C            0.911811231003    -0.680127209664    -0.434746655393    12.000000000000
         H           -1.783592768997     0.304609790336     1.571810344607     1.007825032230
         H           -1.100063768997    -1.387061209664     1.403690344607     1.007825032230
         H           -1.727530768997    -1.349063209664    -1.074274655393     1.007825032230
         H           -2.375424768997     0.352315790336    -0.861299655393     1.007825032230
         H            1.139319231003    -0.546031209664    -1.501477655393     1.007825032230
         H            0.775407231003    -1.748449209664    -0.244688655393     1.007825032230
         H            0.275616231003     1.737669790336     0.673030344607     1.007825032230
         H            2.291618231003     0.600619790336     0.007366344607     1.007825032230

  Basis Set: AUG-CC-PVTZ
    Blend: AUG-CC-PVTZ
  Basis Set: (AUG-CC-PVTZ AUX)
    Blend: AUG-CC-PVTZ-JKFIT
	 Reference Energy          =    -305.9113249788688336 [Eh]
	 Singles Energy            =      -0.0000000000000000 [Eh]
	 Same-Spin Energy          =      -0.3058423259423629 [Eh]
	 Opposite-Spin Energy      =      -0.9868245506267508 [Eh]
	 Correlation Energy        =      -1.2926668765691138 [Eh]
	 Total Energy              =    -307.2039918554379483 [Eh]

	 ================> DF-SCS-MP2 Energies <==================
	-----------------------------------------------------------
	 SCS Same-Spin Scale       =       0.3333333333333333 [-]
	 SCS Opposite-Spin Scale   =       1.2000000000000000 [-]
	 SCS Same-Spin Energy      =      -0.1019474419807876 [Eh]
	 SCS Opposite-Spin Energy  =      -1.1841894607521009 [Eh]
	 SCS Correlation Energy    =      -1.2861369027328884 [Eh]
	 SCS Total Energy          =    -307.1974618816017255 [Eh]
	-----------------------------------------------------------

  Dipole Moment: [D]
     X:    -0.7571      Y:    -0.0375      Z:     0.1503     Total:     0.7727

*** Psi4 exiting successfully. Buy a developer a beer!
