                               Psi4 1.3.2 release

  ==> Input File <==

--------------------------------------------------------------------------
#psi4
#
memory 32 gb

molecule  {
0 1
  O       -0.0600659     1.4940459    -0.1977716
  O        2.0546780    -0.2388480     0.3560180
  C       -0.2955110     0.1009390    -0.1081660
  C       -1.2626320    -0.4138420     0.9150900
  C       -1.6307620    -0.3904120    -0.5546590
  C        0.9536540    -0.6636150    -0.4527090
  H       -1.7417500     0.3211220     1.5538480
  H       -1.0582210    -1.3705490     1.3857280
  H       -1.6856880    -1.3325510    -1.0922370
  H       -2.3335820     0.3688280    -0.8792620
  H        1.1811620    -0.5295190    -1.5194400
  H        0.8172500    -1.7319370    -0.2626510
  H        0.3174590     1.7541820     0.6550680
  H        2.3334610     0.6171320    -0.0105960
units angstrom
no_reorient  #important for SAPT in psi4, default
symmetry c1  #important for SAPT in psi4, default
}

set PROPERTIES_ORIGIN ["COM"]
properties('MP2/aug-cc-pvtz', properties = ['dipole'])
--------------------------------------------------------------------------

    Molecular point group: c1
  Charge       = 0
  Multiplicity = 1
  Basis Set: AUG-CC-PVTZ
    Blend: AUG-CC-PVTZ
  Basis Set: (AUG-CC-PVTZ AUX)
    Blend: AUG-CC-PVTZ-JKFIT

    Orbital Energies [Eh]
    ---------------------

    Doubly Occupied:

       1A    -20.570308     2A    -20.562802     3A    -11.289837
       4A    -11.280471     5A    -11.232927     6A    -11.231865
       7A     -1.383676     8A     -1.351141     9A     -1.139999
      10A     -0.951846    11A     -0.838383    12A     -0.786642
      13A     -0.701127    14A     -0.694298    15A     -0.659102
      16A     -0.639268    17A     -0.588497    18A     -0.565991
      19A     -0.530220    20A     -0.519218    21A     -0.501072
      22A     -0.472479    23A     -0.415057    24A     -0.408568

  @DF-RHF Final Energy:  -305.92280072620594

   => Energetics <=

    Nuclear Repulsion Energy =            252.2268853205188464
    One-Electron Energy =                -917.6697857320496041
    Two-Electron Energy =                 359.5200996853248512
    Total Energy =                       -305.9228007262059350
  Basis Set: (AUG-CC-PVTZ AUX)
    Blend: AUG-CC-PVTZ-RI
    Molecular point group: c1

    Geometry (in Angstrom), charge = 0, multiplicity = 1:

       Center              X                  Y                   Z               Mass
    ------------   -----------------  -----------------  -----------------  -----------------
         O           -0.092929838534     1.474109619650    -0.197259870624    15.994914619570
         O            2.021814061466    -0.258784280350     0.356529729376    15.994914619570
         C           -0.328374938534     0.081002719650    -0.107654270624    12.000000000000
         C           -1.295495938534    -0.433778280350     0.915601729376    12.000000000000
         C           -1.663625938534    -0.410348280350    -0.554147270624    12.000000000000
         C            0.920790061466    -0.683551280350    -0.452197270624    12.000000000000
         H           -1.774613938534     0.301185719650     1.554359729376     1.007825032230
         H           -1.091084938534    -1.390485280350     1.386239729376     1.007825032230
         H           -1.718551938534    -1.352487280350    -1.091725270624     1.007825032230
         H           -2.366445938534     0.348891719650    -0.878750270624     1.007825032230
         H            1.148298061466    -0.549455280350    -1.518928270624     1.007825032230
         H            0.784386061466    -1.751873280350    -0.262139270624     1.007825032230
         H            0.284595061466     1.734245719650     0.655579729376     1.007825032230
         H            2.300597061466     0.597195719650    -0.010084270624     1.007825032230

  Basis Set: AUG-CC-PVTZ
    Blend: AUG-CC-PVTZ
  Basis Set: (AUG-CC-PVTZ AUX)
    Blend: AUG-CC-PVTZ-JKFIT
	 Reference Energy          =    -305.9228007262059350 [Eh]
	 Singles Energy            =      -0.0000000000000000 [Eh]
	 Same-Spin Energy          =      -0.3046473203974555 [Eh]
	 Opposite-Spin Energy      =      -0.9838429386202497 [Eh]
	 Correlation Energy        =      -1.2884902590177052 [Eh]
	 Total Energy              =    -307.2112909852236271 [Eh]

	 ================> DF-SCS-MP2 Energies <==================
	-----------------------------------------------------------
	 SCS Same-Spin Scale       =       0.3333333333333333 [-]
	 SCS Opposite-Spin Scale   =       1.2000000000000000 [-]
	 SCS Same-Spin Energy      =      -0.1015491067991518 [Eh]
	 SCS Opposite-Spin Energy  =      -1.1806115263442996 [Eh]
	 SCS Correlation Energy    =      -1.2821606331434514 [Eh]
	 SCS Total Energy          =    -307.2049613593493973 [Eh]
	-----------------------------------------------------------

  Dipole Moment: [D]
     X:    -0.5934      Y:    -0.1144      Z:     0.0031     Total:     0.6043

*** Psi4 exiting successfully. Buy a developer a beer!
