                               Psi4 1.3.2 release

  ==> Input File <==

--------------------------------------------------------------------------
#psi4
#
memory 32 gb

molecule  {
0 1
  O       -0.1070010     1.5019560    -0.1844920
  O        2.0546780    -0.2388480     0.3560180
  C       -0.2955110     0.1009390    -0.1081660
  C       -1.1996074    -0.4964012     0.9277731
  C       -1.6307620    -0.3904120    -0.5546590
  C        0.9536540    -0.6636150    -0.4527090
  H       -1.7417500     0.3211220     1.5538480
  H       -1.0582210    -1.3705490     1.3857280
  H       -1.6856880    -1.3325510    -1.0922370
  H       -2.3335820     0.3688280    -0.8792620
  H        1.1811620    -0.5295190    -1.5194400
  H        0.8172500    -1.7319370    -0.2626510
  H        0.3174590     1.7541820     0.6550680
  H        2.3334610     0.6171320    -0.0105960
units angstrom
no_reorient  #important for SAPT in psi4, default
symmetry c1  #important for SAPT in psi4, default
}

set PROPERTIES_ORIGIN ["COM"]
properties('MP2/aug-cc-pvtz', properties = ['dipole'])
--------------------------------------------------------------------------

    Molecular point group: c1
  Charge       = 0
  Multiplicity = 1
  Basis Set: AUG-CC-PVTZ
    Blend: AUG-CC-PVTZ
  Basis Set: (AUG-CC-PVTZ AUX)
    Blend: AUG-CC-PVTZ-JKFIT

    Orbital Energies [Eh]
    ---------------------

    Doubly Occupied:

       1A    -20.574254     2A    -20.564808     3A    -11.292529
       4A    -11.280966     5A    -11.233307     6A    -11.232733
       7A     -1.384213     8A     -1.353296     9A     -1.136036
      10A     -0.950149    11A     -0.845372    12A     -0.787458
      13A     -0.703588    14A     -0.694082    15A     -0.664068
      16A     -0.639857    17A     -0.585652    18A     -0.565147
      19A     -0.532201    20A     -0.520354    21A     -0.502044
      22A     -0.469059    23A     -0.417986    24A     -0.402754

  @DF-RHF Final Energy:  -305.90915099698179

   => Energetics <=

    Nuclear Repulsion Energy =            251.9937885193936040
    One-Electron Energy =                -917.1420547067929192
    Two-Electron Energy =                 359.2391151904174649
    Total Energy =                       -305.9091509969817935
  Basis Set: (AUG-CC-PVTZ AUX)
    Blend: AUG-CC-PVTZ-RI
    Molecular point group: c1

    Geometry (in Angstrom), charge = 0, multiplicity = 1:

       Center              X                  Y                   Z               Mass
    ------------   -----------------  -----------------  -----------------  -----------------
         O           -0.139928222227     1.491834202122    -0.188121022564    15.994914619570
         O            2.021750777773    -0.248969797878     0.352388977436    15.994914619570
         C           -0.328438222227     0.090817202122    -0.111795022564    12.000000000000
         C           -1.232534622227    -0.506522997878     0.924144077436    12.000000000000
         C           -1.663689222227    -0.400533797878    -0.558288022564    12.000000000000
         C            0.920726777773    -0.673736797878    -0.456338022564    12.000000000000
         H           -1.774677222227     0.311000202122     1.550218977436     1.007825032230
         H           -1.091148222227    -1.380670797878     1.382098977436     1.007825032230
         H           -1.718615222227    -1.342672797878    -1.095866022564     1.007825032230
         H           -2.366509222227     0.358706202122    -0.882891022564     1.007825032230
         H            1.148234777773    -0.539640797878    -1.523069022564     1.007825032230
         H            0.784322777773    -1.742058797878    -0.266280022564     1.007825032230
         H            0.284531777773     1.744060202122     0.651438977436     1.007825032230
         H            2.300533777773     0.607010202122    -0.014225022564     1.007825032230

  Basis Set: AUG-CC-PVTZ
    Blend: AUG-CC-PVTZ
  Basis Set: (AUG-CC-PVTZ AUX)
    Blend: AUG-CC-PVTZ-JKFIT
	 Reference Energy          =    -305.9091509969817935 [Eh]
	 Singles Energy            =      -0.0000000000000000 [Eh]
	 Same-Spin Energy          =      -0.3049951290228662 [Eh]
	 Opposite-Spin Energy      =      -0.9850851684659474 [Eh]
	 Correlation Energy        =      -1.2900802974888137 [Eh]
	 Total Energy              =    -307.1992312944706214 [Eh]

	 ================> DF-SCS-MP2 Energies <==================
	-----------------------------------------------------------
	 SCS Same-Spin Scale       =       0.3333333333333333 [-]
	 SCS Opposite-Spin Scale   =       1.2000000000000000 [-]
	 SCS Same-Spin Energy      =      -0.1016650430076221 [Eh]
	 SCS Opposite-Spin Energy  =      -1.1821022021591368 [Eh]
	 SCS Correlation Energy    =      -1.2837672451667588 [Eh]
	 SCS Total Energy          =    -307.1929182421485507 [Eh]
	-----------------------------------------------------------

  Dipole Moment: [D]
     X:    -0.4416      Y:    -0.1462      Z:    -0.0598     Total:     0.4690

*** Psi4 exiting successfully. Buy a developer a beer!
