                               Psi4 1.3.2 release

  ==> Input File <==

--------------------------------------------------------------------------
#psi4
#
memory 32 gb

molecule  {
0 1
  O       -0.2015028     1.5126479    -0.1576701
  O        2.0546780    -0.2388480     0.3560180
  C       -0.2955110     0.1009390    -0.1081660
  C       -1.2626320    -0.4138420     0.9150900
  C       -1.6307620    -0.3904120    -0.5546590
  C        0.9536540    -0.6636150    -0.4527090
  H       -1.7417500     0.3211220     1.5538480
  H       -1.0582210    -1.3705490     1.3857280
  H       -1.6856880    -1.3325510    -1.0922370
  H       -2.3335820     0.3688280    -0.8792620
  H        1.1811620    -0.5295190    -1.5194400
  H        0.8172500    -1.7319370    -0.2626510
  H        0.3174590     1.7541820     0.6550680
  H        2.3334610     0.6171320    -0.0105960
units angstrom
no_reorient  #important for SAPT in psi4, default
symmetry c1  #important for SAPT in psi4, default
}

set PROPERTIES_ORIGIN ["COM"]
properties('MP2/aug-cc-pvtz', properties = ['dipole'])
--------------------------------------------------------------------------

    Molecular point group: c1
  Charge       = 0
  Multiplicity = 1
  Basis Set: AUG-CC-PVTZ
    Blend: AUG-CC-PVTZ
  Basis Set: (AUG-CC-PVTZ AUX)
    Blend: AUG-CC-PVTZ-JKFIT

    Orbital Energies [Eh]
    ---------------------

    Doubly Occupied:

       1A    -20.573040     2A    -20.567472     3A    -11.288848
       4A    -11.285655     5A    -11.229429     6A    -11.228593
       7A     -1.380796     8A     -1.354831     9A     -1.135822
      10A     -0.954219    11A     -0.836181    12A     -0.783021
      13A     -0.705940    14A     -0.691895    15A     -0.654994
      16A     -0.636416    17A     -0.590043    18A     -0.566777
      19A     -0.534082    20A     -0.519609    21A     -0.501263
      22A     -0.475545    23A     -0.415820    24A     -0.402685

  @DF-RHF Final Energy:  -305.92001460351077

   => Energetics <=

    Nuclear Repulsion Energy =            251.8417554224116941
    One-Electron Energy =                -916.8975879767755259
    Two-Electron Energy =                 359.1358179508530952
    Total Energy =                       -305.9200146035107650
  Basis Set: (AUG-CC-PVTZ AUX)
    Blend: AUG-CC-PVTZ-RI
    Molecular point group: c1

    Geometry (in Angstrom), charge = 0, multiplicity = 1:

       Center              X                  Y                   Z               Mass
    ------------   -----------------  -----------------  -----------------  -----------------
         O           -0.208674419169     1.489332526042    -0.164442894996    15.994914619570
         O            2.047506380831    -0.262163373958     0.349245205004    15.994914619570
         C           -0.302682619169     0.077623626042    -0.114938794996    12.000000000000
         C           -1.269803619169    -0.437157373958     0.908317205004    12.000000000000
         C           -1.637933619169    -0.413727373958    -0.561431794996    12.000000000000
         C            0.946482380831    -0.686930373958    -0.459481794996    12.000000000000
         H           -1.748921619169     0.297806626042     1.547075205004     1.007825032230
         H           -1.065392619169    -1.393864373958     1.378955205004     1.007825032230
         H           -1.692859619169    -1.355866373958    -1.099009794996     1.007825032230
         H           -2.340753619169     0.345512626042    -0.886034794996     1.007825032230
         H            1.173990380831    -0.552834373958    -1.526212794996     1.007825032230
         H            0.810078380831    -1.755252373958    -0.269423794996     1.007825032230
         H            0.310287380831     1.730866626042     0.648295205004     1.007825032230
         H            2.326289380831     0.593816626042    -0.017368794996     1.007825032230

  Basis Set: AUG-CC-PVTZ
    Blend: AUG-CC-PVTZ
  Basis Set: (AUG-CC-PVTZ AUX)
    Blend: AUG-CC-PVTZ-JKFIT
	 Reference Energy          =    -305.9200146035107650 [Eh]
	 Singles Energy            =      -0.0000000000000000 [Eh]
	 Same-Spin Energy          =      -0.3051072395867629 [Eh]
	 Opposite-Spin Energy      =      -0.9849739779980768 [Eh]
	 Correlation Energy        =      -1.2900812175848397 [Eh]
	 Total Energy              =    -307.2100958210955923 [Eh]

	 ================> DF-SCS-MP2 Energies <==================
	-----------------------------------------------------------
	 SCS Same-Spin Scale       =       0.3333333333333333 [-]
	 SCS Opposite-Spin Scale   =       1.2000000000000000 [-]
	 SCS Same-Spin Energy      =      -0.1017024131955876 [Eh]
	 SCS Opposite-Spin Energy  =      -1.1819687735976923 [Eh]
	 SCS Correlation Energy    =      -1.2836711867932800 [Eh]
	 SCS Total Energy          =    -307.2036857903040641 [Eh]
	-----------------------------------------------------------

  Dipole Moment: [D]
     X:    -0.2073      Y:    -0.1812      Z:    -0.1301     Total:     0.3046

*** Psi4 exiting successfully. Buy a developer a beer!
