                               Psi4 1.3.2 release

  ==> Input File <==

--------------------------------------------------------------------------
#psi4
#
memory 32 gb

molecule  {
0 1
  O       -0.0907681     1.4985562    -0.2028069
  O        2.0546780    -0.2388480     0.3560180
  C       -0.2955110     0.1009390    -0.1081660
  C       -1.2626320    -0.4138420     0.9150900
  C       -1.6307620    -0.3904120    -0.5546590
  C        0.9536540    -0.6636150    -0.4527090
  H       -1.7417500     0.3211220     1.5538480
  H       -1.0582210    -1.3705490     1.3857280
  H       -1.6856880    -1.3325510    -1.0922370
  H       -2.3335820     0.3688280    -0.8792620
  H        1.1811620    -0.5295190    -1.5194400
  H        0.8172500    -1.7319370    -0.2626510
  H        0.3174590     1.7541820     0.6550680
  H        2.3334610     0.6171320    -0.0105960
units angstrom
no_reorient  #important for SAPT in psi4, default
symmetry c1  #important for SAPT in psi4, default
}

set PROPERTIES_ORIGIN ["COM"]
properties('MP2/aug-cc-pvtz', properties = ['dipole'])
--------------------------------------------------------------------------

    Molecular point group: c1
  Charge       = 0
  Multiplicity = 1
  Basis Set: AUG-CC-PVTZ
    Blend: AUG-CC-PVTZ
  Basis Set: (AUG-CC-PVTZ AUX)
    Blend: AUG-CC-PVTZ-JKFIT

    Orbital Energies [Eh]
    ---------------------

    Doubly Occupied:

       1A    -20.572135     2A    -20.563824     3A    -11.289466
       4A    -11.281427     5A    -11.232406     6A    -11.231063
       7A     -1.381770     8A     -1.351485     9A     -1.138809
      10A     -0.952162    11A     -0.837959    12A     -0.784344
      13A     -0.701286    14A     -0.693137    15A     -0.658053
      16A     -0.638909    17A     -0.588822    18A     -0.566047
      19A     -0.530906    20A     -0.519314    21A     -0.500843
      22A     -0.473077    23A     -0.414975    24A     -0.407720

  @DF-RHF Final Energy:  -305.92188549892296

   => Energetics <=

    Nuclear Repulsion Energy =            252.0691116584916927
    One-Electron Energy =                -917.3621163556963438
    Two-Electron Energy =                 359.3711191982816899
    Total Energy =                       -305.9218854989229612
  Basis Set: (AUG-CC-PVTZ AUX)
    Blend: AUG-CC-PVTZ-RI
    Molecular point group: c1

    Geometry (in Angstrom), charge = 0, multiplicity = 1:

       Center              X                  Y                   Z               Mass
    ------------   -----------------  -----------------  -----------------  -----------------
         O           -0.118054917376     1.477800613882    -0.201380497468    15.994914619570
         O            2.027391182624    -0.259603586118     0.357444402532    15.994914619570
         C           -0.322797817376     0.080183413882    -0.106739597468    12.000000000000
         C           -1.289918817376    -0.434597586118     0.916516402532    12.000000000000
         C           -1.658048817376    -0.411167586118    -0.553232597468    12.000000000000
         C            0.926367182624    -0.684370586118    -0.451282597468    12.000000000000
         H           -1.769036817376     0.300366413882     1.555274402532     1.007825032230
         H           -1.085507817376    -1.391304586118     1.387154402532     1.007825032230
         H           -1.712974817376    -1.353306586118    -1.090810597468     1.007825032230
         H           -2.360868817376     0.348072413882    -0.877835597468     1.007825032230
         H            1.153875182624    -0.550274586118    -1.518013597468     1.007825032230
         H            0.789963182624    -1.752692586118    -0.261224597468     1.007825032230
         H            0.290172182624     1.733426413882     0.656494402532     1.007825032230
         H            2.306174182624     0.596376413882    -0.009169597468     1.007825032230

  Basis Set: AUG-CC-PVTZ
    Blend: AUG-CC-PVTZ
  Basis Set: (AUG-CC-PVTZ AUX)
    Blend: AUG-CC-PVTZ-JKFIT
	 Reference Energy          =    -305.9218854989229612 [Eh]
	 Singles Energy            =      -0.0000000000000000 [Eh]
	 Same-Spin Energy          =      -0.3048770168932775 [Eh]
	 Opposite-Spin Energy      =      -0.9844278872404801 [Eh]
	 Correlation Energy        =      -1.2893049041337576 [Eh]
	 Total Energy              =    -307.2111904030567189 [Eh]

	 ================> DF-SCS-MP2 Energies <==================
	-----------------------------------------------------------
	 SCS Same-Spin Scale       =       0.3333333333333333 [-]
	 SCS Opposite-Spin Scale   =       1.2000000000000000 [-]
	 SCS Same-Spin Energy      =      -0.1016256722977592 [Eh]
	 SCS Opposite-Spin Energy  =      -1.1813134646885761 [Eh]
	 SCS Correlation Energy    =      -1.2829391369863352 [Eh]
	 SCS Total Energy          =    -307.2048246359092900 [Eh]
	-----------------------------------------------------------

  Dipole Moment: [D]
     X:    -0.5145      Y:    -0.1287      Z:    -0.0054     Total:     0.5304

*** Psi4 exiting successfully. Buy a developer a beer!
