                               Psi4 1.3.2 release

  ==> Input File <==

--------------------------------------------------------------------------
#psi4
#
memory 32 gb

molecule  {
0 1
  O       -0.1070010     1.5019560    -0.1844920
  O        2.0546780    -0.2388480     0.3560180
  C       -0.3221423    -0.0969865    -0.0973832
  C       -1.2626320    -0.4138420     0.9150900
  C       -1.6307620    -0.3904120    -0.5546590
  C        0.9536540    -0.6636150    -0.4527090
  H       -1.7417500     0.3211220     1.5538480
  H       -1.0582210    -1.3705490     1.3857280
  H       -1.6856880    -1.3325510    -1.0922370
  H       -2.3335820     0.3688280    -0.8792620
  H        1.1811620    -0.5295190    -1.5194400
  H        0.8172500    -1.7319370    -0.2626510
  H        0.3174590     1.7541820     0.6550680
  H        2.3334610     0.6171320    -0.0105960
units angstrom
no_reorient  #important for SAPT in psi4, default
symmetry c1  #important for SAPT in psi4, default
}

set PROPERTIES_ORIGIN ["COM"]
properties('MP2/aug-cc-pvtz', properties = ['dipole'])
--------------------------------------------------------------------------

    Molecular point group: c1
  Charge       = 0
  Multiplicity = 1
  Basis Set: AUG-CC-PVTZ
    Blend: AUG-CC-PVTZ
  Basis Set: (AUG-CC-PVTZ AUX)
    Blend: AUG-CC-PVTZ-JKFIT

    Orbital Energies [Eh]
    ---------------------

    Doubly Occupied:

       1A    -20.569388     2A    -20.543163     3A    -11.295096
       4A    -11.288478     5A    -11.237482     6A    -11.236468
       7A     -1.368592     8A     -1.305933     9A     -1.177302
      10A     -0.979238    11A     -0.853079    12A     -0.771219
      13A     -0.702493    14A     -0.693100    15A     -0.666255
      16A     -0.617706    17A     -0.603513    18A     -0.545833
      19A     -0.524968    20A     -0.516537    21A     -0.476031
      22A     -0.466251    23A     -0.443327    24A     -0.421917

  @DF-RHF Final Energy:  -305.88362274968762

   => Energetics <=

    Nuclear Repulsion Energy =            251.9439062471802515
    One-Electron Energy =                -917.0483165039414644
    Two-Electron Energy =                 359.2207875070735668
    Total Energy =                       -305.8836227496876177
  Basis Set: (AUG-CC-PVTZ AUX)
    Blend: AUG-CC-PVTZ-RI
    Molecular point group: c1

    Geometry (in Angstrom), charge = 0, multiplicity = 1:

       Center              X                  Y                   Z               Mass
    ------------   -----------------  -----------------  -----------------  -----------------
         O           -0.127709697353     1.507556603058    -0.187862045042    15.994914619570
         O            2.033969302647    -0.233247396942     0.352647954958    15.994914619570
         C           -0.342850997353    -0.091385896942    -0.100753245042    12.000000000000
         C           -1.283340697353    -0.408241396942     0.911719954958    12.000000000000
         C           -1.651470697353    -0.384811396942    -0.558029045042    12.000000000000
         C            0.932945302647    -0.658014396942    -0.456079045042    12.000000000000
         H           -1.762458697353     0.326722603058     1.550477954958     1.007825032230
         H           -1.078929697353    -1.364948396942     1.382357954958     1.007825032230
         H           -1.706396697353    -1.326950396942    -1.095607045042     1.007825032230
         H           -2.354290697353     0.374428603058    -0.882632045042     1.007825032230
         H            1.160453302647    -0.523918396942    -1.522810045042     1.007825032230
         H            0.796541302647    -1.726336396942    -0.266021045042     1.007825032230
         H            0.296750302647     1.759782603058     0.651697954958     1.007825032230
         H            2.312752302647     0.622732603058    -0.013966045042     1.007825032230

  Basis Set: AUG-CC-PVTZ
    Blend: AUG-CC-PVTZ
  Basis Set: (AUG-CC-PVTZ AUX)
    Blend: AUG-CC-PVTZ-JKFIT
	 Reference Energy          =    -305.8836227496876177 [Eh]
	 Singles Energy            =      -0.0000000000000000 [Eh]
	 Same-Spin Energy          =      -0.3069433967300735 [Eh]
	 Opposite-Spin Energy      =      -0.9890224382606158 [Eh]
	 Correlation Energy        =      -1.2959658349906893 [Eh]
	 Total Energy              =    -307.1795885846782994 [Eh]

	 ================> DF-SCS-MP2 Energies <==================
	-----------------------------------------------------------
	 SCS Same-Spin Scale       =       0.3333333333333333 [-]
	 SCS Opposite-Spin Scale   =       1.2000000000000000 [-]
	 SCS Same-Spin Energy      =      -0.1023144655766912 [Eh]
	 SCS Opposite-Spin Energy  =      -1.1868269259127389 [Eh]
	 SCS Correlation Energy    =      -1.2891413914894301 [Eh]
	 SCS Total Energy          =    -307.1727641411770264 [Eh]
	-----------------------------------------------------------

  Dipole Moment: [D]
     X:    -0.6584      Y:    -0.7660      Z:    -0.0196     Total:     1.0103

*** Psi4 exiting successfully. Buy a developer a beer!
