                               Psi4 1.4a3.dev225

  ==> Input File <==

--------------------------------------------------------------------------
#psi4
#
memory 32 gb

molecule  {
0 1
  O       -0.1070010     1.5019560    -0.1844920
  O        2.0546780    -0.2388480     0.3560180
  C       -0.2888532     0.1504204    -0.1108617
  C       -1.2626320    -0.4138420     0.9150900
  C       -1.6307620    -0.3904120    -0.5546590
  C        0.9536540    -0.6636150    -0.4527090
  H       -1.7417500     0.3211220     1.5538480
  H       -1.0582210    -1.3705490     1.3857280
  H       -1.6856880    -1.3325510    -1.0922370
  H       -2.3335820     0.3688280    -0.8792620
  H        1.1811620    -0.5295190    -1.5194400
  H        0.8172500    -1.7319370    -0.2626510
  H        0.3174590     1.7541820     0.6550680
  H        2.3334610     0.6171320    -0.0105960
units angstrom
no_reorient  #important for SAPT in psi4, default
symmetry c1  #important for SAPT in psi4, default
}

set PROPERTIES_ORIGIN ["COM"]
properties('MP2/aug-cc-pvtz', properties = ['dipole'])
--------------------------------------------------------------------------

    Molecular point group: c1
  Charge       = 0
  Multiplicity = 1
  Basis Set: AUG-CC-PVTZ
    Blend: AUG-CC-PVTZ
  Basis Set: (AUG-CC-PVTZ AUX)
    Blend: AUG-CC-PVTZ-JKFIT

    Orbital Energies [Eh]
    ---------------------

    Doubly Occupied:

       1A    -20.576754     2A    -20.563227     3A    -11.290047
       4A    -11.280903     5A    -11.230533     6A    -11.229870
       7A     -1.400328     8A     -1.355736     9A     -1.128374
      10A     -0.946592    11A     -0.834972    12A     -0.793419
      13A     -0.706333    14A     -0.692804    15A     -0.658180
      16A     -0.641821    17A     -0.588812    18A     -0.573852
      19A     -0.532971    20A     -0.519863    21A     -0.504623
      22A     -0.473079    23A     -0.407617    24A     -0.397059

  @DF-RHF Final Energy:  -305.92094153286996

   => Energetics <=

    Nuclear Repulsion Energy =            252.1525724569513329
    One-Electron Energy =                -917.4914902322874468
    Two-Electron Energy =                 359.4179762424661249
    Total Energy =                       -305.9209415328699606
  Basis Set: (AUG-CC-PVTZ AUX)
    Blend: AUG-CC-PVTZ-RI
    Molecular point group: c1

    Geometry (in Angstrom), charge = 0, multiplicity = 1:

       Center              X                  Y                   Z               Mass
    ------------   -----------------  -----------------  -----------------  -----------------
         O           -0.132246417149     1.473839386884    -0.186025162165    15.994914619570
         O            2.029432582851    -0.266964613116     0.354484837835    15.994914619570
         C           -0.314098617149     0.122303786884    -0.112394862165    12.000000000000
         C           -1.287877417149    -0.441958613116     0.913556837835    12.000000000000
         C           -1.656007417149    -0.418528613116    -0.556192162165    12.000000000000
         C            0.928408582851    -0.691731613116    -0.454242162165    12.000000000000
         H           -1.766995417149     0.293005386884     1.552314837835     1.007825032230
         H           -1.083466417149    -1.398665613116     1.384194837835     1.007825032230
         H           -1.710933417149    -1.360667613116    -1.093770162165     1.007825032230
         H           -2.358827417149     0.340711386884    -0.880795162165     1.007825032230
         H            1.155916582851    -0.557635613116    -1.520973162165     1.007825032230
         H            0.792004582851    -1.760053613116    -0.264184162165     1.007825032230
         H            0.292213582851     1.726065386884     0.653534837835     1.007825032230
         H            2.308215582851     0.589015386884    -0.012129162165     1.007825032230

  Basis Set: AUG-CC-PVTZ
    Blend: AUG-CC-PVTZ
  Basis Set: (AUG-CC-PVTZ AUX)
    Blend: AUG-CC-PVTZ-JKFIT
	 Reference Energy          =    -305.9209415328699606 [Eh]
	 Singles Energy            =      -0.0000000000000000 [Eh]
	 Same-Spin Energy          =      -0.3046364282683888 [Eh]
	 Opposite-Spin Energy      =      -0.9836209555725326 [Eh]
	 Correlation Energy        =      -1.2882573838409215 [Eh]
	 Total Energy              =    -307.2091989167108750 [Eh]

	 ================> DF-SCS-MP2 Energies <==================
	-----------------------------------------------------------
	 SCS Same-Spin Scale       =       0.3333333333333333 [-]
	 SCS Opposite-Spin Scale   =       1.2000000000000000 [-]
	 SCS Same-Spin Energy      =      -0.1015454760894629 [Eh]
	 SCS Opposite-Spin Energy  =      -1.1803451466870392 [Eh]
	 SCS Correlation Energy    =      -1.2818906227765021 [Eh]
	 SCS Total Energy          =    -307.2028321556464903 [Eh]
	-----------------------------------------------------------

  Dipole Moment: [D]
     X:    -0.4112      Y:     0.0275      Z:    -0.0450     Total:     0.4146

*** Psi4 exiting successfully. Buy a developer a beer!
