                               Psi4 1.3.2 release

  ==> Input File <==

--------------------------------------------------------------------------
#psi4
#
memory 32 gb

molecule  {
0 1
  O       -0.1070010     1.5019560    -0.1844920
  O        2.0546780    -0.2388480     0.3560180
  C       -0.2955110     0.1009390    -0.1081660
  C       -1.2626320    -0.4138420     0.9150900
  C       -1.6307620    -0.3904120    -0.5546590
  C        1.1197058    -0.7652474    -0.4985092
  H       -1.7417500     0.3211220     1.5538480
  H       -1.0582210    -1.3705490     1.3857280
  H       -1.6856880    -1.3325510    -1.0922370
  H       -2.3335820     0.3688280    -0.8792620
  H        1.1811620    -0.5295190    -1.5194400
  H        0.8172500    -1.7319370    -0.2626510
  H        0.3174590     1.7541820     0.6550680
  H        2.3334610     0.6171320    -0.0105960
units angstrom
no_reorient  #important for SAPT in psi4, default
symmetry c1  #important for SAPT in psi4, default
}

set PROPERTIES_ORIGIN ["COM"]
properties('MP2/aug-cc-pvtz', properties = ['dipole'])
--------------------------------------------------------------------------

    Molecular point group: c1
  Charge       = 0
  Multiplicity = 1
  Basis Set: AUG-CC-PVTZ
    Blend: AUG-CC-PVTZ
  Basis Set: (AUG-CC-PVTZ AUX)
    Blend: AUG-CC-PVTZ-JKFIT

    Orbital Energies [Eh]
    ---------------------

    Doubly Occupied:

       1A    -20.572641     2A    -20.568813     3A    -11.286345
       4A    -11.284763     5A    -11.226200     6A    -11.223789
       7A     -1.391938     8A     -1.362891     9A     -1.125850
      10A     -0.939746    11A     -0.830773    12A     -0.779762
      13A     -0.719724    14A     -0.687565    15A     -0.650562
      16A     -0.640560    17A     -0.613230    18A     -0.564900
      19A     -0.534436    20A     -0.515685    21A     -0.508529
      22A     -0.465731    23A     -0.407050    24A     -0.373276

  @DF-RHF Final Energy:  -305.89487141848787

   => Energetics <=

    Nuclear Repulsion Energy =            249.8148369961812136
    One-Electron Energy =                -912.8698964533260778
    Two-Electron Energy =                 357.1601880386569405
    Total Energy =                       -305.8948714184878668
  Basis Set: (AUG-CC-PVTZ AUX)
    Blend: AUG-CC-PVTZ-RI
    Molecular point group: c1

    Geometry (in Angstrom), charge = 0, multiplicity = 1:

       Center              X                  Y                   Z               Mass
    ------------   -----------------  -----------------  -----------------  -----------------
         O           -0.153969020499     1.494433544369    -0.180150775700    15.994914619570
         O            2.007709979501    -0.246370455631     0.360359224300    15.994914619570
         C           -0.342479020499     0.093416544369    -0.103824775700    12.000000000000
         C           -1.309600020499    -0.421364455631     0.919431224300    12.000000000000
         C           -1.677730020499    -0.397934455631    -0.550317775700    12.000000000000
         C            1.072737779501    -0.772769855631    -0.494167975700    12.000000000000
         H           -1.788718020499     0.313599544369     1.558189224300     1.007825032230
         H           -1.105189020499    -1.378071455631     1.390069224300     1.007825032230
         H           -1.732656020499    -1.340073455631    -1.087895775700     1.007825032230
         H           -2.380550020499     0.361305544369    -0.874920775700     1.007825032230
         H            1.134193979501    -0.537041455631    -1.515098775700     1.007825032230
         H            0.770281979501    -1.739459455631    -0.258309775700     1.007825032230
         H            0.270490979501     1.746659544369     0.659409224300     1.007825032230
         H            2.286492979501     0.609609544369    -0.006254775700     1.007825032230

  Basis Set: AUG-CC-PVTZ
    Blend: AUG-CC-PVTZ
  Basis Set: (AUG-CC-PVTZ AUX)
    Blend: AUG-CC-PVTZ-JKFIT
	 Reference Energy          =    -305.8948714184878668 [Eh]
	 Singles Energy            =      -0.0000000000000000 [Eh]
	 Same-Spin Energy          =      -0.3049672109677184 [Eh]
	 Opposite-Spin Energy      =      -0.9845116152318814 [Eh]
	 Correlation Energy        =      -1.2894788261995997 [Eh]
	 Total Energy              =    -307.1843502446874936 [Eh]

	 ================> DF-SCS-MP2 Energies <==================
	-----------------------------------------------------------
	 SCS Same-Spin Scale       =       0.3333333333333333 [-]
	 SCS Opposite-Spin Scale   =       1.2000000000000000 [-]
	 SCS Same-Spin Energy      =      -0.1016557369892395 [Eh]
	 SCS Opposite-Spin Energy  =      -1.1814139382782576 [Eh]
	 SCS Correlation Energy    =      -1.2830696752674970 [Eh]
	 SCS Total Energy          =    -307.1779410937553507 [Eh]
	-----------------------------------------------------------

  Dipole Moment: [D]
     X:     0.0363      Y:    -0.1318      Z:    -0.0440     Total:     0.1436

*** Psi4 exiting successfully. Buy a developer a beer!
