                               Psi4 1.3.2 release

  ==> Input File <==

--------------------------------------------------------------------------
#psi4
#
memory 32 gb

molecule  {
0 1
  O       -0.0134176     1.4844385    -0.2109420
  O        2.0546780    -0.2388480     0.3560180
  C       -0.2955110     0.1009390    -0.1081660
  C       -1.2626320    -0.4138420     0.9150900
  C       -1.6307620    -0.3904120    -0.5546590
  C        0.9536540    -0.6636150    -0.4527090
  H       -1.7417500     0.3211220     1.5538480
  H       -1.0582210    -1.3705490     1.3857280
  H       -1.6856880    -1.3325510    -1.0922370
  H       -2.3335820     0.3688280    -0.8792620
  H        1.1811620    -0.5295190    -1.5194400
  H        0.8172500    -1.7319370    -0.2626510
  H        0.3174590     1.7541820     0.6550680
  H        2.3334610     0.6171320    -0.0105960
units angstrom
no_reorient  #important for SAPT in psi4, default
symmetry c1  #important for SAPT in psi4, default
}

set PROPERTIES_ORIGIN ["COM"]
properties('MP2/aug-cc-pvtz', properties = ['dipole'])
--------------------------------------------------------------------------

    Molecular point group: c1
  Charge       = 0
  Multiplicity = 1
  Basis Set: AUG-CC-PVTZ
    Blend: AUG-CC-PVTZ
  Basis Set: (AUG-CC-PVTZ AUX)
    Blend: AUG-CC-PVTZ-JKFIT

    Orbital Energies [Eh]
    ---------------------

    Doubly Occupied:

       1A    -20.570051     2A    -20.561089     3A    -11.290052
       4A    -11.278756     5A    -11.234204     6A    -11.232680
       7A     -1.384354     8A     -1.349404     9A     -1.141037
      10A     -0.951094    11A     -0.839016    12A     -0.786997
      13A     -0.699106    14A     -0.695302    15A     -0.660027
      16A     -0.639475    17A     -0.587988    18A     -0.566004
      19A     -0.529514    20A     -0.518195    21A     -0.500911
      22A     -0.471321    23A     -0.414421    24A     -0.410336

  @DF-RHF Final Energy:  -305.92198963214310

   => Energetics <=

    Nuclear Repulsion Energy =            252.3821812192415166
    One-Electron Energy =                -917.9856700397249369
    Two-Electron Energy =                 359.6814991883403536
    Total Energy =                       -305.9219896321430952
  Basis Set: (AUG-CC-PVTZ AUX)
    Blend: AUG-CC-PVTZ-RI
    Molecular point group: c1

    Geometry (in Angstrom), charge = 0, multiplicity = 1:

       Center              X                  Y                   Z               Mass
    ------------   -----------------  -----------------  -----------------  -----------------
         O           -0.054755303312     1.466247424679    -0.208037838925    15.994914619570
         O            2.013340296688    -0.257039075321     0.358922161075    15.994914619570
         C           -0.336848703312     0.082747924679    -0.105261838925    12.000000000000
         C           -1.303969703312    -0.432033075321     0.917994161075    12.000000000000
         C           -1.672099703312    -0.408603075321    -0.551754838925    12.000000000000
         C            0.912316296688    -0.681806075321    -0.449804838925    12.000000000000
         H           -1.783087703312     0.302930924679     1.556752161075     1.007825032230
         H           -1.099558703312    -1.388740075321     1.388632161075     1.007825032230
         H           -1.727025703312    -1.350742075321    -1.089332838925     1.007825032230
         H           -2.374919703312     0.350636924679    -0.876357838925     1.007825032230
         H            1.139824296688    -0.547710075321    -1.516535838925     1.007825032230
         H            0.775912296688    -1.750128075321    -0.259746838925     1.007825032230
         H            0.276121296688     1.735990924679     0.657972161075     1.007825032230
         H            2.292123296688     0.598940924679    -0.007691838925     1.007825032230

  Basis Set: AUG-CC-PVTZ
    Blend: AUG-CC-PVTZ
  Basis Set: (AUG-CC-PVTZ AUX)
    Blend: AUG-CC-PVTZ-JKFIT
	 Reference Energy          =    -305.9219896321430952 [Eh]
	 Singles Energy            =      -0.0000000000000000 [Eh]
	 Same-Spin Energy          =      -0.3046400632960988 [Eh]
	 Opposite-Spin Energy      =      -0.9837811266366390 [Eh]
	 Correlation Energy        =      -1.2884211899327378 [Eh]
	 Total Energy              =    -307.2104108220758576 [Eh]

	 ================> DF-SCS-MP2 Energies <==================
	-----------------------------------------------------------
	 SCS Same-Spin Scale       =       0.3333333333333333 [-]
	 SCS Opposite-Spin Scale   =       1.2000000000000000 [-]
	 SCS Same-Spin Energy      =      -0.1015466877653663 [Eh]
	 SCS Opposite-Spin Energy  =      -1.1805373519639668 [Eh]
	 SCS Correlation Energy    =      -1.2820840397293332 [Eh]
	 SCS Total Energy          =    -307.2040736718724361 [Eh]
	-----------------------------------------------------------

  Dipole Moment: [D]
     X:    -0.7226      Y:    -0.0776      Z:     0.0428     Total:     0.7280

*** Psi4 exiting successfully. Buy a developer a beer!
