                               Psi4 1.3.2 release

  ==> Input File <==

--------------------------------------------------------------------------
#psi4
#
memory 32 gb

molecule  {
0 1
  O       -0.1070010     1.5019560    -0.1844920
  O        2.0546780    -0.2388480     0.3560180
  C       -0.2852211     0.1009962    -0.0857023
  C       -1.2626320    -0.4138420     0.9150900
  C       -1.6307620    -0.3904120    -0.5546590
  C        0.9536540    -0.6636150    -0.4527090
  H       -1.7417500     0.3211220     1.5538480
  H       -1.0582210    -1.3705490     1.3857280
  H       -1.6856880    -1.3325510    -1.0922370
  H       -2.3335820     0.3688280    -0.8792620
  H        1.1811620    -0.5295190    -1.5194400
  H        0.8172500    -1.7319370    -0.2626510
  H        0.3174590     1.7541820     0.6550680
  H        2.3334610     0.6171320    -0.0105960
units angstrom
no_reorient  #important for SAPT in psi4, default
symmetry c1  #important for SAPT in psi4, default
}

set PROPERTIES_ORIGIN ["COM"]
properties('MP2/aug-cc-pvtz', properties = ['dipole'])
--------------------------------------------------------------------------

    Molecular point group: c1
  Charge       = 0
  Multiplicity = 1
  Basis Set: AUG-CC-PVTZ
    Blend: AUG-CC-PVTZ
  Basis Set: (AUG-CC-PVTZ AUX)
    Blend: AUG-CC-PVTZ-JKFIT

    Orbital Energies [Eh]
    ---------------------

    Doubly Occupied:

       1A    -20.571598     2A    -20.563855     3A    -11.289478
       4A    -11.282100     5A    -11.232745     6A    -11.230216
       7A     -1.383481     8A     -1.352754     9A     -1.137427
      10A     -0.952914    11A     -0.837186    12A     -0.785448
      13A     -0.701940    14A     -0.693432    15A     -0.658163
      16A     -0.639461    17A     -0.588904    18A     -0.567367
      19A     -0.531067    20A     -0.519593    21A     -0.500923
      22A     -0.473813    23A     -0.411958    24A     -0.409265

  @DF-RHF Final Energy:  -305.92215312876641

   => Energetics <=

    Nuclear Repulsion Energy =            252.1138142638659474
    One-Electron Energy =                -917.4417559495450405
    Two-Electron Energy =                 359.4057885569126825
    Total Energy =                       -305.9221531287664106
  Basis Set: (AUG-CC-PVTZ AUX)
    Blend: AUG-CC-PVTZ-RI
    Molecular point group: c1

    Geometry (in Angstrom), charge = 0, multiplicity = 1:

       Center              X                  Y                   Z               Mass
    ------------   -----------------  -----------------  -----------------  -----------------
         O           -0.132741408602     1.480575037489    -0.189453946603    15.994914619570
         O            2.028937591398    -0.260228962511     0.351056053397    15.994914619570
         C           -0.310961508602     0.079615237489    -0.090664246603    12.000000000000
         C           -1.288372408602    -0.435222962511     0.910128053397    12.000000000000
         C           -1.656502408602    -0.411792962511    -0.559620946603    12.000000000000
         C            0.927913591398    -0.684995962511    -0.457670946603    12.000000000000
         H           -1.767490408602     0.299741037489     1.548886053397     1.007825032230
         H           -1.083961408602    -1.391929962511     1.380766053397     1.007825032230
         H           -1.711428408602    -1.353931962511    -1.097198946603     1.007825032230
         H           -2.359322408602     0.347447037489    -0.884223946603     1.007825032230
         H            1.155421591398    -0.550899962511    -1.524401946603     1.007825032230
         H            0.791509591398    -1.753317962511    -0.267612946603     1.007825032230
         H            0.291718591398     1.732801037489     0.650106053397     1.007825032230
         H            2.307720591398     0.595751037489    -0.015557946603     1.007825032230

  Basis Set: AUG-CC-PVTZ
    Blend: AUG-CC-PVTZ
  Basis Set: (AUG-CC-PVTZ AUX)
    Blend: AUG-CC-PVTZ-JKFIT
	 Reference Energy          =    -305.9221531287664106 [Eh]
	 Singles Energy            =      -0.0000000000000000 [Eh]
	 Same-Spin Energy          =      -0.3047971721988210 [Eh]
	 Opposite-Spin Energy      =      -0.9842810552241911 [Eh]
	 Correlation Energy        =      -1.2890782274230119 [Eh]
	 Total Energy              =    -307.2112313561894439 [Eh]

	 ================> DF-SCS-MP2 Energies <==================
	-----------------------------------------------------------
	 SCS Same-Spin Scale       =       0.3333333333333333 [-]
	 SCS Opposite-Spin Scale   =       1.2000000000000000 [-]
	 SCS Same-Spin Energy      =      -0.1015990573996070 [Eh]
	 SCS Opposite-Spin Energy  =      -1.1811372662690292 [Eh]
	 SCS Correlation Energy    =      -1.2827363236686362 [Eh]
	 SCS Total Energy          =    -307.2048894524350544 [Eh]
	-----------------------------------------------------------

  Dipole Moment: [D]
     X:    -0.4537      Y:    -0.1409      Z:    -0.0089     Total:     0.4751

*** Psi4 exiting successfully. Buy a developer a beer!
