                               Psi4 1.4a3.dev225

  ==> Input File <==

--------------------------------------------------------------------------
#psi4
#
memory 32 gb

molecule  {
0 1
  O       -0.1070010     1.5019560    -0.1844920
  O        2.0546780    -0.2388480     0.3560180
  C       -0.2928479     0.1207316    -0.1092443
  C       -1.2626320    -0.4138420     0.9150900
  C       -1.6307620    -0.3904120    -0.5546590
  C        0.9536540    -0.6636150    -0.4527090
  H       -1.7417500     0.3211220     1.5538480
  H       -1.0582210    -1.3705490     1.3857280
  H       -1.6856880    -1.3325510    -1.0922370
  H       -2.3335820     0.3688280    -0.8792620
  H        1.1811620    -0.5295190    -1.5194400
  H        0.8172500    -1.7319370    -0.2626510
  H        0.3174590     1.7541820     0.6550680
  H        2.3334610     0.6171320    -0.0105960
units angstrom
no_reorient  #important for SAPT in psi4, default
symmetry c1  #important for SAPT in psi4, default
}

set PROPERTIES_ORIGIN ["COM"]
properties('MP2/aug-cc-pvtz', properties = ['dipole'])
--------------------------------------------------------------------------

    Molecular point group: c1
  Charge       = 0
  Multiplicity = 1
  Basis Set: AUG-CC-PVTZ
    Blend: AUG-CC-PVTZ
  Basis Set: (AUG-CC-PVTZ AUX)
    Blend: AUG-CC-PVTZ-JKFIT

    Orbital Energies [Eh]
    ---------------------

    Doubly Occupied:

       1A    -20.573260     2A    -20.563950     3A    -11.289666
       4A    -11.281680     5A    -11.231213     6A    -11.230513
       7A     -1.389039     8A     -1.354334     9A     -1.134641
      10A     -0.950171    11A     -0.836522    12A     -0.788641
      13A     -0.704220    14A     -0.693127    15A     -0.657897
      16A     -0.640031    17A     -0.588285    18A     -0.569836
      19A     -0.531748    20A     -0.519818    21A     -0.502796
      22A     -0.473420    23A     -0.412345    24A     -0.403117

  @DF-RHF Final Energy:  -305.92275114670014

   => Energetics <=

    Nuclear Repulsion Energy =            252.1088116718620995
    One-Electron Energy =                -917.4225838078194784
    Two-Electron Energy =                 359.3910209892572425
    Total Energy =                       -305.9227511467001364
  Basis Set: (AUG-CC-PVTZ AUX)
    Blend: AUG-CC-PVTZ-RI
    Molecular point group: c1

    Geometry (in Angstrom), charge = 0, multiplicity = 1:

       Center              X                  Y                   Z               Mass
    ------------   -----------------  -----------------  -----------------  -----------------
         O           -0.131702009683     1.477885449009    -0.186245585384    15.994914619570
         O            2.029976990317    -0.262918550991     0.354264414616    15.994914619570
         C           -0.317548909683     0.096661049009    -0.110997885384    12.000000000000
         C           -1.287333009683    -0.437912550991     0.913336414616    12.000000000000
         C           -1.655463009683    -0.414482550991    -0.556412585384    12.000000000000
         C            0.928952990317    -0.687685550991    -0.454462585384    12.000000000000
         H           -1.766451009683     0.297051449009     1.552094414616     1.007825032230
         H           -1.082922009683    -1.394619550991     1.383974414616     1.007825032230
         H           -1.710389009683    -1.356621550991    -1.093990585384     1.007825032230
         H           -2.358283009683     0.344757449009    -0.881015585384     1.007825032230
         H            1.156460990317    -0.553589550991    -1.521193585384     1.007825032230
         H            0.792548990317    -1.756007550991    -0.264404585384     1.007825032230
         H            0.292757990317     1.730111449009     0.653314414616     1.007825032230
         H            2.308759990317     0.593061449009    -0.012349585384     1.007825032230

  Basis Set: AUG-CC-PVTZ
    Blend: AUG-CC-PVTZ
  Basis Set: (AUG-CC-PVTZ AUX)
    Blend: AUG-CC-PVTZ-JKFIT
	 Reference Energy          =    -305.9227511467001364 [Eh]
	 Singles Energy            =      -0.0000000000000000 [Eh]
	 Same-Spin Energy          =      -0.3046661821894087 [Eh]
	 Opposite-Spin Energy      =      -0.9838392337317786 [Eh]
	 Correlation Energy        =      -1.2885054159211873 [Eh]
	 Total Energy              =    -307.2112565626213154 [Eh]

	 ================> DF-SCS-MP2 Energies <==================
	-----------------------------------------------------------
	 SCS Same-Spin Scale       =       0.3333333333333333 [-]
	 SCS Opposite-Spin Scale   =       1.2000000000000000 [-]
	 SCS Same-Spin Energy      =      -0.1015553940631362 [Eh]
	 SCS Opposite-Spin Energy  =      -1.1806070804781343 [Eh]
	 SCS Correlation Energy    =      -1.2821624745412705 [Eh]
	 SCS Total Energy          =    -307.2049136212414169 [Eh]
	-----------------------------------------------------------

  Dipole Moment: [D]
     X:    -0.4432      Y:    -0.0767      Z:    -0.0414     Total:     0.4517

*** Psi4 exiting successfully. Buy a developer a beer!
