                               Psi4 1.3.2 release

  ==> Input File <==

--------------------------------------------------------------------------
#psi4
#
memory 32 gb

molecule  {
0 1
  O       -0.1070010     1.5019560    -0.1844920
  O        2.0693350    -0.2553529     0.3443470
  C       -0.2955110     0.1009390    -0.1081660
  C       -1.2626320    -0.4138420     0.9150900
  C       -1.6307620    -0.3904120    -0.5546590
  C        0.9536540    -0.6636150    -0.4527090
  H       -1.7417500     0.3211220     1.5538480
  H       -1.0582210    -1.3705490     1.3857280
  H       -1.6856880    -1.3325510    -1.0922370
  H       -2.3335820     0.3688280    -0.8792620
  H        1.1811620    -0.5295190    -1.5194400
  H        0.8172500    -1.7319370    -0.2626510
  H        0.3174590     1.7541820     0.6550680
  H        2.3334610     0.6171320    -0.0105960
units angstrom
no_reorient  #important for SAPT in psi4, default
symmetry c1  #important for SAPT in psi4, default
}

set PROPERTIES_ORIGIN ["COM"]
properties('MP2/aug-cc-pvtz', properties = ['dipole'])
--------------------------------------------------------------------------

    Molecular point group: c1
  Charge       = 0
  Multiplicity = 1
  Basis Set: AUG-CC-PVTZ
    Blend: AUG-CC-PVTZ
  Basis Set: (AUG-CC-PVTZ AUX)
    Blend: AUG-CC-PVTZ-JKFIT

    Orbital Energies [Eh]
    ---------------------

    Doubly Occupied:

       1A    -20.571536     2A    -20.565160     3A    -11.290172
       4A    -11.281913     5A    -11.232086     6A    -11.231435
       7A     -1.382661     8A     -1.352097     9A     -1.139220
      10A     -0.952069    11A     -0.838057    12A     -0.786254
      13A     -0.703202    14A     -0.692732    15A     -0.656875
      16A     -0.639008    17A     -0.588578    18A     -0.566783
      19A     -0.531838    20A     -0.520311    21A     -0.500894
      22A     -0.473135    23A     -0.416447    24A     -0.406718

  @DF-RHF Final Energy:  -305.92234499482066

   => Energetics <=

    Nuclear Repulsion Energy =            251.8468780558331730
    One-Electron Energy =                -916.9000881973912556
    Two-Electron Energy =                 359.1308651467374489
    Total Energy =                       -305.9223449948206621
  Basis Set: (AUG-CC-PVTZ AUX)
    Blend: AUG-CC-PVTZ-RI
    Molecular point group: c1

    Geometry (in Angstrom), charge = 0, multiplicity = 1:

       Center              X                  Y                   Z               Mass
    ------------   -----------------  -----------------  -----------------  -----------------
         O           -0.134001551726     1.483580983694    -0.184272476300    15.994914619570
         O            2.042334448274    -0.273727916306     0.344566523700    15.994914619570
         C           -0.322511551726     0.082563983694    -0.107946476300    12.000000000000
         C           -1.289632551726    -0.432217016306     0.915309523700    12.000000000000
         C           -1.657762551726    -0.408787016306    -0.554439476300    12.000000000000
         C            0.926653448274    -0.681990016306    -0.452489476300    12.000000000000
         H           -1.768750551726     0.302746983694     1.554067523700     1.007825032230
         H           -1.085221551726    -1.388924016306     1.385947523700     1.007825032230
         H           -1.712688551726    -1.350926016306    -1.092017476300     1.007825032230
         H           -2.360582551726     0.350452983694    -0.879042476300     1.007825032230
         H            1.154161448274    -0.547894016306    -1.519220476300     1.007825032230
         H            0.790249448274    -1.750312016306    -0.262431476300     1.007825032230
         H            0.290458448274     1.735806983694     0.655287523700     1.007825032230
         H            2.306460448274     0.598756983694    -0.010376476300     1.007825032230

  Basis Set: AUG-CC-PVTZ
    Blend: AUG-CC-PVTZ
  Basis Set: (AUG-CC-PVTZ AUX)
    Blend: AUG-CC-PVTZ-JKFIT
	 Reference Energy          =    -305.9223449948206621 [Eh]
	 Singles Energy            =      -0.0000000000000000 [Eh]
	 Same-Spin Energy          =      -0.3047906918108463 [Eh]
	 Opposite-Spin Energy      =      -0.9842685810076339 [Eh]
	 Correlation Energy        =      -1.2890592728184802 [Eh]
	 Total Energy              =    -307.2114042676391250 [Eh]

	 ================> DF-SCS-MP2 Energies <==================
	-----------------------------------------------------------
	 SCS Same-Spin Scale       =       0.3333333333333333 [-]
	 SCS Opposite-Spin Scale   =       1.2000000000000000 [-]
	 SCS Same-Spin Energy      =      -0.1015968972702821 [Eh]
	 SCS Opposite-Spin Energy  =      -1.1811222972091606 [Eh]
	 SCS Correlation Energy    =      -1.2827191944794427 [Eh]
	 SCS Total Energy          =    -307.2050641893001171 [Eh]
	-----------------------------------------------------------

  Dipole Moment: [D]
     X:    -0.5135      Y:    -0.1103      Z:    -0.0066     Total:     0.5253

*** Psi4 exiting successfully. Buy a developer a beer!
