                               Psi4 1.3.2 release

  ==> Input File <==

--------------------------------------------------------------------------
#psi4
#
memory 32 gb

molecule  {
0 1
  O       -0.0835012     1.4982137    -0.1911444
  O        2.0546780    -0.2388480     0.3560180
  C       -0.2955110     0.1009390    -0.1081660
  C       -1.2626320    -0.4138420     0.9150900
  C       -1.6307620    -0.3904120    -0.5546590
  C        0.9536540    -0.6636150    -0.4527090
  H       -1.7417500     0.3211220     1.5538480
  H       -1.0582210    -1.3705490     1.3857280
  H       -1.6856880    -1.3325510    -1.0922370
  H       -2.3335820     0.3688280    -0.8792620
  H        1.1811620    -0.5295190    -1.5194400
  H        0.8172500    -1.7319370    -0.2626510
  H        0.3174590     1.7541820     0.6550680
  H        2.3334610     0.6171320    -0.0105960
units angstrom
no_reorient  #important for SAPT in psi4, default
symmetry c1  #important for SAPT in psi4, default
}

set PROPERTIES_ORIGIN ["COM"]
properties('MP2/aug-cc-pvtz', properties = ['dipole'])
--------------------------------------------------------------------------

    Molecular point group: c1
  Charge       = 0
  Multiplicity = 1
  Basis Set: AUG-CC-PVTZ
    Blend: AUG-CC-PVTZ
  Basis Set: (AUG-CC-PVTZ AUX)
    Blend: AUG-CC-PVTZ-JKFIT

    Orbital Energies [Eh]
    ---------------------

    Doubly Occupied:

       1A    -20.570566     2A    -20.563629     3A    -11.289704
       4A    -11.281334     5A    -11.232291     6A    -11.231420
       7A     -1.383265     8A     -1.351921     9A     -1.139415
      10A     -0.952227    11A     -0.838044    12A     -0.786283
      13A     -0.702071    14A     -0.693827    15A     -0.658540
      16A     -0.639046    17A     -0.588762    18A     -0.566029
      19A     -0.530731    20A     -0.519515    21A     -0.501131
      22A     -0.473030    23A     -0.415315    24A     -0.407637

  @DF-RHF Final Energy:  -305.92290840251428

   => Energetics <=

    Nuclear Repulsion Energy =            252.1541350134435788
    One-Electron Energy =                -917.5226222310092226
    Two-Electron Energy =                 359.4455788150513627
    Total Energy =                       -305.9229084025142811
  Basis Set: (AUG-CC-PVTZ AUX)
    Blend: AUG-CC-PVTZ-RI
    Molecular point group: c1

    Geometry (in Angstrom), charge = 0, multiplicity = 1:

       Center              X                  Y                   Z               Mass
    ------------   -----------------  -----------------  -----------------  -----------------
         O           -0.112108065507     1.477520329749    -0.191836515865    15.994914619570
         O            2.026071134493    -0.259541370251     0.355325884135    15.994914619570
         C           -0.324117865507     0.080245629749    -0.108858115865    12.000000000000
         C           -1.291238865507    -0.434535370251     0.914397884135    12.000000000000
         C           -1.659368865507    -0.411105370251    -0.555351115865    12.000000000000
         C            0.925047134493    -0.684308370251    -0.453401115865    12.000000000000
         H           -1.770356865507     0.300428629749     1.553155884135     1.007825032230
         H           -1.086827865507    -1.391242370251     1.385035884135     1.007825032230
         H           -1.714294865507    -1.353244370251    -1.092929115865     1.007825032230
         H           -2.362188865507     0.348134629749    -0.879954115865     1.007825032230
         H            1.152555134493    -0.550212370251    -1.520132115865     1.007825032230
         H            0.788643134493    -1.752630370251    -0.263343115865     1.007825032230
         H            0.288852134493     1.733488629749     0.654375884135     1.007825032230
         H            2.304854134493     0.596438629749    -0.011288115865     1.007825032230

  Basis Set: AUG-CC-PVTZ
    Blend: AUG-CC-PVTZ
  Basis Set: (AUG-CC-PVTZ AUX)
    Blend: AUG-CC-PVTZ-JKFIT
	 Reference Energy          =    -305.9229084025142811 [Eh]
	 Singles Energy            =      -0.0000000000000000 [Eh]
	 Same-Spin Energy          =      -0.3046787122120513 [Eh]
	 Opposite-Spin Energy      =      -0.9839323810047951 [Eh]
	 Correlation Energy        =      -1.2886110932168464 [Eh]
	 Total Energy              =    -307.2115194957311246 [Eh]

	 ================> DF-SCS-MP2 Energies <==================
	-----------------------------------------------------------
	 SCS Same-Spin Scale       =       0.3333333333333333 [-]
	 SCS Opposite-Spin Scale   =       1.2000000000000000 [-]
	 SCS Same-Spin Energy      =      -0.1015595707373504 [Eh]
	 SCS Opposite-Spin Energy  =      -1.1807188572057541 [Eh]
	 SCS Correlation Energy    =      -1.2822784279431045 [Eh]
	 SCS Total Energy          =    -307.2051868304573645 [Eh]
	-----------------------------------------------------------

  Dipole Moment: [D]
     X:    -0.5286      Y:    -0.1300      Z:    -0.0177     Total:     0.5446

*** Psi4 exiting successfully. Buy a developer a beer!
