                               Psi4 1.3.2 release

  ==> Input File <==

--------------------------------------------------------------------------
#psi4
#
memory 32 gb

molecule  {
0 1
  O       -0.1070010     1.5019560    -0.1844920
  O        2.0546780    -0.2388480     0.3560180
  C       -0.3360652     0.1049762    -0.1981847
  C       -1.2626320    -0.4138420     0.9150900
  C       -1.6307620    -0.3904120    -0.5546590
  C        0.9536540    -0.6636150    -0.4527090
  H       -1.7417500     0.3211220     1.5538480
  H       -1.0582210    -1.3705490     1.3857280
  H       -1.6856880    -1.3325510    -1.0922370
  H       -2.3335820     0.3688280    -0.8792620
  H        1.1811620    -0.5295190    -1.5194400
  H        0.8172500    -1.7319370    -0.2626510
  H        0.3174590     1.7541820     0.6550680
  H        2.3334610     0.6171320    -0.0105960
units angstrom
no_reorient  #important for SAPT in psi4, default
symmetry c1  #important for SAPT in psi4, default
}

set PROPERTIES_ORIGIN ["COM"]
properties('MP2/aug-cc-pvtz', properties = ['dipole'])
--------------------------------------------------------------------------

    Molecular point group: c1
  Charge       = 0
  Multiplicity = 1
  Basis Set: AUG-CC-PVTZ
    Blend: AUG-CC-PVTZ
  Basis Set: (AUG-CC-PVTZ AUX)
    Blend: AUG-CC-PVTZ-JKFIT

    Orbital Energies [Eh]
    ---------------------

    Doubly Occupied:

       1A    -20.568925     2A    -20.566939     3A    -11.292118
       4A    -11.283596     5A    -11.234445     6A    -11.226611
       7A     -1.380870     8A     -1.352639     9A     -1.144213
      10A     -0.950681    11A     -0.840044    12A     -0.787503
      13A     -0.707176    14A     -0.693569    15A     -0.656751
      16A     -0.636010    17A     -0.589383    18A     -0.561256
      19A     -0.532978    20A     -0.519897    21A     -0.503123
      22A     -0.474296    23A     -0.435214    24A     -0.384850

  @DF-RHF Final Energy:  -305.91646122715582

   => Energetics <=

    Nuclear Repulsion Energy =            251.8696711329541813
    One-Electron Energy =                -916.9260915579172888
    Two-Electron Energy =                 359.1399591978072863
    Total Energy =                       -305.9164612271558212
  Basis Set: (AUG-CC-PVTZ AUX)
    Blend: AUG-CC-PVTZ-RI
    Molecular point group: c1

    Geometry (in Angstrom), charge = 0, multiplicity = 1:

       Center              X                  Y                   Z               Mass
    ------------   -----------------  -----------------  -----------------  -----------------
         O           -0.125812250559     1.480032633375    -0.174124570597    15.994914619570
         O            2.035866749441    -0.260771366625     0.366385429403    15.994914619570
         C           -0.354876450559     0.083052833375    -0.187817270597    12.000000000000
         C           -1.281443250559    -0.435765366625     0.925457429403    12.000000000000
         C           -1.649573250559    -0.412335366625    -0.544291570597    12.000000000000
         C            0.934842749441    -0.685538366625    -0.442341570597    12.000000000000
         H           -1.760561250559     0.299198633375     1.564215429403     1.007825032230
         H           -1.077032250559    -1.392472366625     1.396095429403     1.007825032230
         H           -1.704499250559    -1.354474366625    -1.081869570597     1.007825032230
         H           -2.352393250559     0.346904633375    -0.868894570597     1.007825032230
         H            1.162350749441    -0.551442366625    -1.509072570597     1.007825032230
         H            0.798438749441    -1.753860366625    -0.252283570597     1.007825032230
         H            0.298647749441     1.732258633375     0.665435429403     1.007825032230
         H            2.314649749441     0.595208633375    -0.000228570597     1.007825032230

  Basis Set: AUG-CC-PVTZ
    Blend: AUG-CC-PVTZ
  Basis Set: (AUG-CC-PVTZ AUX)
    Blend: AUG-CC-PVTZ-JKFIT
	 Reference Energy          =    -305.9164612271558212 [Eh]
	 Singles Energy            =      -0.0000000000000000 [Eh]
	 Same-Spin Energy          =      -0.3048534768101134 [Eh]
	 Opposite-Spin Energy      =      -0.9840339349868511 [Eh]
	 Correlation Energy        =      -1.2888874117969644 [Eh]
	 Total Energy              =    -307.2053486389527848 [Eh]

	 ================> DF-SCS-MP2 Energies <==================
	-----------------------------------------------------------
	 SCS Same-Spin Scale       =       0.3333333333333333 [-]
	 SCS Opposite-Spin Scale   =       1.2000000000000000 [-]
	 SCS Same-Spin Energy      =      -0.1016178256033711 [Eh]
	 SCS Opposite-Spin Energy  =      -1.1808407219842212 [Eh]
	 SCS Correlation Energy    =      -1.2824585475875923 [Eh]
	 SCS Total Energy          =    -307.1989197747433877 [Eh]
	-----------------------------------------------------------

  Dipole Moment: [D]
     X:    -0.4813      Y:    -0.1354      Z:    -0.1697     Total:     0.5280

*** Psi4 exiting successfully. Buy a developer a beer!
