                               Psi4 1.3.2 release

  ==> Input File <==

--------------------------------------------------------------------------
#psi4
#
memory 32 gb

molecule  {
0 1
  O       -0.1070010     1.5019560    -0.1844920
  O        2.0836521    -0.2719821     0.3324331
  C       -0.2955110     0.1009390    -0.1081660
  C       -1.2626320    -0.4138420     0.9150900
  C       -1.6307620    -0.3904120    -0.5546590
  C        0.9536540    -0.6636150    -0.4527090
  H       -1.7417500     0.3211220     1.5538480
  H       -1.0582210    -1.3705490     1.3857280
  H       -1.6856880    -1.3325510    -1.0922370
  H       -2.3335820     0.3688280    -0.8792620
  H        1.1811620    -0.5295190    -1.5194400
  H        0.8172500    -1.7319370    -0.2626510
  H        0.3174590     1.7541820     0.6550680
  H        2.3334610     0.6171320    -0.0105960
units angstrom
no_reorient  #important for SAPT in psi4, default
symmetry c1  #important for SAPT in psi4, default
}

set PROPERTIES_ORIGIN ["COM"]
properties('MP2/aug-cc-pvtz', properties = ['dipole'])
--------------------------------------------------------------------------

    Molecular point group: c1
  Charge       = 0
  Multiplicity = 1
  Basis Set: AUG-CC-PVTZ
    Blend: AUG-CC-PVTZ
  Basis Set: (AUG-CC-PVTZ AUX)
    Blend: AUG-CC-PVTZ-JKFIT

    Orbital Energies [Eh]
    ---------------------

    Doubly Occupied:

       1A    -20.572143     2A    -20.565958     3A    -11.290791
       4A    -11.281616     5A    -11.232530     6A    -11.231883
       7A     -1.382553     8A     -1.351413     9A     -1.139643
      10A     -0.951489    11A     -0.838413    12A     -0.786646
      13A     -0.703421    14A     -0.692079    15A     -0.655795
      16A     -0.639250    17A     -0.588061    18A     -0.567448
      19A     -0.532342    20A     -0.520900    21A     -0.500581
      22A     -0.472679    23A     -0.417355    24A     -0.406734

  @DF-RHF Final Energy:  -305.92162183754164

   => Energetics <=

    Nuclear Repulsion Energy =            251.6116265623579125
    One-Electron Energy =                -916.4230530213819748
    Two-Electron Energy =                 358.8898046214823694
    Total Energy =                       -305.9216218375416361
  Basis Set: (AUG-CC-PVTZ AUX)
    Blend: AUG-CC-PVTZ-RI
    Molecular point group: c1

    Geometry (in Angstrom), charge = 0, multiplicity = 1:

       Center              X                  Y                   Z               Mass
    ------------   -----------------  -----------------  -----------------  -----------------
         O           -0.136602283965     1.486601713908    -0.182108290549    15.994914619570
         O            2.054050816035    -0.287336386092     0.334816809451    15.994914619570
         C           -0.325112283965     0.085584713908    -0.105782290549    12.000000000000
         C           -1.292233283965    -0.429196286092     0.917473709451    12.000000000000
         C           -1.660363283965    -0.405766286092    -0.552275290549    12.000000000000
         C            0.924052716035    -0.678969286092    -0.450325290549    12.000000000000
         H           -1.771351283965     0.305767713908     1.556231709451     1.007825032230
         H           -1.087822283965    -1.385903286092     1.388111709451     1.007825032230
         H           -1.715289283965    -1.347905286092    -1.089853290549     1.007825032230
         H           -2.363183283965     0.353473713908    -0.876878290549     1.007825032230
         H            1.151560716035    -0.544873286092    -1.517056290549     1.007825032230
         H            0.787648716035    -1.747291286092    -0.260267290549     1.007825032230
         H            0.287857716035     1.738827713908     0.657451709451     1.007825032230
         H            2.303859716035     0.601777713908    -0.008212290549     1.007825032230

  Basis Set: AUG-CC-PVTZ
    Blend: AUG-CC-PVTZ
  Basis Set: (AUG-CC-PVTZ AUX)
    Blend: AUG-CC-PVTZ-JKFIT
	 Reference Energy          =    -305.9216218375416361 [Eh]
	 Singles Energy            =      -0.0000000000000000 [Eh]
	 Same-Spin Energy          =      -0.3048687416045999 [Eh]
	 Opposite-Spin Energy      =      -0.9845137475500505 [Eh]
	 Correlation Energy        =      -1.2893824891546504 [Eh]
	 Total Energy              =    -307.2110043266962975 [Eh]

	 ================> DF-SCS-MP2 Energies <==================
	-----------------------------------------------------------
	 SCS Same-Spin Scale       =       0.3333333333333333 [-]
	 SCS Opposite-Spin Scale   =       1.2000000000000000 [-]
	 SCS Same-Spin Energy      =      -0.1016229138682000 [Eh]
	 SCS Opposite-Spin Energy  =      -1.1814164970600605 [Eh]
	 SCS Correlation Energy    =      -1.2830394109282603 [Eh]
	 SCS Total Energy          =    -307.2046612484699040 [Eh]
	-----------------------------------------------------------

  Dipole Moment: [D]
     X:    -0.5616      Y:    -0.0772      Z:     0.0268     Total:     0.5676

*** Psi4 exiting successfully. Buy a developer a beer!
