                               Psi4 1.4a3.dev225

  ==> Input File <==

--------------------------------------------------------------------------
#psi4
#
memory 32 gb

molecule  {
0 1
  O       -0.1070010     1.5019560    -0.1844920
  O        2.0546780    -0.2388480     0.3560180
  C       -0.2955110     0.1009390    -0.1081660
  C       -1.2626320    -0.4138420     0.9150900
  C       -1.6307620    -0.3904120    -0.5546590
  C        0.9951670    -0.6890231    -0.4641590
  H       -1.7417500     0.3211220     1.5538480
  H       -1.0582210    -1.3705490     1.3857280
  H       -1.6856880    -1.3325510    -1.0922370
  H       -2.3335820     0.3688280    -0.8792620
  H        1.1811620    -0.5295190    -1.5194400
  H        0.8172500    -1.7319370    -0.2626510
  H        0.3174590     1.7541820     0.6550680
  H        2.3334610     0.6171320    -0.0105960
units angstrom
no_reorient  #important for SAPT in psi4, default
symmetry c1  #important for SAPT in psi4, default
}

set PROPERTIES_ORIGIN ["COM"]
properties('MP2/aug-cc-pvtz', properties = ['dipole'])
--------------------------------------------------------------------------

    Molecular point group: c1
  Charge       = 0
  Multiplicity = 1
  Basis Set: AUG-CC-PVTZ
    Blend: AUG-CC-PVTZ
  Basis Set: (AUG-CC-PVTZ AUX)
    Blend: AUG-CC-PVTZ-JKFIT

    Orbital Energies [Eh]
    ---------------------

    Doubly Occupied:

       1A    -20.570312     2A    -20.566272     3A    -11.289471
       4A    -11.281798     5A    -11.230151     6A    -11.229098
       7A     -1.383301     8A     -1.357095     9A     -1.135068
      10A     -0.947705    11A     -0.835863    12A     -0.784586
      13A     -0.704365    14A     -0.693704    15A     -0.656661
      16A     -0.638160    17A     -0.596494    18A     -0.565118
      19A     -0.531504    20A     -0.518880    21A     -0.503098
      22A     -0.472522    23A     -0.412007    24A     -0.402094

  @DF-RHF Final Energy:  -305.92136494650782

   => Energetics <=

    Nuclear Repulsion Energy =            251.5044349499525822
    One-Electron Energy =                -916.2409476043728773
    Two-Electron Energy =                 358.8151477079124447
    Total Energy =                       -305.9213649465078220
  Basis Set: (AUG-CC-PVTZ AUX)
    Blend: AUG-CC-PVTZ-RI
    Molecular point group: c1

    Geometry (in Angstrom), charge = 0, multiplicity = 1:

       Center              X                  Y                   Z               Mass
    ------------   -----------------  -----------------  -----------------  -----------------
         O           -0.136996568876     1.484045510726    -0.184832104794    15.994914619570
         O            2.024682431124    -0.256758489274     0.355677895206    15.994914619570
         C           -0.325506568876     0.083028510726    -0.108506104794    12.000000000000
         C           -1.292627568876    -0.431752489274     0.914749895206    12.000000000000
         C           -1.660757568876    -0.408322489274    -0.554999104794    12.000000000000
         C            0.965171431124    -0.706933589274    -0.464499104794    12.000000000000
         H           -1.771745568876     0.303211510726     1.553507895206     1.007825032230
         H           -1.088216568876    -1.388459489274     1.385387895206     1.007825032230
         H           -1.715683568876    -1.350461489274    -1.092577104794     1.007825032230
         H           -2.363577568876     0.350917510726    -0.879602104794     1.007825032230
         H            1.151166431124    -0.547429489274    -1.519780104794     1.007825032230
         H            0.787254431124    -1.749847489274    -0.262991104794     1.007825032230
         H            0.287463431124     1.736271510726     0.654727895206     1.007825032230
         H            2.303465431124     0.599221510726    -0.010936104794     1.007825032230

  Basis Set: AUG-CC-PVTZ
    Blend: AUG-CC-PVTZ
  Basis Set: (AUG-CC-PVTZ AUX)
    Blend: AUG-CC-PVTZ-JKFIT
	 Reference Energy          =    -305.9213649465078220 [Eh]
	 Singles Energy            =      -0.0000000000000000 [Eh]
	 Same-Spin Energy          =      -0.3044656852170184 [Eh]
	 Opposite-Spin Energy      =      -0.9835869075292365 [Eh]
	 Correlation Energy        =      -1.2880525927462549 [Eh]
	 Total Energy              =    -307.2094175392541047 [Eh]

	 ================> DF-SCS-MP2 Energies <==================
	-----------------------------------------------------------
	 SCS Same-Spin Scale       =       0.3333333333333333 [-]
	 SCS Opposite-Spin Scale   =       1.2000000000000000 [-]
	 SCS Same-Spin Energy      =      -0.1014885617390061 [Eh]
	 SCS Opposite-Spin Energy  =      -1.1803042890350837 [Eh]
	 SCS Correlation Energy    =      -1.2817928507740899 [Eh]
	 SCS Total Energy          =    -307.2031577972819036 [Eh]
	-----------------------------------------------------------

  Dipole Moment: [D]
     X:    -0.3334      Y:    -0.1446      Z:    -0.0455     Total:     0.3663

*** Psi4 exiting successfully. Buy a developer a beer!
