                               Psi4 1.3.2 release

  ==> Input File <==

--------------------------------------------------------------------------
#psi4
#
memory 32 gb

molecule  {
0 1
  O       -0.1070010     1.5019560    -0.1844920
  O        2.0546780    -0.2388480     0.3560180
  C       -0.2985778     0.1166628    -0.1581789
  C       -1.2626320    -0.4138420     0.9150900
  C       -1.6307620    -0.3904120    -0.5546590
  C        0.9536540    -0.6636150    -0.4527090
  H       -1.7417500     0.3211220     1.5538480
  H       -1.0582210    -1.3705490     1.3857280
  H       -1.6856880    -1.3325510    -1.0922370
  H       -2.3335820     0.3688280    -0.8792620
  H        1.1811620    -0.5295190    -1.5194400
  H        0.8172500    -1.7319370    -0.2626510
  H        0.3174590     1.7541820     0.6550680
  H        2.3334610     0.6171320    -0.0105960
units angstrom
no_reorient  #important for SAPT in psi4, default
symmetry c1  #important for SAPT in psi4, default
}

set PROPERTIES_ORIGIN ["COM"]
properties('MP2/aug-cc-pvtz', properties = ['dipole'])
--------------------------------------------------------------------------

    Molecular point group: c1
  Charge       = 0
  Multiplicity = 1
  Basis Set: AUG-CC-PVTZ
    Blend: AUG-CC-PVTZ
  Basis Set: (AUG-CC-PVTZ AUX)
    Blend: AUG-CC-PVTZ-JKFIT

    Orbital Energies [Eh]
    ---------------------

    Doubly Occupied:

       1A    -20.571861     2A    -20.565229     3A    -11.290798
       4A    -11.281983     5A    -11.233256     6A    -11.228982
       7A     -1.387030     8A     -1.354277     9A     -1.134142
      10A     -0.952796    11A     -0.836605    12A     -0.789292
      13A     -0.706455    14A     -0.693027    15A     -0.656673
      16A     -0.638508    17A     -0.588148    18A     -0.567849
      19A     -0.532655    20A     -0.519835    21A     -0.504074
      22A     -0.473767    23A     -0.423043    24A     -0.391419

  @DF-RHF Final Energy:  -305.92141181012397

   => Energetics <=

    Nuclear Repulsion Energy =            251.9993636643662001
    One-Electron Energy =                -917.1981397798695070
    Two-Electron Energy =                 359.2773643053793080
    Total Energy =                       -305.9214118101239706
  Basis Set: (AUG-CC-PVTZ AUX)
    Blend: AUG-CC-PVTZ-RI
    Molecular point group: c1

    Geometry (in Angstrom), charge = 0, multiplicity = 1:

       Center              X                  Y                   Z               Mass
    ------------   -----------------  -----------------  -----------------  -----------------
         O           -0.130921124926     1.478439955004    -0.179576658662    15.994914619570
         O            2.030757875074    -0.262364044996     0.360933341338    15.994914619570
         C           -0.322497924926     0.093146755004    -0.153263558662    12.000000000000
         C           -1.286552124926    -0.437358044996     0.920005341338    12.000000000000
         C           -1.654682124926    -0.413928044996    -0.549743658662    12.000000000000
         C            0.929733875074    -0.687131044996    -0.447793658662    12.000000000000
         H           -1.765670124926     0.297605955004     1.558763341338     1.007825032230
         H           -1.082141124926    -1.394065044996     1.390643341338     1.007825032230
         H           -1.709608124926    -1.356067044996    -1.087321658662     1.007825032230
         H           -2.357502124926     0.345311955004    -0.874346658662     1.007825032230
         H            1.157241875074    -0.553035044996    -1.514524658662     1.007825032230
         H            0.793329875074    -1.755453044996    -0.257735658662     1.007825032230
         H            0.293538875074     1.730665955004     0.659983341338     1.007825032230
         H            2.309540875074     0.593615955004    -0.005680658662     1.007825032230

  Basis Set: AUG-CC-PVTZ
    Blend: AUG-CC-PVTZ
  Basis Set: (AUG-CC-PVTZ AUX)
    Blend: AUG-CC-PVTZ-JKFIT
	 Reference Energy          =    -305.9214118101239706 [Eh]
	 Singles Energy            =      -0.0000000000000000 [Eh]
	 Same-Spin Energy          =      -0.3046982964068232 [Eh]
	 Opposite-Spin Energy      =      -0.9838505240607609 [Eh]
	 Correlation Energy        =      -1.2885488204675841 [Eh]
	 Total Energy              =    -307.2099606305915813 [Eh]

	 ================> DF-SCS-MP2 Energies <==================
	-----------------------------------------------------------
	 SCS Same-Spin Scale       =       0.3333333333333333 [-]
	 SCS Opposite-Spin Scale   =       1.2000000000000000 [-]
	 SCS Same-Spin Energy      =      -0.1015660988022744 [Eh]
	 SCS Opposite-Spin Energy  =      -1.1806206288729131 [Eh]
	 SCS Correlation Energy    =      -1.2821867276751875 [Eh]
	 SCS Total Energy          =    -307.2035985377991665 [Eh]
	-----------------------------------------------------------

  Dipole Moment: [D]
     X:    -0.4509      Y:    -0.0888      Z:    -0.1094     Total:     0.4724

*** Psi4 exiting successfully. Buy a developer a beer!
