                               Psi4 1.3.2 release

  ==> Input File <==

--------------------------------------------------------------------------
#psi4
#
memory 32 gb

molecule  {
0 1
  O       -0.1305583     1.5052715    -0.1778163
  O        2.0546780    -0.2388480     0.3560180
  C       -0.2955110     0.1009390    -0.1081660
  C       -1.2626320    -0.4138420     0.9150900
  C       -1.6307620    -0.3904120    -0.5546590
  C        0.9536540    -0.6636150    -0.4527090
  H       -1.7417500     0.3211220     1.5538480
  H       -1.0582210    -1.3705490     1.3857280
  H       -1.6856880    -1.3325510    -1.0922370
  H       -2.3335820     0.3688280    -0.8792620
  H        1.1811620    -0.5295190    -1.5194400
  H        0.8172500    -1.7319370    -0.2626510
  H        0.3174590     1.7541820     0.6550680
  H        2.3334610     0.6171320    -0.0105960
units angstrom
no_reorient  #important for SAPT in psi4, default
symmetry c1  #important for SAPT in psi4, default
}

set PROPERTIES_ORIGIN ["COM"]
properties('MP2/aug-cc-pvtz', properties = ['dipole'])
--------------------------------------------------------------------------

    Molecular point group: c1
  Charge       = 0
  Multiplicity = 1
  Basis Set: AUG-CC-PVTZ
    Blend: AUG-CC-PVTZ
  Basis Set: (AUG-CC-PVTZ AUX)
    Blend: AUG-CC-PVTZ-JKFIT

    Orbital Energies [Eh]
    ---------------------

    Doubly Occupied:

       1A    -20.571330     2A    -20.565224     3A    -11.289395
       4A    -11.283064     5A    -11.231066     6A    -11.230417
       7A     -1.382332     8A     -1.353291     9A     -1.138112
      10A     -0.953005    11A     -0.837328    12A     -0.785239
      13A     -0.703797    14A     -0.692965    15A     -0.657239
      16A     -0.638331    17A     -0.589292    18A     -0.566210
      19A     -0.531985    20A     -0.519762    21A     -0.501217
      22A     -0.474080    23A     -0.415685    24A     -0.405706

  @DF-RHF Final Energy:  -305.92248051429516

   => Energetics <=

    Nuclear Repulsion Energy =            252.0186339423430297
    One-Electron Energy =                -917.2500844860428515
    Two-Electron Energy =                 359.3089700294046338
    Total Energy =                       -305.9224805142951595
  Basis Set: (AUG-CC-PVTZ AUX)
    Blend: AUG-CC-PVTZ-RI
    Molecular point group: c1

    Geometry (in Angstrom), charge = 0, multiplicity = 1:

       Center              X                  Y                   Z               Mass
    ------------   -----------------  -----------------  -----------------  -----------------
         O           -0.150617141324     1.483296065086    -0.180929494111    15.994914619570
         O            2.034619158676    -0.260823434914     0.352904805889    15.994914619570
         C           -0.315569841324     0.078963565086    -0.111279194111    12.000000000000
         C           -1.282690841324    -0.435817434914     0.911976805889    12.000000000000
         C           -1.650820841324    -0.412387434914    -0.557772194111    12.000000000000
         C            0.933595158676    -0.685590434914    -0.455822194111    12.000000000000
         H           -1.761808841324     0.299146565086     1.550734805889     1.007825032230
         H           -1.078279841324    -1.392524434914     1.382614805889     1.007825032230
         H           -1.705746841324    -1.354526434914    -1.095350194111     1.007825032230
         H           -2.353640841324     0.346852565086    -0.882375194111     1.007825032230
         H            1.161103158676    -0.551494434914    -1.522553194111     1.007825032230
         H            0.797191158676    -1.753912434914    -0.265764194111     1.007825032230
         H            0.297400158676     1.732206565086     0.651954805889     1.007825032230
         H            2.313402158676     0.595156565086    -0.013709194111     1.007825032230

  Basis Set: AUG-CC-PVTZ
    Blend: AUG-CC-PVTZ
  Basis Set: (AUG-CC-PVTZ AUX)
    Blend: AUG-CC-PVTZ-JKFIT
	 Reference Energy          =    -305.9224805142951595 [Eh]
	 Singles Energy            =      -0.0000000000000000 [Eh]
	 Same-Spin Energy          =      -0.3047962477612746 [Eh]
	 Opposite-Spin Energy      =      -0.9842293097318412 [Eh]
	 Correlation Energy        =      -1.2890255574931158 [Eh]
	 Total Energy              =    -307.2115060717882784 [Eh]

	 ================> DF-SCS-MP2 Energies <==================
	-----------------------------------------------------------
	 SCS Same-Spin Scale       =       0.3333333333333333 [-]
	 SCS Opposite-Spin Scale   =       1.2000000000000000 [-]
	 SCS Same-Spin Energy      =      -0.1015987492537582 [Eh]
	 SCS Opposite-Spin Energy  =      -1.1810751716782093 [Eh]
	 SCS Correlation Energy    =      -1.2826739209319675 [Eh]
	 SCS Total Energy          =    -307.2051544352271435 [Eh]
	-----------------------------------------------------------

  Dipole Moment: [D]
     X:    -0.3992      Y:    -0.1557      Z:    -0.0611     Total:     0.4328

*** Psi4 exiting successfully. Buy a developer a beer!
