                               Psi4 1.3.2 release

  ==> Input File <==

--------------------------------------------------------------------------
#psi4
#
memory 32 gb

molecule  {
0 1
  O       -0.1070010     1.5019560    -0.1844920
  O        1.9927424    -0.1741721     0.4002043
  C       -0.2955110     0.1009390    -0.1081660
  C       -1.2626320    -0.4138420     0.9150900
  C       -1.6307620    -0.3904120    -0.5546590
  C        0.9536540    -0.6636150    -0.4527090
  H       -1.7417500     0.3211220     1.5538480
  H       -1.0582210    -1.3705490     1.3857280
  H       -1.6856880    -1.3325510    -1.0922370
  H       -2.3335820     0.3688280    -0.8792620
  H        1.1811620    -0.5295190    -1.5194400
  H        0.8172500    -1.7319370    -0.2626510
  H        0.3174590     1.7541820     0.6550680
  H        2.3334610     0.6171320    -0.0105960
units angstrom
no_reorient  #important for SAPT in psi4, default
symmetry c1  #important for SAPT in psi4, default
}

set PROPERTIES_ORIGIN ["COM"]
properties('MP2/aug-cc-pvtz', properties = ['dipole'])
--------------------------------------------------------------------------

    Molecular point group: c1
  Charge       = 0
  Multiplicity = 1
  Basis Set: AUG-CC-PVTZ
    Blend: AUG-CC-PVTZ
  Basis Set: (AUG-CC-PVTZ AUX)
    Blend: AUG-CC-PVTZ-JKFIT

    Orbital Energies [Eh]
    ---------------------

    Doubly Occupied:

       1A    -20.568183     2A    -20.562372     3A    -11.287135
       4A    -11.283176     5A    -11.230090     6A    -11.228651
       7A     -1.383790     8A     -1.353309     9A     -1.136943
      10A     -0.954304    11A     -0.836153    12A     -0.783575
      13A     -0.702182    14A     -0.695395    15A     -0.661488
      16A     -0.637437    17A     -0.590161    18A     -0.563241
      19A     -0.529394    20A     -0.516973    21A     -0.501951
      22A     -0.474945    23A     -0.411734    24A     -0.406320

  @DF-RHF Final Energy:  -305.92240033960297

   => Energetics <=

    Nuclear Repulsion Energy =            253.0599871022748744
    One-Electron Energy =                -919.3669726051226689
    Two-Electron Energy =                 360.3845851632447648
    Total Energy =                       -305.9224003396029730
  Basis Set: (AUG-CC-PVTZ AUX)
    Blend: AUG-CC-PVTZ-RI
    Molecular point group: c1

    Geometry (in Angstrom), charge = 0, multiplicity = 1:

       Center              X                  Y                   Z               Mass
    ------------   -----------------  -----------------  -----------------  -----------------
         O           -0.120088339967     1.468834315463    -0.194419075883    15.994914619570
         O            1.979655060033    -0.207293784537     0.390277224117    15.994914619570
         C           -0.308598339967     0.067817315463    -0.118093075883    12.000000000000
         C           -1.275719339967    -0.446963684537     0.905162924117    12.000000000000
         C           -1.643849339967    -0.423533684537    -0.564586075883    12.000000000000
         C            0.940566660033    -0.696736684537    -0.462636075883    12.000000000000
         H           -1.754837339967     0.288000315463     1.543920924117     1.007825032230
         H           -1.071308339967    -1.403670684537     1.375800924117     1.007825032230
         H           -1.698775339967    -1.365672684537    -1.102164075883     1.007825032230
         H           -2.346669339967     0.335706315463    -0.889189075883     1.007825032230
         H            1.168074660033    -0.562640684537    -1.529367075883     1.007825032230
         H            0.804162660033    -1.765058684537    -0.272578075883     1.007825032230
         H            0.304371660033     1.721060315463     0.645140924117     1.007825032230
         H            2.320373660033     0.584010315463    -0.020523075883     1.007825032230

  Basis Set: AUG-CC-PVTZ
    Blend: AUG-CC-PVTZ
  Basis Set: (AUG-CC-PVTZ AUX)
    Blend: AUG-CC-PVTZ-JKFIT
	 Reference Energy          =    -305.9224003396029730 [Eh]
	 Singles Energy            =      -0.0000000000000000 [Eh]
	 Same-Spin Energy          =      -0.3046424615895412 [Eh]
	 Opposite-Spin Energy      =      -0.9836079299937481 [Eh]
	 Correlation Energy        =      -1.2882503915832895 [Eh]
	 Total Energy              =    -307.2106507311862629 [Eh]

	 ================> DF-SCS-MP2 Energies <==================
	-----------------------------------------------------------
	 SCS Same-Spin Scale       =       0.3333333333333333 [-]
	 SCS Opposite-Spin Scale   =       1.2000000000000000 [-]
	 SCS Same-Spin Energy      =      -0.1015474871965137 [Eh]
	 SCS Opposite-Spin Energy  =      -1.1803295159924978 [Eh]
	 SCS Correlation Energy    =      -1.2818770031890114 [Eh]
	 SCS Total Energy          =    -307.2042773427920110 [Eh]
	-----------------------------------------------------------

  Dipole Moment: [D]
     X:    -0.2492      Y:    -0.2789      Z:    -0.1587     Total:     0.4063

*** Psi4 exiting successfully. Buy a developer a beer!
