                               Psi4 1.3.2 release

  ==> Input File <==

--------------------------------------------------------------------------
#psi4
#
memory 32 gb

molecule  {
0 1
  O       -0.1070010     1.5019560    -0.1844920
  O        2.0546780    -0.2388480     0.3560180
  C       -0.2955110     0.1009390    -0.1081660
  C       -1.1664233    -0.5366141     0.9322249
  C       -1.6307620    -0.3904120    -0.5546590
  C        0.9536540    -0.6636150    -0.4527090
  H       -1.7417500     0.3211220     1.5538480
  H       -1.0582210    -1.3705490     1.3857280
  H       -1.6856880    -1.3325510    -1.0922370
  H       -2.3335820     0.3688280    -0.8792620
  H        1.1811620    -0.5295190    -1.5194400
  H        0.8172500    -1.7319370    -0.2626510
  H        0.3174590     1.7541820     0.6550680
  H        2.3334610     0.6171320    -0.0105960
units angstrom
no_reorient  #important for SAPT in psi4, default
symmetry c1  #important for SAPT in psi4, default
}

set PROPERTIES_ORIGIN ["COM"]
properties('MP2/aug-cc-pvtz', properties = ['dipole'])
--------------------------------------------------------------------------

    Molecular point group: c1
  Charge       = 0
  Multiplicity = 1
  Basis Set: AUG-CC-PVTZ
    Blend: AUG-CC-PVTZ
  Basis Set: (AUG-CC-PVTZ AUX)
    Blend: AUG-CC-PVTZ-JKFIT

    Orbital Energies [Eh]
    ---------------------

    Doubly Occupied:

       1A    -20.576178     2A    -20.565182     3A    -11.294765
       4A    -11.280610     5A    -11.234946     6A    -11.234311
       7A     -1.385232     8A     -1.353838     9A     -1.135085
      10A     -0.949253    11A     -0.851948    12A     -0.788834
      13A     -0.705513    14A     -0.697536    15A     -0.665992
      16A     -0.638901    17A     -0.585191    18A     -0.564654
      19A     -0.531664    20A     -0.520352    21A     -0.501803
      22A     -0.466965    23A     -0.418923    24A     -0.399425

  @DF-RHF Final Energy:  -305.89195965719256

   => Energetics <=

    Nuclear Repulsion Energy =            251.9763574247931501
    One-Electron Energy =                -917.0424310920511743
    Two-Electron Energy =                 359.1741140100654661
    Total Energy =                       -305.8919596571925581
  Basis Set: (AUG-CC-PVTZ AUX)
    Blend: AUG-CC-PVTZ-RI
    Molecular point group: c1

    Geometry (in Angstrom), charge = 0, multiplicity = 1:

       Center              X                  Y                   Z               Mass
    ------------   -----------------  -----------------  -----------------  -----------------
         O           -0.144450632367     1.497314514281    -0.188727724733    15.994914619570
         O            2.017228367633    -0.243489485719     0.351782275267    15.994914619570
         C           -0.332960632366     0.096297514281    -0.112401724733    12.000000000000
         C           -1.203872932367    -0.541255585719     0.927989175267    12.000000000000
         C           -1.668211632367    -0.395053485719    -0.558894724733    12.000000000000
         C            0.916204367633    -0.668256485719    -0.456944724733    12.000000000000
         H           -1.779199632367     0.316480514281     1.549612275267     1.007825032230
         H           -1.095670632367    -1.375190485719     1.381492275267     1.007825032230
         H           -1.723137632367    -1.337192485719    -1.096472724733     1.007825032230
         H           -2.371031632366     0.364186514281    -0.883497724733     1.007825032230
         H            1.143712367633    -0.534160485719    -1.523675724733     1.007825032230
         H            0.779800367633    -1.736578485719    -0.266886724733     1.007825032230
         H            0.280009367633     1.749540514281     0.650832275267     1.007825032230
         H            2.296011367633     0.612490514281    -0.014831724733     1.007825032230

  Basis Set: AUG-CC-PVTZ
    Blend: AUG-CC-PVTZ
  Basis Set: (AUG-CC-PVTZ AUX)
    Blend: AUG-CC-PVTZ-JKFIT
	 Reference Energy          =    -305.8919596571925581 [Eh]
	 Singles Energy            =      -0.0000000000000000 [Eh]
	 Same-Spin Energy          =      -0.3052810052215565 [Eh]
	 Opposite-Spin Energy      =      -0.9861110048238778 [Eh]
	 Correlation Energy        =      -1.2913920100454344 [Eh]
	 Total Energy              =    -307.1833516672380142 [Eh]

	 ================> DF-SCS-MP2 Energies <==================
	-----------------------------------------------------------
	 SCS Same-Spin Scale       =       0.3333333333333333 [-]
	 SCS Opposite-Spin Scale   =       1.2000000000000000 [-]
	 SCS Same-Spin Energy      =      -0.1017603350738522 [Eh]
	 SCS Opposite-Spin Energy  =      -1.1833332057886534 [Eh]
	 SCS Correlation Energy    =      -1.2850935408625057 [Eh]
	 SCS Total Energy          =    -307.1770531980550913 [Eh]
	-----------------------------------------------------------

  Dipole Moment: [D]
     X:    -0.4236      Y:    -0.1408      Z:    -0.0894     Total:     0.4552

*** Psi4 exiting successfully. Buy a developer a beer!
