                               Psi4 1.4a3.dev225

  ==> Input File <==

--------------------------------------------------------------------------
#psi4
#
memory 32 gb

molecule  {
0 1
  O       -0.1070010     1.5019560    -0.1844920
  O        2.0546780    -0.2388480     0.3560180
  C       -0.2955110     0.1009390    -0.1081660
  C       -1.2626320    -0.4138420     0.9150900
  C       -1.6307620    -0.3904120    -0.5546590
  C        0.9121410    -0.6382069    -0.4412590
  H       -1.7417500     0.3211220     1.5538480
  H       -1.0582210    -1.3705490     1.3857280
  H       -1.6856880    -1.3325510    -1.0922370
  H       -2.3335820     0.3688280    -0.8792620
  H        1.1811620    -0.5295190    -1.5194400
  H        0.8172500    -1.7319370    -0.2626510
  H        0.3174590     1.7541820     0.6550680
  H        2.3334610     0.6171320    -0.0105960
units angstrom
no_reorient  #important for SAPT in psi4, default
symmetry c1  #important for SAPT in psi4, default
}

set PROPERTIES_ORIGIN ["COM"]
properties('MP2/aug-cc-pvtz', properties = ['dipole'])
--------------------------------------------------------------------------

    Molecular point group: c1
  Charge       = 0
  Multiplicity = 1
  Basis Set: AUG-CC-PVTZ
    Blend: AUG-CC-PVTZ
  Basis Set: (AUG-CC-PVTZ AUX)
    Blend: AUG-CC-PVTZ-JKFIT

    Orbital Energies [Eh]
    ---------------------

    Doubly Occupied:

       1A    -20.571543     2A    -20.562670     3A    -11.289106
       4A    -11.283147     5A    -11.233420     6A    -11.232758
       7A     -1.383300     8A     -1.347227     9A     -1.142971
      10A     -0.959018    11A     -0.839627    12A     -0.786608
      13A     -0.704775    14A     -0.691094    15A     -0.658296
      16A     -0.639584    17A     -0.581499    18A     -0.567521
      19A     -0.531562    20A     -0.520320    21A     -0.499279
      22A     -0.473621    23A     -0.420547    24A     -0.407853

  @DF-RHF Final Energy:  -305.91921423819906

   => Energetics <=

    Nuclear Repulsion Energy =            252.6835969189544926
    One-Electron Energy =                -918.5509296575033886
    Two-Electron Energy =                 359.9481185003497785
    Total Energy =                       -305.9192142381990607
  Basis Set: (AUG-CC-PVTZ AUX)
    Blend: AUG-CC-PVTZ-RI
    Molecular point group: c1

    Geometry (in Angstrom), charge = 0, multiplicity = 1:

       Center              X                  Y                   Z               Mass
    ------------   -----------------  -----------------  -----------------  -----------------
         O           -0.125681582955     1.477120154964    -0.187952972686    15.994914619570
         O            2.035997417045    -0.263683845036     0.352557027314    15.994914619570
         C           -0.314191582955     0.076103154964    -0.111626972686    12.000000000000
         C           -1.281312582955    -0.438677845036     0.911629027314    12.000000000000
         C           -1.649442582955    -0.415247845036    -0.558119972686    12.000000000000
         C            0.893460417045    -0.663042745036    -0.444719972686    12.000000000000
         H           -1.760430582955     0.296286154964     1.550387027314     1.007825032230
         H           -1.076901582955    -1.395384845036     1.382267027314     1.007825032230
         H           -1.704368582955    -1.357386845036    -1.095697972686     1.007825032230
         H           -2.352262582955     0.343992154964    -0.882722972686     1.007825032230
         H            1.162481417045    -0.554354845036    -1.522900972686     1.007825032230
         H            0.798569417045    -1.756772845036    -0.266111972686     1.007825032230
         H            0.298778417045     1.729346154964     0.651607027314     1.007825032230
         H            2.314780417045     0.592296154964    -0.014056972686     1.007825032230

  Basis Set: AUG-CC-PVTZ
    Blend: AUG-CC-PVTZ
  Basis Set: (AUG-CC-PVTZ AUX)
    Blend: AUG-CC-PVTZ-JKFIT
	 Reference Energy          =    -305.9192142381990607 [Eh]
	 Singles Energy            =      -0.0000000000000000 [Eh]
	 Same-Spin Energy          =      -0.3052388738641055 [Eh]
	 Opposite-Spin Energy      =      -0.9849608767156355 [Eh]
	 Correlation Energy        =      -1.2901997505797409 [Eh]
	 Total Energy              =    -307.2094139887788060 [Eh]

	 ================> DF-SCS-MP2 Energies <==================
	-----------------------------------------------------------
	 SCS Same-Spin Scale       =       0.3333333333333333 [-]
	 SCS Opposite-Spin Scale   =       1.2000000000000000 [-]
	 SCS Same-Spin Energy      =      -0.1017462912880352 [Eh]
	 SCS Opposite-Spin Energy  =      -1.1819530520587624 [Eh]
	 SCS Correlation Energy    =      -1.2836993433467976 [Eh]
	 SCS Total Energy          =    -307.2029135815458858 [Eh]
	-----------------------------------------------------------

  Dipole Moment: [D]
     X:    -0.5976      Y:    -0.1415      Z:    -0.0296     Total:     0.6148

*** Psi4 exiting successfully. Buy a developer a beer!
