                               Psi4 1.3.2 release

  ==> Input File <==

--------------------------------------------------------------------------
#psi4
#
memory 32 gb

molecule  {
0 1
  O       -0.1232913     1.5049291    -0.1661539
  O        2.0546780    -0.2388480     0.3560180
  C       -0.2955110     0.1009390    -0.1081660
  C       -1.2626320    -0.4138420     0.9150900
  C       -1.6307620    -0.3904120    -0.5546590
  C        0.9536540    -0.6636150    -0.4527090
  H       -1.7417500     0.3211220     1.5538480
  H       -1.0582210    -1.3705490     1.3857280
  H       -1.6856880    -1.3325510    -1.0922370
  H       -2.3335820     0.3688280    -0.8792620
  H        1.1811620    -0.5295190    -1.5194400
  H        0.8172500    -1.7319370    -0.2626510
  H        0.3174590     1.7541820     0.6550680
  H        2.3334610     0.6171320    -0.0105960
units angstrom
no_reorient  #important for SAPT in psi4, default
symmetry c1  #important for SAPT in psi4, default
}

set PROPERTIES_ORIGIN ["COM"]
properties('MP2/aug-cc-pvtz', properties = ['dipole'])
--------------------------------------------------------------------------

    Molecular point group: c1
  Charge       = 0
  Multiplicity = 1
  Basis Set: AUG-CC-PVTZ
    Blend: AUG-CC-PVTZ
  Basis Set: (AUG-CC-PVTZ AUX)
    Blend: AUG-CC-PVTZ-JKFIT

    Orbital Energies [Eh]
    ---------------------

    Doubly Occupied:

       1A    -20.569722     2A    -20.565047     3A    -11.289639
       4A    -11.282973     5A    -11.231265     6A    -11.230459
       7A     -1.383859     8A     -1.353752     9A     -1.138750
      10A     -0.953053    11A     -0.837410    12A     -0.787252
      13A     -0.704695    14A     -0.693521    15A     -0.657729
      16A     -0.638483    17A     -0.589236    18A     -0.566171
      19A     -0.531861    20A     -0.520003    21A     -0.501450
      22A     -0.474046    23A     -0.416056    24A     -0.405571

  @DF-RHF Final Energy:  -305.92336660074318

   => Energetics <=

    Nuclear Repulsion Energy =            252.1028538269594321
    One-Electron Energy =                -917.4084370523715961
    Two-Electron Energy =                 359.3822166246690131
    Total Energy =                       -305.9233666007431793
  Basis Set: (AUG-CC-PVTZ AUX)
    Blend: AUG-CC-PVTZ-RI
    Molecular point group: c1

    Geometry (in Angstrom), charge = 0, multiplicity = 1:

       Center              X                  Y                   Z               Mass
    ------------   -----------------  -----------------  -----------------  -----------------
         O           -0.144670207621     1.483015862787    -0.171385594342    15.994914619570
         O            2.033299092379    -0.260761237213     0.350786305658    15.994914619570
         C           -0.316889907621     0.079025762787    -0.113397694342    12.000000000000
         C           -1.284010907621    -0.435755237213     0.909858305658    12.000000000000
         C           -1.652140907621    -0.412325237213    -0.559890694342    12.000000000000
         C            0.932275092379    -0.685528237213    -0.457940694342    12.000000000000
         H           -1.763128907621     0.299208762787     1.548616305658     1.007825032230
         H           -1.079599907621    -1.392462237213     1.380496305658     1.007825032230
         H           -1.707066907621    -1.354464237213    -1.097468694342     1.007825032230
         H           -2.354960907621     0.346914762787    -0.884493694342     1.007825032230
         H            1.159783092379    -0.551432237213    -1.524671694342     1.007825032230
         H            0.795871092379    -1.753850237213    -0.267882694342     1.007825032230
         H            0.296080092379     1.732268762787     0.649836305658     1.007825032230
         H            2.312082092379     0.595218762787    -0.015827694342     1.007825032230

  Basis Set: AUG-CC-PVTZ
    Blend: AUG-CC-PVTZ
  Basis Set: (AUG-CC-PVTZ AUX)
    Blend: AUG-CC-PVTZ-JKFIT
	 Reference Energy          =    -305.9233666007431793 [Eh]
	 Singles Energy            =      -0.0000000000000000 [Eh]
	 Same-Spin Energy          =      -0.3045953664147063 [Eh]
	 Opposite-Spin Energy      =      -0.9837320109049816 [Eh]
	 Correlation Energy        =      -1.2883273773196879 [Eh]
	 Total Energy              =    -307.2116939780628400 [Eh]

	 ================> DF-SCS-MP2 Energies <==================
	-----------------------------------------------------------
	 SCS Same-Spin Scale       =       0.3333333333333333 [-]
	 SCS Opposite-Spin Scale   =       1.2000000000000000 [-]
	 SCS Same-Spin Energy      =      -0.1015317888049021 [Eh]
	 SCS Opposite-Spin Energy  =      -1.1804784130859780 [Eh]
	 SCS Correlation Energy    =      -1.2820102018908801 [Eh]
	 SCS Total Energy          =    -307.2053768026340776 [Eh]
	-----------------------------------------------------------

  Dipole Moment: [D]
     X:    -0.4125      Y:    -0.1574      Z:    -0.0738     Total:     0.4476

*** Psi4 exiting successfully. Buy a developer a beer!
