                               Psi4 1.4a3.dev225

  ==> Input File <==

--------------------------------------------------------------------------
#psi4
#
memory 32 gb

molecule  {
0 1
  O       -0.1070010     1.5019560    -0.1844920
  O        2.0546780    -0.2388480     0.3560180
  C       -0.2981741     0.0811464    -0.1070877
  C       -1.2626320    -0.4138420     0.9150900
  C       -1.6307620    -0.3904120    -0.5546590
  C        0.9536540    -0.6636150    -0.4527090
  H       -1.7417500     0.3211220     1.5538480
  H       -1.0582210    -1.3705490     1.3857280
  H       -1.6856880    -1.3325510    -1.0922370
  H       -2.3335820     0.3688280    -0.8792620
  H        1.1811620    -0.5295190    -1.5194400
  H        0.8172500    -1.7319370    -0.2626510
  H        0.3174590     1.7541820     0.6550680
  H        2.3334610     0.6171320    -0.0105960
units angstrom
no_reorient  #important for SAPT in psi4, default
symmetry c1  #important for SAPT in psi4, default
}

set PROPERTIES_ORIGIN ["COM"]
properties('MP2/aug-cc-pvtz', properties = ['dipole'])
--------------------------------------------------------------------------

    Molecular point group: c1
  Charge       = 0
  Multiplicity = 1
  Basis Set: AUG-CC-PVTZ
    Blend: AUG-CC-PVTZ
  Basis Set: (AUG-CC-PVTZ AUX)
    Blend: AUG-CC-PVTZ-JKFIT

    Orbital Energies [Eh]
    ---------------------

    Doubly Occupied:

       1A    -20.568517     2A    -20.564924     3A    -11.289564
       4A    -11.282723     5A    -11.232128     6A    -11.231373
       7A     -1.377863     8A     -1.350071     9A     -1.142899
      10A     -0.955100    11A     -0.838948    12A     -0.783272
      13A     -0.701872    14A     -0.693625    15A     -0.658102
      16A     -0.637319    17A     -0.590202    18A     -0.562029
      19A     -0.531167    20A     -0.519522    21A     -0.499251
      22A     -0.473625    23A     -0.418780    24A     -0.409809

  @DF-RHF Final Energy:  -305.92200235360900

   => Energetics <=

    Nuclear Repulsion Energy =            252.0639663617665178
    One-Electron Energy =                -917.3465701501630747
    Two-Electron Energy =                 359.3606014347874975
    Total Energy =                       -305.9220023536090025
  Basis Set: (AUG-CC-PVTZ AUX)
    Blend: AUG-CC-PVTZ-RI
    Molecular point group: c1

    Geometry (in Angstrom), charge = 0, multiplicity = 1:

       Center              X                  Y                   Z               Mass
    ------------   -----------------  -----------------  -----------------  -----------------
         O           -0.130976142148     1.483280216680    -0.186539492096    15.994914619570
         O            2.030702857852    -0.257523783320     0.353970507904    15.994914619570
         C           -0.322149242148     0.062470616680    -0.109135192096    12.000000000000
         C           -1.286607142148    -0.432517783320     0.913042507904    12.000000000000
         C           -1.654737142148    -0.409087783320    -0.556706492096    12.000000000000
         C            0.929678857852    -0.682290783320    -0.454756492096    12.000000000000
         H           -1.765725142148     0.302446216680     1.551800507904     1.007825032230
         H           -1.082196142148    -1.389224783320     1.383680507904     1.007825032230
         H           -1.709663142148    -1.351226783320    -1.094284492096     1.007825032230
         H           -2.357557142148     0.350152216680    -0.881309492096     1.007825032230
         H            1.157186857852    -0.548194783320    -1.521487492096     1.007825032230
         H            0.793274857852    -1.750612783320    -0.264698492096     1.007825032230
         H            0.293483857852     1.735506216680     0.653020507904     1.007825032230
         H            2.309485857852     0.598456216680    -0.012643492096     1.007825032230

  Basis Set: AUG-CC-PVTZ
    Blend: AUG-CC-PVTZ
  Basis Set: (AUG-CC-PVTZ AUX)
    Blend: AUG-CC-PVTZ-JKFIT
	 Reference Energy          =    -305.9220023536090025 [Eh]
	 Singles Energy            =      -0.0000000000000000 [Eh]
	 Same-Spin Energy          =      -0.3048233837603421 [Eh]
	 Opposite-Spin Energy      =      -0.9843416211744622 [Eh]
	 Correlation Energy        =      -1.2891650049348042 [Eh]
	 Total Energy              =    -307.2111673585438325 [Eh]

	 ================> DF-SCS-MP2 Energies <==================
	-----------------------------------------------------------
	 SCS Same-Spin Scale       =       0.3333333333333333 [-]
	 SCS Opposite-Spin Scale   =       1.2000000000000000 [-]
	 SCS Same-Spin Energy      =      -0.1016077945867807 [Eh]
	 SCS Opposite-Spin Energy  =      -1.1812099454093545 [Eh]
	 SCS Correlation Energy    =      -1.2828177399961351 [Eh]
	 SCS Total Energy          =    -307.2048200936051217 [Eh]
	-----------------------------------------------------------

  Dipole Moment: [D]
     X:    -0.4840      Y:    -0.2090      Z:    -0.0371     Total:     0.5285

*** Psi4 exiting successfully. Buy a developer a beer!
