                               Psi4 1.3.2 release

  ==> Input File <==

--------------------------------------------------------------------------
#psi4
#
memory 32 gb

molecule  {
0 1
  O       -0.0424632     1.4858071    -0.2575564
  O        2.0546780    -0.2388480     0.3560180
  C       -0.2955110     0.1009390    -0.1081660
  C       -1.2626320    -0.4138420     0.9150900
  C       -1.6307620    -0.3904120    -0.5546590
  C        0.9536540    -0.6636150    -0.4527090
  H       -1.7417500     0.3211220     1.5538480
  H       -1.0582210    -1.3705490     1.3857280
  H       -1.6856880    -1.3325510    -1.0922370
  H       -2.3335820     0.3688280    -0.8792620
  H        1.1811620    -0.5295190    -1.5194400
  H        0.8172500    -1.7319370    -0.2626510
  H        0.3174590     1.7541820     0.6550680
  H        2.3334610     0.6171320    -0.0105960
units angstrom
no_reorient  #important for SAPT in psi4, default
symmetry c1  #important for SAPT in psi4, default
}

set PROPERTIES_ORIGIN ["COM"]
properties('MP2/aug-cc-pvtz', properties = ['dipole'])
--------------------------------------------------------------------------

    Molecular point group: c1
  Charge       = 0
  Multiplicity = 1
  Basis Set: AUG-CC-PVTZ
    Blend: AUG-CC-PVTZ
  Basis Set: (AUG-CC-PVTZ AUX)
    Blend: AUG-CC-PVTZ-JKFIT

    Orbital Energies [Eh]
    ---------------------

    Doubly Occupied:

       1A    -20.576006     2A    -20.561986     3A    -11.289173
       4A    -11.279146     5A    -11.234842     6A    -11.231098
       7A     -1.378746     8A     -1.347808     9A     -1.138829
      10A     -0.950739    11A     -0.838686    12A     -0.779924
      13A     -0.697575    14A     -0.690905    15A     -0.658167
      16A     -0.638873    17A     -0.588240    18A     -0.565965
      19A     -0.530279    20A     -0.517818    21A     -0.499447
      22A     -0.471619    23A     -0.413246    24A     -0.410356

  @DF-RHF Final Energy:  -305.91678829874309

   => Energetics <=

    Nuclear Repulsion Energy =            252.0400962474535049
    One-Electron Energy =                -917.3348188662250777
    Two-Electron Energy =                 359.3779343200285439
    Total Energy =                       -305.9167882987430858
  Basis Set: (AUG-CC-PVTZ AUX)
    Blend: AUG-CC-PVTZ-RI
    Molecular point group: c1

    Geometry (in Angstrom), charge = 0, multiplicity = 1:

       Center              X                  Y                   Z               Mass
    ------------   -----------------  -----------------  -----------------  -----------------
         O           -0.078524707133     1.467367415523    -0.246184632156    15.994914619570
         O            2.018616492867    -0.257287684477     0.367389767844    15.994914619570
         C           -0.331572507133     0.082499315523    -0.096794232156    12.000000000000
         C           -1.298693507133    -0.432281684477     0.926461767844    12.000000000000
         C           -1.666823507133    -0.408851684477    -0.543287232156    12.000000000000
         C            0.917592492867    -0.682054684477    -0.441337232156    12.000000000000
         H           -1.777811507133     0.302682315523     1.565219767844     1.007825032230
         H           -1.094282507133    -1.388988684477     1.397099767844     1.007825032230
         H           -1.721749507133    -1.350990684477    -1.080865232156     1.007825032230
         H           -2.369643507133     0.350388315523    -0.867890232156     1.007825032230
         H            1.145100492867    -0.547958684477    -1.508068232156     1.007825032230
         H            0.781188492867    -1.750376684477    -0.251279232156     1.007825032230
         H            0.281397492867     1.735742315523     0.666439767844     1.007825032230
         H            2.297399492867     0.598692315523     0.000775767844     1.007825032230

  Basis Set: AUG-CC-PVTZ
    Blend: AUG-CC-PVTZ
  Basis Set: (AUG-CC-PVTZ AUX)
    Blend: AUG-CC-PVTZ-JKFIT
	 Reference Energy          =    -305.9167882987430858 [Eh]
	 Singles Energy            =      -0.0000000000000000 [Eh]
	 Same-Spin Energy          =      -0.3054131022419455 [Eh]
	 Opposite-Spin Energy      =      -0.9857536195259676 [Eh]
	 Correlation Energy        =      -1.2911667217679130 [Eh]
	 Total Energy              =    -307.2079550205110081 [Eh]

	 ================> DF-SCS-MP2 Energies <==================
	-----------------------------------------------------------
	 SCS Same-Spin Scale       =       0.3333333333333333 [-]
	 SCS Opposite-Spin Scale   =       1.2000000000000000 [-]
	 SCS Same-Spin Energy      =      -0.1018043674139818 [Eh]
	 SCS Opposite-Spin Energy  =      -1.1829043434311610 [Eh]
	 SCS Correlation Energy    =      -1.2847087108451429 [Eh]
	 SCS Total Energy          =    -307.2014970095882518 [Eh]
	-----------------------------------------------------------

  Dipole Moment: [D]
     X:    -0.6624      Y:    -0.0769      Z:     0.0907     Total:     0.6730

*** Psi4 exiting successfully. Buy a developer a beer!
