                               Psi4 1.3.2 release

  ==> Input File <==

--------------------------------------------------------------------------
#psi4
#
memory 32 gb

molecule  {
0 1
  O       -0.1070010     1.5019560    -0.1844920
  O        2.0546780    -0.2388480     0.3560180
  C       -0.3559359     0.1095496    -0.2431965
  C       -1.2626320    -0.4138420     0.9150900
  C       -1.6307620    -0.3904120    -0.5546590
  C        0.9536540    -0.6636150    -0.4527090
  H       -1.7417500     0.3211220     1.5538480
  H       -1.0582210    -1.3705490     1.3857280
  H       -1.6856880    -1.3325510    -1.0922370
  H       -2.3335820     0.3688280    -0.8792620
  H        1.1811620    -0.5295190    -1.5194400
  H        0.8172500    -1.7319370    -0.2626510
  H        0.3174590     1.7541820     0.6550680
  H        2.3334610     0.6171320    -0.0105960
units angstrom
no_reorient  #important for SAPT in psi4, default
symmetry c1  #important for SAPT in psi4, default
}

set PROPERTIES_ORIGIN ["COM"]
properties('MP2/aug-cc-pvtz', properties = ['dipole'])
--------------------------------------------------------------------------

    Molecular point group: c1
  Charge       = 0
  Multiplicity = 1
  Basis Set: AUG-CC-PVTZ
    Blend: AUG-CC-PVTZ
  Basis Set: (AUG-CC-PVTZ AUX)
    Blend: AUG-CC-PVTZ-JKFIT

    Orbital Energies [Eh]
    ---------------------

    Doubly Occupied:

       1A    -20.568393     2A    -20.568259     3A    -11.294687
       4A    -11.284848     5A    -11.235984     6A    -11.224252
       7A     -1.380290     8A     -1.352896     9A     -1.146908
      10A     -0.949307    11A     -0.841395    12A     -0.788504
      13A     -0.709297    14A     -0.693832    15A     -0.656226
      16A     -0.634622    17A     -0.589441    18A     -0.559142
      19A     -0.534134    20A     -0.519899    21A     -0.504942
      22A     -0.476464    23A     -0.440649    24A     -0.373438

  @DF-RHF Final Energy:  -305.90781066273433

   => Energetics <=

    Nuclear Repulsion Energy =            251.7042902080937097
    One-Electron Energy =                -916.5685842817257480
    Two-Electron Energy =                 358.9564834108976470
    Total Energy =                       -305.9078106627343345
  Basis Set: (AUG-CC-PVTZ AUX)
    Blend: AUG-CC-PVTZ-RI
    Molecular point group: c1

    Geometry (in Angstrom), charge = 0, multiplicity = 1:

       Center              X                  Y                   Z               Mass
    ------------   -----------------  -----------------  -----------------  -----------------
         O           -0.123104223065     1.479409359261    -0.167990252633    15.994914619570
         O            2.038574776935    -0.261394640739     0.372519747367    15.994914619570
         C           -0.372039123065     0.087002959261    -0.226694752633    12.000000000000
         C           -1.278735223065    -0.436388640739     0.931591747367    12.000000000000
         C           -1.646865223065    -0.412958640739    -0.538157252633    12.000000000000
         C            0.937550776935    -0.686161640739    -0.436207252633    12.000000000000
         H           -1.757853223065     0.298575359261     1.570349747367     1.007825032230
         H           -1.074324223065    -1.393095640739     1.402229747367     1.007825032230
         H           -1.701791223065    -1.355097640739    -1.075735252633     1.007825032230
         H           -2.349685223065     0.346281359261    -0.862760252633     1.007825032230
         H            1.165058776935    -0.552065640739    -1.502938252633     1.007825032230
         H            0.801146776935    -1.754483640739    -0.246149252633     1.007825032230
         H            0.301355776935     1.731635359261     0.671569747367     1.007825032230
         H            2.317357776935     0.594585359261     0.005905747367     1.007825032230

  Basis Set: AUG-CC-PVTZ
    Blend: AUG-CC-PVTZ
  Basis Set: (AUG-CC-PVTZ AUX)
    Blend: AUG-CC-PVTZ-JKFIT
	 Reference Energy          =    -305.9078106627343345 [Eh]
	 Singles Energy            =      -0.0000000000000000 [Eh]
	 Same-Spin Energy          =      -0.3051538393894528 [Eh]
	 Opposite-Spin Energy      =      -0.9845333864149255 [Eh]
	 Correlation Energy        =      -1.2896872258043783 [Eh]
	 Total Energy              =    -307.1974978885386918 [Eh]

	 ================> DF-SCS-MP2 Energies <==================
	-----------------------------------------------------------
	 SCS Same-Spin Scale       =       0.3333333333333333 [-]
	 SCS Opposite-Spin Scale   =       1.2000000000000000 [-]
	 SCS Same-Spin Energy      =      -0.1017179464631509 [Eh]
	 SCS Opposite-Spin Energy  =      -1.1814400636979105 [Eh]
	 SCS Correlation Energy    =      -1.2831580101610616 [Eh]
	 SCS Total Energy          =    -307.1909686728953943 [Eh]
	-----------------------------------------------------------

  Dipole Moment: [D]
     X:    -0.4770      Y:    -0.1201      Z:    -0.2395     Total:     0.5471

*** Psi4 exiting successfully. Buy a developer a beer!
