                               Psi4 1.3.2 release

  ==> Input File <==

--------------------------------------------------------------------------
#psi4
#
memory 32 gb

molecule  {
0 1
  O       -0.1396341     1.5074745    -0.1477980
  O        2.0546780    -0.2388480     0.3560180
  C       -0.2955110     0.1009390    -0.1081660
  C       -1.2626320    -0.4138420     0.9150900
  C       -1.6307620    -0.3904120    -0.5546590
  C        0.9536540    -0.6636150    -0.4527090
  H       -1.7417500     0.3211220     1.5538480
  H       -1.0582210    -1.3705490     1.3857280
  H       -1.6856880    -1.3325510    -1.0922370
  H       -2.3335820     0.3688280    -0.8792620
  H        1.1811620    -0.5295190    -1.5194400
  H        0.8172500    -1.7319370    -0.2626510
  H        0.3174590     1.7541820     0.6550680
  H        2.3334610     0.6171320    -0.0105960
units angstrom
no_reorient  #important for SAPT in psi4, default
symmetry c1  #important for SAPT in psi4, default
}

set PROPERTIES_ORIGIN ["COM"]
properties('MP2/aug-cc-pvtz', properties = ['dipole'])
--------------------------------------------------------------------------

    Molecular point group: c1
  Charge       = 0
  Multiplicity = 1
  Basis Set: AUG-CC-PVTZ
    Blend: AUG-CC-PVTZ
  Basis Set: (AUG-CC-PVTZ AUX)
    Blend: AUG-CC-PVTZ-JKFIT

    Orbital Energies [Eh]
    ---------------------

    Doubly Occupied:

       1A    -20.568585     2A    -20.565656     3A    -11.289712
       4A    -11.283751     5A    -11.231142     6A    -11.229677
       7A     -1.384891     8A     -1.354822     9A     -1.138698
      10A     -0.953481    11A     -0.837111    12A     -0.788646
      13A     -0.706434    14A     -0.693602    15A     -0.657491
      16A     -0.638149    17A     -0.589443    18A     -0.566256
      19A     -0.532502    20A     -0.520266    21A     -0.501656
      22A     -0.474523    23A     -0.416559    24A     -0.404390

  @DF-RHF Final Energy:  -305.92359063234022

   => Energetics <=

    Nuclear Repulsion Energy =            252.1233696972413441
    One-Electron Energy =                -917.4390351551510321
    Two-Electron Energy =                 359.3920748255695230
    Total Energy =                       -305.9235906323402219
  Basis Set: (AUG-CC-PVTZ AUX)
    Blend: AUG-CC-PVTZ-RI
    Molecular point group: c1

    Geometry (in Angstrom), charge = 0, multiplicity = 1:

       Center              X                  Y                   Z               Mass
    ------------   -----------------  -----------------  -----------------  -----------------
         O           -0.158044302588     1.485098885362    -0.156364083353    15.994914619570
         O            2.036267797412    -0.261223614638     0.347451916647    15.994914619570
         C           -0.313921202588     0.078563385362    -0.116732083353    12.000000000000
         C           -1.281042202588    -0.436217614638     0.906523916647    12.000000000000
         C           -1.649172202588    -0.412787614638    -0.563225083353    12.000000000000
         C            0.935243797412    -0.685990614638    -0.461275083353    12.000000000000
         H           -1.760160202588     0.298746385362     1.545281916647     1.007825032230
         H           -1.076631202588    -1.392924614638     1.377161916647     1.007825032230
         H           -1.704098202588    -1.354926614638    -1.100803083353     1.007825032230
         H           -2.351992202588     0.346452385362    -0.887828083353     1.007825032230
         H            1.162751797412    -0.551894614638    -1.528006083353     1.007825032230
         H            0.798839797412    -1.754312614638    -0.271217083353     1.007825032230
         H            0.299048797412     1.731806385362     0.646501916647     1.007825032230
         H            2.315050797412     0.594756385362    -0.019162083353     1.007825032230

  Basis Set: AUG-CC-PVTZ
    Blend: AUG-CC-PVTZ
  Basis Set: (AUG-CC-PVTZ AUX)
    Blend: AUG-CC-PVTZ-JKFIT
	 Reference Energy          =    -305.9235906323402219 [Eh]
	 Singles Energy            =      -0.0000000000000000 [Eh]
	 Same-Spin Energy          =      -0.3044781982968453 [Eh]
	 Opposite-Spin Energy      =      -0.9834407817222840 [Eh]
	 Correlation Energy        =      -1.2879189800191293 [Eh]
	 Total Energy              =    -307.2115096123593503 [Eh]

	 ================> DF-SCS-MP2 Energies <==================
	-----------------------------------------------------------
	 SCS Same-Spin Scale       =       0.3333333333333333 [-]
	 SCS Opposite-Spin Scale   =       1.2000000000000000 [-]
	 SCS Same-Spin Energy      =      -0.1014927327656151 [Eh]
	 SCS Opposite-Spin Energy  =      -1.1801289380667408 [Eh]
	 SCS Correlation Energy    =      -1.2816216708323558 [Eh]
	 SCS Total Energy          =    -307.2052123031725728 [Eh]
	-----------------------------------------------------------

  Dipole Moment: [D]
     X:    -0.3605      Y:    -0.1698      Z:    -0.1093     Total:     0.4132

*** Psi4 exiting successfully. Buy a developer a beer!
