                               Psi4 1.3.2 release

  ==> Input File <==

--------------------------------------------------------------------------
#psi4
#
memory 32 gb

molecule  {
0 1
  O       -0.1070010     1.5019560    -0.1844920
  O        2.0546780    -0.2388480     0.3560180
  C       -0.3001189     0.1314359    -0.2085505
  C       -1.2626320    -0.4138420     0.9150900
  C       -1.6307620    -0.3904120    -0.5546590
  C        0.9536540    -0.6636150    -0.4527090
  H       -1.7417500     0.3211220     1.5538480
  H       -1.0582210    -1.3705490     1.3857280
  H       -1.6856880    -1.3325510    -1.0922370
  H       -2.3335820     0.3688280    -0.8792620
  H        1.1811620    -0.5295190    -1.5194400
  H        0.8172500    -1.7319370    -0.2626510
  H        0.3174590     1.7541820     0.6550680
  H        2.3334610     0.6171320    -0.0105960
units angstrom
no_reorient  #important for SAPT in psi4, default
symmetry c1  #important for SAPT in psi4, default
}

set PROPERTIES_ORIGIN ["COM"]
properties('MP2/aug-cc-pvtz', properties = ['dipole'])
--------------------------------------------------------------------------

    Molecular point group: c1
  Charge       = 0
  Multiplicity = 1
  Basis Set: AUG-CC-PVTZ
    Blend: AUG-CC-PVTZ
  Basis Set: (AUG-CC-PVTZ AUX)
    Blend: AUG-CC-PVTZ-JKFIT

    Orbital Energies [Eh]
    ---------------------

    Doubly Occupied:

       1A    -20.572904     2A    -20.566157     3A    -11.293015
       4A    -11.282251     5A    -11.235573     6A    -11.226343
       7A     -1.391234     8A     -1.355640     9A     -1.129606
      10A     -0.953325    11A     -0.835826    12A     -0.792825
      13A     -0.710063    14A     -0.692533    15A     -0.655446
      16A     -0.638161    17A     -0.587312    18A     -0.569236
      19A     -0.534198    20A     -0.519960    21A     -0.506838
      22A     -0.474246    23A     -0.429522    24A     -0.375932

  @DF-RHF Final Energy:  -305.91635020776164

   => Energetics <=

    Nuclear Repulsion Energy =            251.8662178470963511
    One-Electron Energy =                -916.9088426682247928
    Two-Electron Energy =                 359.1262746133668315
    Total Energy =                       -305.9163502077616386
  Basis Set: (AUG-CC-PVTZ AUX)
    Blend: AUG-CC-PVTZ-RI
    Molecular point group: c1

    Geometry (in Angstrom), charge = 0, multiplicity = 1:

       Center              X                  Y                   Z               Mass
    ------------   -----------------  -----------------  -----------------  -----------------
         O           -0.130711100057     1.476426640880    -0.172711894073    15.994914619570
         O            2.030967899943    -0.264377359120     0.367798105927    15.994914619570
         C           -0.323829000057     0.105906540880    -0.196770394073    12.000000000000
         C           -1.286342100057    -0.439371359120     0.926870105927    12.000000000000
         C           -1.654472100057    -0.415941359120    -0.542878894073    12.000000000000
         C            0.929943899943    -0.689144359120    -0.440928894073    12.000000000000
         H           -1.765460100057     0.295592640880     1.565628105927     1.007825032230
         H           -1.081931100057    -1.396078359120     1.397508105927     1.007825032230
         H           -1.709398100057    -1.358080359120    -1.080456894073     1.007825032230
         H           -2.357292100057     0.343298640880    -0.867481894073     1.007825032230
         H            1.157451899943    -0.555048359120    -1.507659894073     1.007825032230
         H            0.793539899943    -1.757466359120    -0.250870894073     1.007825032230
         H            0.293748899943     1.728652640880     0.666848105927     1.007825032230
         H            2.309750899943     0.591602640880     0.001184105927     1.007825032230

  Basis Set: AUG-CC-PVTZ
    Blend: AUG-CC-PVTZ
  Basis Set: (AUG-CC-PVTZ AUX)
    Blend: AUG-CC-PVTZ-JKFIT
	 Reference Energy          =    -305.9163502077616386 [Eh]
	 Singles Energy            =      -0.0000000000000000 [Eh]
	 Same-Spin Energy          =      -0.3048531697805196 [Eh]
	 Opposite-Spin Energy      =      -0.9840548758907820 [Eh]
	 Correlation Energy        =      -1.2889080456713016 [Eh]
	 Total Energy              =    -307.2052582534329304 [Eh]

	 ================> DF-SCS-MP2 Energies <==================
	-----------------------------------------------------------
	 SCS Same-Spin Scale       =       0.3333333333333333 [-]
	 SCS Opposite-Spin Scale   =       1.2000000000000000 [-]
	 SCS Same-Spin Energy      =      -0.1016177232601732 [Eh]
	 SCS Opposite-Spin Energy  =      -1.1808658510689383 [Eh]
	 SCS Correlation Energy    =      -1.2824835743291114 [Eh]
	 SCS Total Energy          =    -307.1988337820907304 [Eh]
	-----------------------------------------------------------

  Dipole Moment: [D]
     X:    -0.4278      Y:    -0.0317      Z:    -0.1818     Total:     0.4659

*** Psi4 exiting successfully. Buy a developer a beer!
