                               Psi4 1.3.2 release

  ==> Input File <==

--------------------------------------------------------------------------
#psi4
#
memory 32 gb

molecule  {
0 1
  O       -0.0745975     1.4947306    -0.2210930
  O        2.0546780    -0.2388480     0.3560180
  C       -0.2955110     0.1009390    -0.1081660
  C       -1.2626320    -0.4138420     0.9150900
  C       -1.6307620    -0.3904120    -0.5546590
  C        0.9536540    -0.6636150    -0.4527090
  H       -1.7417500     0.3211220     1.5538480
  H       -1.0582210    -1.3705490     1.3857280
  H       -1.6856880    -1.3325510    -1.0922370
  H       -2.3335820     0.3688280    -0.8792620
  H        1.1811620    -0.5295190    -1.5194400
  H        0.8172500    -1.7319370    -0.2626510
  H        0.3174590     1.7541820     0.6550680
  H        2.3334610     0.6171320    -0.0105960
units angstrom
no_reorient  #important for SAPT in psi4, default
symmetry c1  #important for SAPT in psi4, default
}

set PROPERTIES_ORIGIN ["COM"]
properties('MP2/aug-cc-pvtz', properties = ['dipole'])
--------------------------------------------------------------------------

    Molecular point group: c1
  Charge       = 0
  Multiplicity = 1
  Basis Set: AUG-CC-PVTZ
    Blend: AUG-CC-PVTZ
  Basis Set: (AUG-CC-PVTZ AUX)
    Blend: AUG-CC-PVTZ-JKFIT

    Orbital Energies [Eh]
    ---------------------

    Doubly Occupied:

       1A    -20.573398     2A    -20.563211     3A    -11.289370
       4A    -11.280661     5A    -11.233213     6A    -11.231097
       7A     -1.380737     8A     -1.350293     9A     -1.138821
      10A     -0.951699    11A     -0.838213    12A     -0.782863
      13A     -0.699756    14A     -0.692709    15A     -0.658139
      16A     -0.638994    17A     -0.588620    18A     -0.566007
      19A     -0.530597    20A     -0.518875    21A     -0.500444
      22A     -0.472589    23A     -0.414407    24A     -0.408681

  @DF-RHF Final Energy:  -305.92058610090641

   => Energetics <=

    Nuclear Repulsion Energy =            252.0563381488489654
    One-Electron Energy =                -917.3470597834837008
    Two-Electron Energy =                 359.3701355337283871
    Total Energy =                       -305.9205861009064051
  Basis Set: (AUG-CC-PVTZ AUX)
    Blend: AUG-CC-PVTZ-RI
    Molecular point group: c1

    Geometry (in Angstrom), charge = 0, multiplicity = 1:

       Center              X                  Y                   Z               Mass
    ------------   -----------------  -----------------  -----------------  -----------------
         O           -0.104821741906     1.474669942412    -0.216344887779    15.994914619570
         O            2.024453758094    -0.258908657588     0.360766112221    15.994914619570
         C           -0.325735241906     0.080878342412    -0.103417887779    12.000000000000
         C           -1.292856241906    -0.433902657588     0.919838112221    12.000000000000
         C           -1.660986241906    -0.410472657588    -0.549910887779    12.000000000000
         C            0.923429758094    -0.683675657588    -0.447960887779    12.000000000000
         H           -1.771974241906     0.301061342412     1.558596112221     1.007825032230
         H           -1.088445241906    -1.390609657588     1.390476112221     1.007825032230
         H           -1.715912241906    -1.352611657588    -1.087488887779     1.007825032230
         H           -2.363806241906     0.348767342412    -0.874513887779     1.007825032230
         H            1.150937758094    -0.549579657588    -1.514691887779     1.007825032230
         H            0.787025758094    -1.751997657588    -0.257902887779     1.007825032230
         H            0.287234758094     1.734121342412     0.659816112221     1.007825032230
         H            2.303236758094     0.597071342412    -0.005847887779     1.007825032230

  Basis Set: AUG-CC-PVTZ
    Blend: AUG-CC-PVTZ
  Basis Set: (AUG-CC-PVTZ AUX)
    Blend: AUG-CC-PVTZ-JKFIT
	 Reference Energy          =    -305.9205861009064051 [Eh]
	 Singles Energy            =      -0.0000000000000000 [Eh]
	 Same-Spin Energy          =      -0.3050408907202474 [Eh]
	 Opposite-Spin Energy      =      -0.9848322975545893 [Eh]
	 Correlation Energy        =      -1.2898731882748367 [Eh]
	 Total Energy              =    -307.2104592891812445 [Eh]

	 ================> DF-SCS-MP2 Energies <==================
	-----------------------------------------------------------
	 SCS Same-Spin Scale       =       0.3333333333333333 [-]
	 SCS Opposite-Spin Scale   =       1.2000000000000000 [-]
	 SCS Same-Spin Energy      =      -0.1016802969067491 [Eh]
	 SCS Opposite-Spin Energy  =      -1.1817987570655071 [Eh]
	 SCS Correlation Energy    =      -1.2834790539722563 [Eh]
	 SCS Total Energy          =    -307.2040651548786627 [Eh]
	-----------------------------------------------------------

  Dipole Moment: [D]
     X:    -0.5646      Y:    -0.1125      Z:     0.0275     Total:     0.5763

*** Psi4 exiting successfully. Buy a developer a beer!
