                               Psi4 1.3.2 release

  ==> Input File <==

--------------------------------------------------------------------------
#psi4
#
memory 32 gb

molecule  {
0 1
  O       -0.1070010     1.5019560    -0.1844920
  O        2.0546780    -0.2388480     0.3560180
  C       -0.3159153     0.1021049    -0.1531563
  C       -1.2626320    -0.4138420     0.9150900
  C       -1.6307620    -0.3904120    -0.5546590
  C        0.9536540    -0.6636150    -0.4527090
  H       -1.7417500     0.3211220     1.5538480
  H       -1.0582210    -1.3705490     1.3857280
  H       -1.6856880    -1.3325510    -1.0922370
  H       -2.3335820     0.3688280    -0.8792620
  H        1.1811620    -0.5295190    -1.5194400
  H        0.8172500    -1.7319370    -0.2626510
  H        0.3174590     1.7541820     0.6550680
  H        2.3334610     0.6171320    -0.0105960
units angstrom
no_reorient  #important for SAPT in psi4, default
symmetry c1  #important for SAPT in psi4, default
}

set PROPERTIES_ORIGIN ["COM"]
properties('MP2/aug-cc-pvtz', properties = ['dipole'])
--------------------------------------------------------------------------

    Molecular point group: c1
  Charge       = 0
  Multiplicity = 1
  Basis Set: AUG-CC-PVTZ
    Blend: AUG-CC-PVTZ
  Basis Set: (AUG-CC-PVTZ AUX)
    Blend: AUG-CC-PVTZ-JKFIT

    Orbital Energies [Eh]
    ---------------------

    Doubly Occupied:

       1A    -20.569760     2A    -20.565657     3A    -11.290391
       4A    -11.282701     5A    -11.232846     6A    -11.229008
       7A     -1.381703     8A     -1.352548     9A     -1.141500
      10A     -0.951789    11A     -0.838806    12A     -0.786609
      13A     -0.705051    14A     -0.693405    15A     -0.657346
      16A     -0.637358    17A     -0.589239    18A     -0.563609
      19A     -0.532037    20A     -0.519827    21A     -0.501930
      22A     -0.473473    23A     -0.426518    24A     -0.396011

  @DF-RHF Final Energy:  -305.92145381420875

   => Energetics <=

    Nuclear Repulsion Energy =            251.9966945601989892
    One-Electron Energy =                -917.1980588794333471
    Two-Electron Energy =                 359.2799105050256117
    Total Energy =                       -305.9214538142087463
  Basis Set: (AUG-CC-PVTZ AUX)
    Blend: AUG-CC-PVTZ-RI
    Molecular point group: c1

    Geometry (in Angstrom), charge = 0, multiplicity = 1:

       Center              X                  Y                   Z               Mass
    ------------   -----------------  -----------------  -----------------  -----------------
         O           -0.128558328111     1.480423941147    -0.180261150849    15.994914619570
         O            2.033120671889    -0.260380058853     0.360248849151    15.994914619570
         C           -0.337472628111     0.080572841147    -0.148925450849    12.000000000000
         C           -1.284189328111    -0.435374058853     0.919320849151    12.000000000000
         C           -1.652319328111    -0.411944058853    -0.550428150849    12.000000000000
         C            0.932096671889    -0.685147058853    -0.448478150849    12.000000000000
         H           -1.763307328111     0.299589941147     1.558078849151     1.007825032230
         H           -1.079778328111    -1.392081058853     1.389958849151     1.007825032230
         H           -1.707245328111    -1.354083058853    -1.088006150849     1.007825032230
         H           -2.355139328111     0.347295941147    -0.875031150849     1.007825032230
         H            1.159604671889    -0.551051058853    -1.515209150849     1.007825032230
         H            0.795692671889    -1.753469058853    -0.258420150849     1.007825032230
         H            0.295901671889     1.732649941147     0.659298849151     1.007825032230
         H            2.311903671889     0.595599941147    -0.006365150849     1.007825032230

  Basis Set: AUG-CC-PVTZ
    Blend: AUG-CC-PVTZ
  Basis Set: (AUG-CC-PVTZ AUX)
    Blend: AUG-CC-PVTZ-JKFIT
	 Reference Energy          =    -305.9214538142087463 [Eh]
	 Singles Energy            =      -0.0000000000000000 [Eh]
	 Same-Spin Energy          =      -0.3047108116949507 [Eh]
	 Opposite-Spin Energy      =      -0.9838757180823359 [Eh]
	 Correlation Energy        =      -1.2885865297772865 [Eh]
	 Total Energy              =    -307.2100403439860088 [Eh]

	 ================> DF-SCS-MP2 Energies <==================
	-----------------------------------------------------------
	 SCS Same-Spin Scale       =       0.3333333333333333 [-]
	 SCS Opposite-Spin Scale   =       1.2000000000000000 [-]
	 SCS Same-Spin Energy      =      -0.1015702705649836 [Eh]
	 SCS Opposite-Spin Energy  =      -1.1806508616988030 [Eh]
	 SCS Correlation Energy    =      -1.2822211322637864 [Eh]
	 SCS Total Energy          =    -307.2036749464725176 [Eh]
	-----------------------------------------------------------

  Dipole Moment: [D]
     X:    -0.4772      Y:    -0.1434      Z:    -0.1026     Total:     0.5088

*** Psi4 exiting successfully. Buy a developer a beer!
