                               Psi4 1.3.2 release

  ==> Input File <==

--------------------------------------------------------------------------
#psi4
#
memory 32 gb

molecule  {
0 1
  O       -0.1724572     1.5112793    -0.1110558
  O        2.0546780    -0.2388480     0.3560180
  C       -0.2955110     0.1009390    -0.1081660
  C       -1.2626320    -0.4138420     0.9150900
  C       -1.6307620    -0.3904120    -0.5546590
  C        0.9536540    -0.6636150    -0.4527090
  H       -1.7417500     0.3211220     1.5538480
  H       -1.0582210    -1.3705490     1.3857280
  H       -1.6856880    -1.3325510    -1.0922370
  H       -2.3335820     0.3688280    -0.8792620
  H        1.1811620    -0.5295190    -1.5194400
  H        0.8172500    -1.7319370    -0.2626510
  H        0.3174590     1.7541820     0.6550680
  H        2.3334610     0.6171320    -0.0105960
units angstrom
no_reorient  #important for SAPT in psi4, default
symmetry c1  #important for SAPT in psi4, default
}

set PROPERTIES_ORIGIN ["COM"]
properties('MP2/aug-cc-pvtz', properties = ['dipole'])
--------------------------------------------------------------------------

    Molecular point group: c1
  Charge       = 0
  Multiplicity = 1
  Basis Set: AUG-CC-PVTZ
    Blend: AUG-CC-PVTZ
  Basis Set: (AUG-CC-PVTZ AUX)
    Blend: AUG-CC-PVTZ-JKFIT

    Orbital Energies [Eh]
    ---------------------

    Doubly Occupied:

       1A    -20.566862     2A    -20.566480     3A    -11.289816
       4A    -11.285309     5A    -11.230984     6A    -11.227955
       7A     -1.386868     8A     -1.356830     9A     -1.138531
      10A     -0.954304    11A     -0.836456    12A     -0.791229
      13A     -0.709815    14A     -0.693687    15A     -0.656869
      16A     -0.637245    17A     -0.589845    18A     -0.566472
      19A     -0.534068    20A     -0.520707    21A     -0.501867
      22A     -0.475455    23A     -0.417474    24A     -0.401829

  @DF-RHF Final Energy:  -305.92313085714449

   => Energetics <=

    Nuclear Repulsion Energy =            252.1705750941633823
    One-Electron Energy =                -917.5134972933997233
    Two-Electron Energy =                 359.4197913420918553
    Total Energy =                       -305.9231308571444856
  Basis Set: (AUG-CC-PVTZ AUX)
    Blend: AUG-CC-PVTZ-RI
    Molecular point group: c1

    Geometry (in Angstrom), charge = 0, multiplicity = 1:

       Center              X                  Y                   Z               Mass
    ------------   -----------------  -----------------  -----------------  -----------------
         O           -0.184905015348     1.488212535197    -0.126296183600    15.994914619570
         O            2.042230184652    -0.261914764803     0.340777616400    15.994914619570
         C           -0.307958815348     0.077872235197    -0.123406383600    12.000000000000
         C           -1.275079815348    -0.436908764803     0.899849616400    12.000000000000
         C           -1.643209815348    -0.413478764803    -0.569899383600    12.000000000000
         C            0.941206184652    -0.686681764803    -0.467949383600    12.000000000000
         H           -1.754197815348     0.298055235197     1.538607616400     1.007825032230
         H           -1.070668815348    -1.393615764803     1.370487616400     1.007825032230
         H           -1.698135815348    -1.355617764803    -1.107477383600     1.007825032230
         H           -2.346029815348     0.345761235197    -0.894502383600     1.007825032230
         H            1.168714184652    -0.552585764803    -1.534680383600     1.007825032230
         H            0.804802184652    -1.755003764803    -0.277891383600     1.007825032230
         H            0.305011184652     1.731115235197     0.639827616400     1.007825032230
         H            2.321013184652     0.594065235197    -0.025836383600     1.007825032230

  Basis Set: AUG-CC-PVTZ
    Blend: AUG-CC-PVTZ
  Basis Set: (AUG-CC-PVTZ AUX)
    Blend: AUG-CC-PVTZ-JKFIT
	 Reference Energy          =    -305.9231308571444856 [Eh]
	 Singles Energy            =      -0.0000000000000000 [Eh]
	 Same-Spin Energy          =      -0.3042925747340495 [Eh]
	 Opposite-Spin Energy      =      -0.9829724243788805 [Eh]
	 Correlation Energy        =      -1.2872649991129301 [Eh]
	 Total Energy              =    -307.2103958562574348 [Eh]

	 ================> DF-SCS-MP2 Energies <==================
	-----------------------------------------------------------
	 SCS Same-Spin Scale       =       0.3333333333333333 [-]
	 SCS Opposite-Spin Scale   =       1.2000000000000000 [-]
	 SCS Same-Spin Energy      =      -0.1014308582446832 [Eh]
	 SCS Opposite-Spin Energy  =      -1.1795669092546566 [Eh]
	 SCS Correlation Energy    =      -1.2809977674993398 [Eh]
	 SCS Total Energy          =    -307.2041286246438290 [Eh]
	-----------------------------------------------------------

  Dipole Moment: [D]
     X:    -0.2550      Y:    -0.1899      Z:    -0.1827     Total:     0.3667

*** Psi4 exiting successfully. Buy a developer a beer!
