                               Psi4 1.3.2 release

  ==> Input File <==

--------------------------------------------------------------------------
#psi4
#
memory 32 gb

molecule  {
0 1
  O       -0.1070010     1.5019560    -0.1844920
  O        2.0546780    -0.2388480     0.3560180
  C       -0.2955110     0.1009390    -0.1081660
  C       -1.2776635    -0.3927943     0.9111373
  C       -1.6307620    -0.3904120    -0.5546590
  C        0.9536540    -0.6636150    -0.4527090
  H       -1.7417500     0.3211220     1.5538480
  H       -1.0582210    -1.3705490     1.3857280
  H       -1.6856880    -1.3325510    -1.0922370
  H       -2.3335820     0.3688280    -0.8792620
  H        1.1811620    -0.5295190    -1.5194400
  H        0.8172500    -1.7319370    -0.2626510
  H        0.3174590     1.7541820     0.6550680
  H        2.3334610     0.6171320    -0.0105960
units angstrom
no_reorient  #important for SAPT in psi4, default
symmetry c1  #important for SAPT in psi4, default
}

set PROPERTIES_ORIGIN ["COM"]
properties('MP2/aug-cc-pvtz', properties = ['dipole'])
--------------------------------------------------------------------------

    Molecular point group: c1
  Charge       = 0
  Multiplicity = 1
  Basis Set: AUG-CC-PVTZ
    Blend: AUG-CC-PVTZ
  Basis Set: (AUG-CC-PVTZ AUX)
    Blend: AUG-CC-PVTZ-JKFIT

    Orbital Energies [Eh]
    ---------------------

    Doubly Occupied:

       1A    -20.570184     2A    -20.564417     3A    -11.289118
       4A    -11.282603     5A    -11.231622     6A    -11.230779
       7A     -1.382602     8A     -1.352565     9A     -1.139645
      10A     -0.953349    11A     -0.836922    12A     -0.785691
      13A     -0.703160    14A     -0.694354    15A     -0.657338
      16A     -0.637159    17A     -0.590204    18A     -0.566281
      19A     -0.530860    20A     -0.519691    21A     -0.500205
      22A     -0.474533    23A     -0.415650    24A     -0.406415

  @DF-RHF Final Energy:  -305.92206041989232

   => Energetics <=

    Nuclear Repulsion Energy =            252.1185005436860251
    One-Electron Energy =                -917.4504284776667191
    Two-Electron Energy =                 359.4098675140884325
    Total Energy =                       -305.9220604198923184
  Basis Set: (AUG-CC-PVTZ AUX)
    Blend: AUG-CC-PVTZ-RI
    Molecular point group: c1

    Geometry (in Angstrom), charge = 0, multiplicity = 1:

       Center              X                  Y                   Z               Mass
    ------------   -----------------  -----------------  -----------------  -----------------
         O           -0.129290546408     1.477714400918    -0.185853855137    15.994914619570
         O            2.032388453592    -0.263089599082     0.354656144863    15.994914619570
         C           -0.317800546408     0.076697400918    -0.109527855137    12.000000000000
         C           -1.299953046408    -0.417035899082     0.909775444863    12.000000000000
         C           -1.653051546408    -0.414653599082    -0.556020855137    12.000000000000
         C            0.931364453592    -0.687856599082    -0.454070855137    12.000000000000
         H           -1.764039546408     0.296880400918     1.552486144863     1.007825032230
         H           -1.080510546408    -1.394790599082     1.384366144863     1.007825032230
         H           -1.707977546408    -1.356792599082    -1.093598855137     1.007825032230
         H           -2.355871546408     0.344586400918    -0.880623855137     1.007825032230
         H            1.158872453592    -0.553760599082    -1.520801855137     1.007825032230
         H            0.794960453592    -1.756178599082    -0.264012855137     1.007825032230
         H            0.295169453592     1.729940400918     0.653706144863     1.007825032230
         H            2.311171453592     0.592890400918    -0.011957855137     1.007825032230

  Basis Set: AUG-CC-PVTZ
    Blend: AUG-CC-PVTZ
  Basis Set: (AUG-CC-PVTZ AUX)
    Blend: AUG-CC-PVTZ-JKFIT
	 Reference Energy          =    -305.9220604198923184 [Eh]
	 Singles Energy            =      -0.0000000000000000 [Eh]
	 Same-Spin Energy          =      -0.3047239312180597 [Eh]
	 Opposite-Spin Energy      =      -0.9840183371475442 [Eh]
	 Correlation Energy        =      -1.2887422683656040 [Eh]
	 Total Energy              =    -307.2108026882578997 [Eh]

	 ================> DF-SCS-MP2 Energies <==================
	-----------------------------------------------------------
	 SCS Same-Spin Scale       =       0.3333333333333333 [-]
	 SCS Opposite-Spin Scale   =       1.2000000000000000 [-]
	 SCS Same-Spin Energy      =      -0.1015746437393532 [Eh]
	 SCS Opposite-Spin Energy  =      -1.1808220045770530 [Eh]
	 SCS Correlation Energy    =      -1.2823966483164062 [Eh]
	 SCS Total Energy          =    -307.2044570682087397 [Eh]
	-----------------------------------------------------------

  Dipole Moment: [D]
     X:    -0.4670      Y:    -0.1398      Z:    -0.0423     Total:     0.4893

*** Psi4 exiting successfully. Buy a developer a beer!
