                               Psi4 1.3.2 release

  ==> Input File <==

--------------------------------------------------------------------------
#psi4
#
memory 32 gb

molecule  {
0 1
  O        0.0328869     1.4731455    -0.2239872
  O        2.0546780    -0.2388480     0.3560180
  C       -0.2955110     0.1009390    -0.1081660
  C       -1.2626320    -0.4138420     0.9150900
  C       -1.6307620    -0.3904120    -0.5546590
  C        0.9536540    -0.6636150    -0.4527090
  H       -1.7417500     0.3211220     1.5538480
  H       -1.0582210    -1.3705490     1.3857280
  H       -1.6856880    -1.3325510    -1.0922370
  H       -2.3335820     0.3688280    -0.8792620
  H        1.1811620    -0.5295190    -1.5194400
  H        0.8172500    -1.7319370    -0.2626510
  H        0.3174590     1.7541820     0.6550680
  H        2.3334610     0.6171320    -0.0105960
units angstrom
no_reorient  #important for SAPT in psi4, default
symmetry c1  #important for SAPT in psi4, default
}

set PROPERTIES_ORIGIN ["COM"]
properties('MP2/aug-cc-pvtz', properties = ['dipole'])
--------------------------------------------------------------------------

    Molecular point group: c1
  Charge       = 0
  Multiplicity = 1
  Basis Set: AUG-CC-PVTZ
    Blend: AUG-CC-PVTZ
  Basis Set: (AUG-CC-PVTZ AUX)
    Blend: AUG-CC-PVTZ-JKFIT

    Orbital Energies [Eh]
    ---------------------

    Doubly Occupied:

       1A    -20.570151     2A    -20.559300     3A    -11.290199
       4A    -11.277059     5A    -11.235459     6A    -11.233412
       7A     -1.384820     8A     -1.347443     9A     -1.141907
      10A     -0.950344    11A     -0.839589    12A     -0.786842
      13A     -0.697144    14A     -0.696154    15A     -0.660682
      16A     -0.639403    17A     -0.587544    18A     -0.566114
      19A     -0.529236    20A     -0.516601    21A     -0.500661
      22A     -0.470089    23A     -0.413714    24A     -0.411901

  @DF-RHF Final Energy:  -305.92040904783084

   => Energetics <=

    Nuclear Repulsion Energy =            252.5505600432032054
    One-Electron Energy =                -918.3304024088450888
    Two-Electron Energy =                 359.8594333178110674
    Total Energy =                       -305.9204090478308444
  Basis Set: (AUG-CC-PVTZ AUX)
    Blend: AUG-CC-PVTZ-RI
    Molecular point group: c1

    Geometry (in Angstrom), charge = 0, multiplicity = 1:

       Center              X                  Y                   Z               Mass
    ------------   -----------------  -----------------  -----------------  -----------------
         O           -0.016862116075     1.457005822600    -0.218713350078    15.994914619570
         O            2.004928983925    -0.254987677400     0.361291849922    15.994914619570
         C           -0.345260016075     0.084799322600    -0.102892150078    12.000000000000
         C           -1.312381016075    -0.429981677400     0.920363849922    12.000000000000
         C           -1.680511016075    -0.406551677400    -0.549385150078    12.000000000000
         C            0.903904983925    -0.679754677400    -0.447435150078    12.000000000000
         H           -1.791499016075     0.304982322600     1.559121849922     1.007825032230
         H           -1.107970016075    -1.386688677400     1.391001849922     1.007825032230
         H           -1.735437016075    -1.348690677400    -1.086963150078     1.007825032230
         H           -2.383331016075     0.352688322600    -0.873988150078     1.007825032230
         H            1.131412983925    -0.545658677400    -1.514166150078     1.007825032230
         H            0.767500983925    -1.748076677400    -0.257377150078     1.007825032230
         H            0.267709983925     1.738042322600     0.660341849922     1.007825032230
         H            2.283711983925     0.600992322600    -0.005322150078     1.007825032230

  Basis Set: AUG-CC-PVTZ
    Blend: AUG-CC-PVTZ
  Basis Set: (AUG-CC-PVTZ AUX)
    Blend: AUG-CC-PVTZ-JKFIT
	 Reference Energy          =    -305.9204090478308444 [Eh]
	 Singles Energy            =      -0.0000000000000000 [Eh]
	 Same-Spin Energy          =      -0.3047079797712728 [Eh]
	 Opposite-Spin Energy      =      -0.9838753154014039 [Eh]
	 Correlation Energy        =      -1.2885832951726768 [Eh]
	 Total Energy              =    -307.2089923430035014 [Eh]

	 ================> DF-SCS-MP2 Energies <==================
	-----------------------------------------------------------
	 SCS Same-Spin Scale       =       0.3333333333333333 [-]
	 SCS Opposite-Spin Scale   =       1.2000000000000000 [-]
	 SCS Same-Spin Energy      =      -0.1015693265904243 [Eh]
	 SCS Opposite-Spin Energy  =      -1.1806503784816846 [Eh]
	 SCS Correlation Energy    =      -1.2822197050721089 [Eh]
	 SCS Total Energy          =    -307.2026287529029673 [Eh]
	-----------------------------------------------------------

  Dipole Moment: [D]
     X:    -0.8504      Y:    -0.0335      Z:     0.0796     Total:     0.8548

*** Psi4 exiting successfully. Buy a developer a beer!
