                               Psi4 1.3.2 release

  ==> Input File <==

--------------------------------------------------------------------------
#psi4
#
memory 32 gb

molecule  {
0 1
  O       -0.1070010     1.5019560    -0.1844920
  O        2.0546780    -0.2388480     0.3560180
  C       -0.3057434     0.1013086    -0.1306529
  C       -1.2626320    -0.4138420     0.9150900
  C       -1.6307620    -0.3904120    -0.5546590
  C        0.9536540    -0.6636150    -0.4527090
  H       -1.7417500     0.3211220     1.5538480
  H       -1.0582210    -1.3705490     1.3857280
  H       -1.6856880    -1.3325510    -1.0922370
  H       -2.3335820     0.3688280    -0.8792620
  H        1.1811620    -0.5295190    -1.5194400
  H        0.8172500    -1.7319370    -0.2626510
  H        0.3174590     1.7541820     0.6550680
  H        2.3334610     0.6171320    -0.0105960
units angstrom
no_reorient  #important for SAPT in psi4, default
symmetry c1  #important for SAPT in psi4, default
}

set PROPERTIES_ORIGIN ["COM"]
properties('MP2/aug-cc-pvtz', properties = ['dipole'])
--------------------------------------------------------------------------

    Molecular point group: c1
  Charge       = 0
  Multiplicity = 1
  Basis Set: AUG-CC-PVTZ
    Blend: AUG-CC-PVTZ
  Basis Set: (AUG-CC-PVTZ AUX)
    Blend: AUG-CC-PVTZ-JKFIT

    Orbital Energies [Eh]
    ---------------------

    Doubly Occupied:

       1A    -20.570295     2A    -20.565037     3A    -11.289861
       4A    -11.282399     5A    -11.232042     6A    -11.230195
       7A     -1.382222     8A     -1.352570     9A     -1.140143
      10A     -0.952237    11A     -0.838233    12A     -0.786199
      13A     -0.704000    14A     -0.693374    15A     -0.657640
      16A     -0.638039    17A     -0.589141    18A     -0.564844
      19A     -0.531652    20A     -0.519766    21A     -0.501509
      22A     -0.473435    23A     -0.421242    24A     -0.401426

  @DF-RHF Final Energy:  -305.92257922679579

   => Energetics <=

    Nuclear Repulsion Energy =            252.0456196434334402
    One-Electron Energy =                -917.3013957203140762
    Two-Electron Energy =                 359.3331968500849030
    Total Energy =                       -305.9225792267957900
  Basis Set: (AUG-CC-PVTZ AUX)
    Blend: AUG-CC-PVTZ-RI
    Molecular point group: c1

    Geometry (in Angstrom), charge = 0, multiplicity = 1:

       Center              X                  Y                   Z               Mass
    ------------   -----------------  -----------------  -----------------  -----------------
         O           -0.129944579469     1.480532462855    -0.183327969125    15.994914619570
         O            2.031734420531    -0.260271537145     0.357182030875    15.994914619570
         C           -0.328686979469     0.079885062855    -0.129488869125    12.000000000000
         C           -1.285575579469    -0.435265537145     0.916254030875    12.000000000000
         C           -1.653705579469    -0.411835537145    -0.553494969125    12.000000000000
         C            0.930710420531    -0.685038537145    -0.451544969125    12.000000000000
         H           -1.764693579469     0.299698462855     1.555012030875     1.007825032230
         H           -1.081164579469    -1.391972537145     1.386892030875     1.007825032230
         H           -1.708631579469    -1.353974537145    -1.091072969125     1.007825032230
         H           -2.356525579469     0.347404462855    -0.878097969125     1.007825032230
         H            1.158218420531    -0.550942537145    -1.518275969125     1.007825032230
         H            0.794306420531    -1.753360537145    -0.261486969125     1.007825032230
         H            0.294515420531     1.732758462855     0.656232030875     1.007825032230
         H            2.310517420531     0.595708462855    -0.009431969125     1.007825032230

  Basis Set: AUG-CC-PVTZ
    Blend: AUG-CC-PVTZ
  Basis Set: (AUG-CC-PVTZ AUX)
    Blend: AUG-CC-PVTZ-JKFIT
	 Reference Energy          =    -305.9225792267957900 [Eh]
	 Singles Energy            =      -0.0000000000000000 [Eh]
	 Same-Spin Energy          =      -0.3046995470701319 [Eh]
	 Opposite-Spin Energy      =      -0.9839256316177125 [Eh]
	 Correlation Energy        =      -1.2886251786878444 [Eh]
	 Total Energy              =    -307.2112044054836133 [Eh]

	 ================> DF-SCS-MP2 Energies <==================
	-----------------------------------------------------------
	 SCS Same-Spin Scale       =       0.3333333333333333 [-]
	 SCS Opposite-Spin Scale   =       1.2000000000000000 [-]
	 SCS Same-Spin Energy      =      -0.1015665156900440 [Eh]
	 SCS Opposite-Spin Energy  =      -1.1807107579412550 [Eh]
	 SCS Correlation Energy    =      -1.2822772736312991 [Eh]
	 SCS Total Energy          =    -307.2048565004270699 [Eh]
	-----------------------------------------------------------

  Dipole Moment: [D]
     X:    -0.4717      Y:    -0.1445      Z:    -0.0704     Total:     0.4983

*** Psi4 exiting successfully. Buy a developer a beer!
