                               Psi4 1.3.2 release

  ==> Input File <==

--------------------------------------------------------------------------
#psi4
#
memory 32 gb

molecule  {
0 1
  O       -0.1070010     1.5019560    -0.1844920
  O        2.0546780    -0.2388480     0.3560180
  C       -0.2955110     0.1009390    -0.1081660
  C       -1.2626320    -0.4138420     0.9150900
  C       -1.6307620    -0.3904120    -0.5546590
  C        0.9536540    -0.6636150    -0.4527090
  H       -1.7417500     0.3211220     1.5538480
  H       -1.0582210    -1.3705490     1.3857280
  H       -1.6856880    -1.3325510    -1.0922370
  H       -2.3335820     0.3688280    -0.8792620
  H        1.1811620    -0.5295190    -1.5194400
  H        0.8172500    -1.7319370    -0.2626510
  H        0.3174590     1.7541820     0.6550680
  H        2.3334610     0.6171320    -0.0105960
units angstrom
no_reorient  #important for SAPT in psi4, default
symmetry c1  #important for SAPT in psi4, default
}

set PROPERTIES_ORIGIN ["COM"]
properties('MP2/aug-cc-pvtz', properties = ['dipole'])
--------------------------------------------------------------------------

    Molecular point group: c1
  Charge       = 0
  Multiplicity = 1
  Basis Set: AUG-CC-PVTZ
    Blend: AUG-CC-PVTZ
  Basis Set: (AUG-CC-PVTZ AUX)
    Blend: AUG-CC-PVTZ-JKFIT

    Orbital Energies [Eh]
    ---------------------

    Doubly Occupied:

       1A    -20.570908     2A    -20.564436     3A    -11.289556
       4A    -11.282198     5A    -11.231667     6A    -11.230940
       7A     -1.382814     8A     -1.352639     9A     -1.138786
      10A     -0.952613    11A     -0.837692    12A     -0.785812
      13A     -0.702962    14A     -0.693382    15A     -0.657916
      16A     -0.638737    17A     -0.589028    18A     -0.566101
      19A     -0.531328    20A     -0.519689    21A     -0.501179
      22A     -0.473563    23A     -0.415526    24A     -0.406682

  @DF-RHF Final Energy:  -305.92280578099513

   => Energetics <=

    Nuclear Repulsion Energy =            252.0846935101519932
    One-Electron Energy =                -917.3826894787704305
    Two-Electron Energy =                 359.3751901876233319
    Total Energy =                       -305.9228057809951338
  Basis Set: (AUG-CC-PVTZ AUX)
    Blend: AUG-CC-PVTZ-RI
    Molecular point group: c1

    Geometry (in Angstrom), charge = 0, multiplicity = 1:

       Center              X                  Y                   Z               Mass
    ------------   -----------------  -----------------  -----------------  -----------------
         O           -0.131339075915     1.480582832845    -0.186392538740    15.994914619570
         O            2.030339924085    -0.260221167155     0.354117461260    15.994914619570
         C           -0.319849075915     0.079565832845    -0.110066538740    12.000000000000
         C           -1.286970075915    -0.435215167155     0.913189461260    12.000000000000
         C           -1.655100075915    -0.411785167155    -0.556559538740    12.000000000000
         C            0.929315924085    -0.684988167155    -0.454609538740    12.000000000000
         H           -1.766088075915     0.299748832845     1.551947461260     1.007825032230
         H           -1.082559075915    -1.391922167155     1.383827461260     1.007825032230
         H           -1.710026075915    -1.353924167155    -1.094137538740     1.007825032230
         H           -2.357920075915     0.347454832845    -0.881162538740     1.007825032230
         H            1.156823924085    -0.550892167155    -1.521340538740     1.007825032230
         H            0.792911924085    -1.753310167155    -0.264551538740     1.007825032230
         H            0.293120924085     1.732808832845     0.653167461260     1.007825032230
         H            2.309122924085     0.595758832845    -0.012496538740     1.007825032230

  Basis Set: AUG-CC-PVTZ
    Blend: AUG-CC-PVTZ
  Basis Set: (AUG-CC-PVTZ AUX)
    Blend: AUG-CC-PVTZ-JKFIT
	 Reference Energy          =    -305.9228057809951338 [Eh]
	 Singles Energy            =      -0.0000000000000000 [Eh]
	 Same-Spin Energy          =      -0.3047284042443254 [Eh]
	 Opposite-Spin Energy      =      -0.9840610868202462 [Eh]
	 Correlation Energy        =      -1.2887894910645716 [Eh]
	 Total Energy              =    -307.2115952720596965 [Eh]

	 ================> DF-SCS-MP2 Energies <==================
	-----------------------------------------------------------
	 SCS Same-Spin Scale       =       0.3333333333333333 [-]
	 SCS Opposite-Spin Scale   =       1.2000000000000000 [-]
	 SCS Same-Spin Energy      =      -0.1015761347481085 [Eh]
	 SCS Opposite-Spin Energy  =      -1.1808733041842954 [Eh]
	 SCS Correlation Energy    =      -1.2824494389324039 [Eh]
	 SCS Total Energy          =    -307.2052552199275510 [Eh]
	-----------------------------------------------------------

  Dipole Moment: [D]
     X:    -0.4638      Y:    -0.1437      Z:    -0.0391     Total:     0.4872

*** Psi4 exiting successfully. Buy a developer a beer!
