                               Psi4 1.3.2 release

  ==> Input File <==

--------------------------------------------------------------------------
#psi4
#
memory 32 gb

molecule  {
0 1
  O       -0.1070010     1.5019560    -0.1844920
  O        2.0546780    -0.2388480     0.3560180
  C       -0.2955110     0.1009390    -0.1081660
  C       -1.2626320    -0.4138420     0.9150900
  C       -1.6307620    -0.3904120    -0.5546590
  C        0.8706281    -0.6127988    -0.4298089
  H       -1.7417500     0.3211220     1.5538480
  H       -1.0582210    -1.3705490     1.3857280
  H       -1.6856880    -1.3325510    -1.0922370
  H       -2.3335820     0.3688280    -0.8792620
  H        1.1811620    -0.5295190    -1.5194400
  H        0.8172500    -1.7319370    -0.2626510
  H        0.3174590     1.7541820     0.6550680
  H        2.3334610     0.6171320    -0.0105960
units angstrom
no_reorient  #important for SAPT in psi4, default
symmetry c1  #important for SAPT in psi4, default
}

set PROPERTIES_ORIGIN ["COM"]
properties('MP2/aug-cc-pvtz', properties = ['dipole'])
--------------------------------------------------------------------------

    Molecular point group: c1
  Charge       = 0
  Multiplicity = 1
  Basis Set: AUG-CC-PVTZ
    Blend: AUG-CC-PVTZ
  Basis Set: (AUG-CC-PVTZ AUX)
    Blend: AUG-CC-PVTZ-JKFIT

    Orbital Energies [Eh]
    ---------------------

    Doubly Occupied:

       1A    -20.572227     2A    -20.560898     3A    -11.288147
       4A    -11.284479     5A    -11.235510     6A    -11.234551
       7A     -1.384502     8A     -1.341162     9A     -1.147754
      10A     -0.967045    11A     -0.841711    12A     -0.786820
      13A     -0.707652    14A     -0.689302    15A     -0.657588
      16A     -0.640451    17A     -0.575140    18A     -0.568558
      19A     -0.532204    20A     -0.520773    21A     -0.497094
      22A     -0.472837    23A     -0.425416    24A     -0.407155

  @DF-RHF Final Energy:  -305.90968688390296

   => Energetics <=

    Nuclear Repulsion Energy =            253.3077590865795230
    One-Electron Energy =                -919.7569405238779154
    Two-Electron Energy =                 360.5394945533954569
    Total Energy =                       -305.9096868839029639
  Basis Set: (AUG-CC-PVTZ AUX)
    Blend: AUG-CC-PVTZ-RI
    Molecular point group: c1

    Geometry (in Angstrom), charge = 0, multiplicity = 1:

       Center              X                  Y                   Z               Mass
    ------------   -----------------  -----------------  -----------------  -----------------
         O           -0.120024103623     1.473657477083    -0.189513420260    15.994914619570
         O            2.041654896377    -0.267146522917     0.350996579740    15.994914619570
         C           -0.308534103623     0.072640477083    -0.113187420260    12.000000000000
         C           -1.275655103623    -0.442140522917     0.910068579740    12.000000000000
         C           -1.643785103623    -0.418710522917    -0.559680420260    12.000000000000
         C            0.857604996377    -0.641097322917    -0.434830320260    12.000000000000
         H           -1.754773103623     0.292823477083     1.548826579740     1.007825032230
         H           -1.071244103623    -1.398847522917     1.380706579740     1.007825032230
         H           -1.698711103623    -1.360849522917    -1.097258420260     1.007825032230
         H           -2.346605103623     0.340529477083    -0.884283420260     1.007825032230
         H            1.168138896377    -0.557817522917    -1.524461420260     1.007825032230
         H            0.804226896377    -1.760235522917    -0.267672420260     1.007825032230
         H            0.304435896377     1.725883477083     0.650046579740     1.007825032230
         H            2.320437896377     0.588833477083    -0.015617420260     1.007825032230

  Basis Set: AUG-CC-PVTZ
    Blend: AUG-CC-PVTZ
  Basis Set: (AUG-CC-PVTZ AUX)
    Blend: AUG-CC-PVTZ-JKFIT
	 Reference Energy          =    -305.9096868839029639 [Eh]
	 Singles Energy            =      -0.0000000000000000 [Eh]
	 Same-Spin Energy          =      -0.3060188413987767 [Eh]
	 Opposite-Spin Energy      =      -0.9863156253586254 [Eh]
	 Correlation Energy        =      -1.2923344667574019 [Eh]
	 Total Energy              =    -307.2020213506603454 [Eh]

	 ================> DF-SCS-MP2 Energies <==================
	-----------------------------------------------------------
	 SCS Same-Spin Scale       =       0.3333333333333333 [-]
	 SCS Opposite-Spin Scale   =       1.2000000000000000 [-]
	 SCS Same-Spin Energy      =      -0.1020062804662589 [Eh]
	 SCS Opposite-Spin Energy  =      -1.1835787504303503 [Eh]
	 SCS Correlation Energy    =      -1.2855850308966092 [Eh]
	 SCS Total Energy          =    -307.1952719147995481 [Eh]
	-----------------------------------------------------------

  Dipole Moment: [D]
     X:    -0.7367      Y:    -0.1383      Z:    -0.0167     Total:     0.7497

*** Psi4 exiting successfully. Buy a developer a beer!
