                               Psi4 1.3.2 release

  ==> Input File <==

--------------------------------------------------------------------------
#psi4
#
memory 32 gb

molecule  {
0 1
  O       -0.1070010     1.5019560    -0.1844920
  O        2.0546780    -0.2388480     0.3560180
  C       -0.2330207     0.1076782     0.0260283
  C       -1.2626320    -0.4138420     0.9150900
  C       -1.6307620    -0.3904120    -0.5546590
  C        0.9536540    -0.6636150    -0.4527090
  H       -1.7417500     0.3211220     1.5538480
  H       -1.0582210    -1.3705490     1.3857280
  H       -1.6856880    -1.3325510    -1.0922370
  H       -2.3335820     0.3688280    -0.8792620
  H        1.1811620    -0.5295190    -1.5194400
  H        0.8172500    -1.7319370    -0.2626510
  H        0.3174590     1.7541820     0.6550680
  H        2.3334610     0.6171320    -0.0105960
units angstrom
no_reorient  #important for SAPT in psi4, default
symmetry c1  #important for SAPT in psi4, default
}

set PROPERTIES_ORIGIN ["COM"]
properties('MP2/aug-cc-pvtz', properties = ['dipole'])
--------------------------------------------------------------------------

    Molecular point group: c1
  Charge       = 0
  Multiplicity = 1
  Basis Set: AUG-CC-PVTZ
    Blend: AUG-CC-PVTZ
  Basis Set: (AUG-CC-PVTZ AUX)
    Blend: AUG-CC-PVTZ-JKFIT

    Orbital Energies [Eh]
    ---------------------

    Doubly Occupied:

       1A    -20.576107     2A    -20.561309     3A    -11.292313
       4A    -11.283078     5A    -11.238888     6A    -11.225659
       7A     -1.387941     8A     -1.353998     9A     -1.130514
      10A     -0.953199    11A     -0.835192    12A     -0.783929
      13A     -0.697221    14A     -0.694275    15A     -0.658585
      16A     -0.643725    17A     -0.588225    18A     -0.573322
      19A     -0.530858    20A     -0.518774    21A     -0.500365
      22A     -0.476298    23A     -0.433567    24A     -0.376360

  @DF-RHF Final Energy:  -305.90676835056991

   => Energetics <=

    Nuclear Repulsion Energy =            252.1065559435658372
    One-Electron Energy =                -917.3992449955458142
    Two-Electron Energy =                 359.3859207014101003
    Total Energy =                       -305.9067683505699051
  Basis Set: (AUG-CC-PVTZ AUX)
    Blend: AUG-CC-PVTZ-RI
    Molecular point group: c1

    Geometry (in Angstrom), charge = 0, multiplicity = 1:

       Center              X                  Y                   Z               Mass
    ------------   -----------------  -----------------  -----------------  -----------------
         O           -0.139855406519     1.479664398221    -0.204680865470    15.994914619570
         O            2.021823593481    -0.261139601779     0.335829134530    15.994914619570
         C           -0.265875106519     0.085386598221     0.005839434530    12.000000000000
         C           -1.295486406519    -0.436133601779     0.894901134530    12.000000000000
         C           -1.663616406519    -0.412703601779    -0.574847865470    12.000000000000
         C            0.920799593481    -0.685906601779    -0.472897865470    12.000000000000
         H           -1.774604406519     0.298830398221     1.533659134530     1.007825032230
         H           -1.091075406519    -1.392840601779     1.365539134530     1.007825032230
         H           -1.718542406519    -1.354842601779    -1.112425865470     1.007825032230
         H           -2.366436406519     0.346536398221    -0.899450865470     1.007825032230
         H            1.148307593481    -0.551810601779    -1.539628865470     1.007825032230
         H            0.784395593481    -1.754228601779    -0.282839865470     1.007825032230
         H            0.284604593481     1.731890398221     0.634879134530     1.007825032230
         H            2.300606593481     0.594840398221    -0.030784865470     1.007825032230

  Basis Set: AUG-CC-PVTZ
    Blend: AUG-CC-PVTZ
  Basis Set: (AUG-CC-PVTZ AUX)
    Blend: AUG-CC-PVTZ-JKFIT
	 Reference Energy          =    -305.9067683505699051 [Eh]
	 Singles Energy            =      -0.0000000000000000 [Eh]
	 Same-Spin Energy          =      -0.3057187545183291 [Eh]
	 Opposite-Spin Energy      =      -0.9865907994105018 [Eh]
	 Correlation Energy        =      -1.2923095539288310 [Eh]
	 Total Energy              =    -307.1990779044987221 [Eh]

	 ================> DF-SCS-MP2 Energies <==================
	-----------------------------------------------------------
	 SCS Same-Spin Scale       =       0.3333333333333333 [-]
	 SCS Opposite-Spin Scale   =       1.2000000000000000 [-]
	 SCS Same-Spin Energy      =      -0.1019062515061097 [Eh]
	 SCS Opposite-Spin Energy  =      -1.1839089592926020 [Eh]
	 SCS Correlation Energy    =      -1.2858152107987117 [Eh]
	 SCS Total Energy          =    -307.1925835613686218 [Eh]
	-----------------------------------------------------------

  Dipole Moment: [D]
     X:    -0.3736      Y:    -0.0994      Z:     0.1262     Total:     0.4066

*** Psi4 exiting successfully. Buy a developer a beer!
