                               Psi4 1.3.2 release

  ==> Input File <==

--------------------------------------------------------------------------
#psi4
#
memory 32 gb

molecule  {
0 1
  O       -0.1070010     1.5019560    -0.1844920
  O        2.0546780    -0.2388480     0.3560180
  C       -0.3001325     0.1452404    -0.2592197
  C       -1.2626320    -0.4138420     0.9150900
  C       -1.6307620    -0.3904120    -0.5546590
  C        0.9536540    -0.6636150    -0.4527090
  H       -1.7417500     0.3211220     1.5538480
  H       -1.0582210    -1.3705490     1.3857280
  H       -1.6856880    -1.3325510    -1.0922370
  H       -2.3335820     0.3688280    -0.8792620
  H        1.1811620    -0.5295190    -1.5194400
  H        0.8172500    -1.7319370    -0.2626510
  H        0.3174590     1.7541820     0.6550680
  H        2.3334610     0.6171320    -0.0105960
units angstrom
no_reorient  #important for SAPT in psi4, default
symmetry c1  #important for SAPT in psi4, default
}

set PROPERTIES_ORIGIN ["COM"]
properties('MP2/aug-cc-pvtz', properties = ['dipole'])
--------------------------------------------------------------------------

    Molecular point group: c1
  Charge       = 0
  Multiplicity = 1
  Basis Set: AUG-CC-PVTZ
    Blend: AUG-CC-PVTZ
  Basis Set: (AUG-CC-PVTZ AUX)
    Blend: AUG-CC-PVTZ-JKFIT

    Orbital Energies [Eh]
    ---------------------

    Doubly Occupied:

       1A    -20.574037     2A    -20.567200     3A    -11.296130
       4A    -11.282956     5A    -11.238103     6A    -11.223560
       7A     -1.395165     8A     -1.356849     9A     -1.125175
      10A     -0.954180    11A     -0.835398    12A     -0.796244
      13A     -0.713676    14A     -0.691870    15A     -0.654229
      16A     -0.637745    17A     -0.586477    18A     -0.570259
      19A     -0.535905    20A     -0.520246    21A     -0.509190
      22A     -0.475105    23A     -0.434796    24A     -0.360622

  @DF-RHF Final Energy:  -305.90807649724678

   => Energetics <=

    Nuclear Repulsion Energy =            251.6827323168268720
    One-Electron Energy =                -916.5113867201578159
    Two-Electron Energy =                 358.9205779060841337
    Total Energy =                       -305.9080764972467819
  Basis Set: (AUG-CC-PVTZ AUX)
    Blend: AUG-CC-PVTZ-RI
    Molecular point group: c1

    Geometry (in Angstrom), charge = 0, multiplicity = 1:

       Center              X                  Y                   Z               Mass
    ------------   -----------------  -----------------  -----------------  -----------------
         O           -0.130709246616     1.474545329927    -0.165806571830    15.994914619570
         O            2.030969753384    -0.266258670073     0.374703428170    15.994914619570
         C           -0.323840746616     0.117829729927    -0.240534271830    12.000000000000
         C           -1.286340246616    -0.441252670073     0.933775428170    12.000000000000
         C           -1.654470246616    -0.417822670073    -0.535973571830    12.000000000000
         C            0.929945753384    -0.691025670073    -0.434023571830    12.000000000000
         H           -1.765458246616     0.293711329927     1.572533428170     1.007825032230
         H           -1.081929246616    -1.397959670073     1.404413428170     1.007825032230
         H           -1.709396246616    -1.359961670073    -1.073551571830     1.007825032230
         H           -2.357290246616     0.341417329927    -0.860576571830     1.007825032230
         H            1.157453753384    -0.556929670073    -1.500754571830     1.007825032230
         H            0.793541753384    -1.759347670073    -0.243965571830     1.007825032230
         H            0.293750753384     1.726771329927     0.673753428170     1.007825032230
         H            2.309752753384     0.589721329927     0.008089428170     1.007825032230

  Basis Set: AUG-CC-PVTZ
    Blend: AUG-CC-PVTZ
  Basis Set: (AUG-CC-PVTZ AUX)
    Blend: AUG-CC-PVTZ-JKFIT
	 Reference Energy          =    -305.9080764972467819 [Eh]
	 Singles Energy            =      -0.0000000000000000 [Eh]
	 Same-Spin Energy          =      -0.3051784424615033 [Eh]
	 Opposite-Spin Energy      =      -0.9846527253555765 [Eh]
	 Correlation Energy        =      -1.2898311678170797 [Eh]
	 Total Energy              =    -307.1979076650638376 [Eh]

	 ================> DF-SCS-MP2 Energies <==================
	-----------------------------------------------------------
	 SCS Same-Spin Scale       =       0.3333333333333333 [-]
	 SCS Opposite-Spin Scale   =       1.2000000000000000 [-]
	 SCS Same-Spin Energy      =      -0.1017261474871678 [Eh]
	 SCS Opposite-Spin Energy  =      -1.1815832704266918 [Eh]
	 SCS Correlation Energy    =      -1.2833094179138596 [Eh]
	 SCS Total Energy          =    -307.1913859151606516 [Eh]
	-----------------------------------------------------------

  Dipole Moment: [D]
     X:    -0.3965      Y:     0.0262      Z:    -0.2547     Total:     0.4720

*** Psi4 exiting successfully. Buy a developer a beer!
