                               Psi4 1.3.2 release

  ==> Input File <==

--------------------------------------------------------------------------
#psi4
#
memory 32 gb

molecule  {
0 1
  O       -0.1070010     1.5019560    -0.1844920
  O        2.0546780    -0.2388480     0.3560180
  C       -0.2955110     0.1009390    -0.1081660
  C       -1.2923957    -0.3715963     0.9068742
  C       -1.6307620    -0.3904120    -0.5546590
  C        0.9536540    -0.6636150    -0.4527090
  H       -1.7417500     0.3211220     1.5538480
  H       -1.0582210    -1.3705490     1.3857280
  H       -1.6856880    -1.3325510    -1.0922370
  H       -2.3335820     0.3688280    -0.8792620
  H        1.1811620    -0.5295190    -1.5194400
  H        0.8172500    -1.7319370    -0.2626510
  H        0.3174590     1.7541820     0.6550680
  H        2.3334610     0.6171320    -0.0105960
units angstrom
no_reorient  #important for SAPT in psi4, default
symmetry c1  #important for SAPT in psi4, default
}

set PROPERTIES_ORIGIN ["COM"]
properties('MP2/aug-cc-pvtz', properties = ['dipole'])
--------------------------------------------------------------------------

    Molecular point group: c1
  Charge       = 0
  Multiplicity = 1
  Basis Set: AUG-CC-PVTZ
    Blend: AUG-CC-PVTZ
  Basis Set: (AUG-CC-PVTZ AUX)
    Blend: AUG-CC-PVTZ-JKFIT

    Orbital Energies [Eh]
    ---------------------

    Doubly Occupied:

       1A    -20.569508     2A    -20.564426     3A    -11.288800
       4A    -11.283044     5A    -11.231743     6A    -11.230729
       7A     -1.382445     8A     -1.352527     9A     -1.140571
      10A     -0.954126    11A     -0.836599    12A     -0.785703
      13A     -0.703526    14A     -0.695512    15A     -0.657365
      16A     -0.635164    17A     -0.591399    18A     -0.566477
      19A     -0.530399    20A     -0.519876    21A     -0.498734
      22A     -0.475385    23A     -0.416186    24A     -0.405562

  @DF-RHF Final Energy:  -305.91973708998921

   => Energetics <=

    Nuclear Repulsion Energy =            252.1563686904819690
    One-Electron Energy =                -917.5206037977353617
    Two-Electron Energy =                 359.4444980172642090
    Total Energy =                       -305.9197370899892121
  Basis Set: (AUG-CC-PVTZ AUX)
    Blend: AUG-CC-PVTZ-RI
    Molecular point group: c1

    Geometry (in Angstrom), charge = 0, multiplicity = 1:

       Center              X                  Y                   Z               Mass
    ------------   -----------------  -----------------  -----------------  -----------------
         O           -0.127282806236     1.474825485740    -0.185272869464    15.994914619570
         O            2.034396193764    -0.265978514260     0.355237130536    15.994914619570
         C           -0.315792806236     0.073808485740    -0.108946869464    12.000000000000
         C           -1.312677506236    -0.398726814260     0.906093330536    12.000000000000
         C           -1.651043806236    -0.417542514260    -0.555439869464    12.000000000000
         C            0.933372193764    -0.690745514260    -0.453489869464    12.000000000000
         H           -1.762031806236     0.293991485740     1.553067130536     1.007825032230
         H           -1.078502806236    -1.397679514260     1.384947130536     1.007825032230
         H           -1.705969806236    -1.359681514260    -1.093017869464     1.007825032230
         H           -2.353863806236     0.341697485740    -0.880042869464     1.007825032230
         H            1.160880193764    -0.556649514260    -1.520220869464     1.007825032230
         H            0.796968193764    -1.759067514260    -0.263431869464     1.007825032230
         H            0.297177193764     1.727051485740     0.654287130536     1.007825032230
         H            2.313179193764     0.590001485740    -0.011376869464     1.007825032230

  Basis Set: AUG-CC-PVTZ
    Blend: AUG-CC-PVTZ
  Basis Set: (AUG-CC-PVTZ AUX)
    Blend: AUG-CC-PVTZ-JKFIT
	 Reference Energy          =    -305.9197370899892121 [Eh]
	 Singles Energy            =      -0.0000000000000000 [Eh]
	 Same-Spin Energy          =      -0.3047437046549054 [Eh]
	 Opposite-Spin Energy      =      -0.9840579532477491 [Eh]
	 Correlation Energy        =      -1.2888016579026544 [Eh]
	 Total Energy              =    -307.2085387478918506 [Eh]

	 ================> DF-SCS-MP2 Energies <==================
	-----------------------------------------------------------
	 SCS Same-Spin Scale       =       0.3333333333333333 [-]
	 SCS Opposite-Spin Scale   =       1.2000000000000000 [-]
	 SCS Same-Spin Energy      =      -0.1015812348849685 [Eh]
	 SCS Opposite-Spin Energy  =      -1.1808695438972989 [Eh]
	 SCS Correlation Energy    =      -1.2824507787822674 [Eh]
	 SCS Total Energy          =    -307.2021878687714889 [Eh]
	-----------------------------------------------------------

  Dipole Moment: [D]
     X:    -0.4693      Y:    -0.1343      Z:    -0.0489     Total:     0.4905

*** Psi4 exiting successfully. Buy a developer a beer!
