                               Psi4 1.3.2 release

  ==> Input File <==

--------------------------------------------------------------------------
#psi4
#
memory 32 gb

molecule  {
0 1
  O       -0.1070010     1.5019560    -0.1844920
  O        2.0546780    -0.2388480     0.3560180
  C       -0.2848173     0.0667172    -0.0094600
  C       -1.2626320    -0.4138420     0.9150900
  C       -1.6307620    -0.3904120    -0.5546590
  C        0.9536540    -0.6636150    -0.4527090
  H       -1.7417500     0.3211220     1.5538480
  H       -1.0582210    -1.3705490     1.3857280
  H       -1.6856880    -1.3325510    -1.0922370
  H       -2.3335820     0.3688280    -0.8792620
  H        1.1811620    -0.5295190    -1.5194400
  H        0.8172500    -1.7319370    -0.2626510
  H        0.3174590     1.7541820     0.6550680
  H        2.3334610     0.6171320    -0.0105960
units angstrom
no_reorient  #important for SAPT in psi4, default
symmetry c1  #important for SAPT in psi4, default
}

set PROPERTIES_ORIGIN ["COM"]
properties('MP2/aug-cc-pvtz', properties = ['dipole'])
--------------------------------------------------------------------------

    Molecular point group: c1
  Charge       = 0
  Multiplicity = 1
  Basis Set: AUG-CC-PVTZ
    Blend: AUG-CC-PVTZ
  Basis Set: (AUG-CC-PVTZ AUX)
    Blend: AUG-CC-PVTZ-JKFIT

    Orbital Energies [Eh]
    ---------------------

    Doubly Occupied:

       1A    -20.569132     2A    -20.563285     3A    -11.290074
       4A    -11.284162     5A    -11.235871     6A    -11.227664
       7A     -1.375563     8A     -1.347767     9A     -1.148328
      10A     -0.953298    11A     -0.840679    12A     -0.779432
      13A     -0.696922    14A     -0.693778    15A     -0.660387
      16A     -0.638523    17A     -0.591051    18A     -0.561547
      19A     -0.529594    20A     -0.519024    21A     -0.495738
      22A     -0.473675    23A     -0.435148    24A     -0.397644

  @DF-RHF Final Energy:  -305.91327471272456

   => Energetics <=

    Nuclear Repulsion Energy =            252.1224109817539158
    One-Electron Energy =                -917.4548039082716286
    Two-Electron Energy =                 359.4191182137931833
    Total Energy =                       -305.9132747127245580
  Basis Set: (AUG-CC-PVTZ AUX)
    Blend: AUG-CC-PVTZ-RI
    Molecular point group: c1

    Geometry (in Angstrom), charge = 0, multiplicity = 1:

       Center              X                  Y                   Z               Mass
    ------------   -----------------  -----------------  -----------------  -----------------
         O           -0.132796439451     1.485246663273    -0.199844433330    15.994914619570
         O            2.028882560549    -0.255557336727     0.340665566670    15.994914619570
         C           -0.310612739451     0.050007863273    -0.024812433330    12.000000000000
         C           -1.288427439451    -0.430551336727     0.899737566670    12.000000000000
         C           -1.656557439451    -0.407121336727    -0.570011433330    12.000000000000
         C            0.927858560549    -0.680324336727    -0.468061433330    12.000000000000
         H           -1.767545439451     0.304412663273     1.538495566670     1.007825032230
         H           -1.084016439451    -1.387258336727     1.370375566670     1.007825032230
         H           -1.711483439451    -1.349260336727    -1.107589433330     1.007825032230
         H           -2.359377439451     0.352118663273    -0.894614433330     1.007825032230
         H            1.155366560549    -0.546228336727    -1.534792433330     1.007825032230
         H            0.791454560549    -1.748646336727    -0.278003433330     1.007825032230
         H            0.291663560549     1.737472663273     0.639715566670     1.007825032230
         H            2.307665560549     0.600422663273    -0.025948433330     1.007825032230

  Basis Set: AUG-CC-PVTZ
    Blend: AUG-CC-PVTZ
  Basis Set: (AUG-CC-PVTZ AUX)
    Blend: AUG-CC-PVTZ-JKFIT
	 Reference Energy          =    -305.9132747127245580 [Eh]
	 Singles Energy            =      -0.0000000000000000 [Eh]
	 Same-Spin Energy          =      -0.3053788407556102 [Eh]
	 Opposite-Spin Energy      =      -0.9857639129091522 [Eh]
	 Correlation Energy        =      -1.2911427536647624 [Eh]
	 Total Energy              =    -307.2044174663893159 [Eh]

	 ================> DF-SCS-MP2 Energies <==================
	-----------------------------------------------------------
	 SCS Same-Spin Scale       =       0.3333333333333333 [-]
	 SCS Opposite-Spin Scale   =       1.2000000000000000 [-]
	 SCS Same-Spin Energy      =      -0.1017929469185367 [Eh]
	 SCS Opposite-Spin Energy  =      -1.1829166954909827 [Eh]
	 SCS Correlation Energy    =      -1.2847096424095195 [Eh]
	 SCS Total Energy          =    -307.1979843551340537 [Eh]
	-----------------------------------------------------------

  Dipole Moment: [D]
     X:    -0.4578      Y:    -0.2453      Z:     0.0922     Total:     0.5275

*** Psi4 exiting successfully. Buy a developer a beer!
