                               Psi4 1.4a3.dev225

  ==> Input File <==

--------------------------------------------------------------------------
#psi4
#
memory 32 gb

molecule  {
0 1
  O       -0.1070010     1.5019560    -0.1844920
  O        2.0546780    -0.2388480     0.3560180
  C       -0.2955110     0.1009390    -0.1081660
  C       -1.2626320    -0.4138420     0.9150900
  C       -1.6307620    -0.3904120    -0.5546590
  C        0.9702592    -0.6737782    -0.4572890
  H       -1.7417500     0.3211220     1.5538480
  H       -1.0582210    -1.3705490     1.3857280
  H       -1.6856880    -1.3325510    -1.0922370
  H       -2.3335820     0.3688280    -0.8792620
  H        1.1811620    -0.5295190    -1.5194400
  H        0.8172500    -1.7319370    -0.2626510
  H        0.3174590     1.7541820     0.6550680
  H        2.3334610     0.6171320    -0.0105960
units angstrom
no_reorient  #important for SAPT in psi4, default
symmetry c1  #important for SAPT in psi4, default
}

set PROPERTIES_ORIGIN ["COM"]
properties('MP2/aug-cc-pvtz', properties = ['dipole'])
--------------------------------------------------------------------------

    Molecular point group: c1
  Charge       = 0
  Multiplicity = 1
  Basis Set: AUG-CC-PVTZ
    Blend: AUG-CC-PVTZ
  Basis Set: (AUG-CC-PVTZ AUX)
    Blend: AUG-CC-PVTZ-JKFIT

    Orbital Energies [Eh]
    ---------------------

    Doubly Occupied:

       1A    -20.570665     2A    -20.565158     3A    -11.289586
       4A    -11.281965     5A    -11.231041     6A    -11.230202
       7A     -1.382875     8A     -1.354556     9A     -1.137249
      10A     -0.950481    11A     -0.836950    12A     -0.785364
      13A     -0.703032    14A     -0.693873    15A     -0.657500
      16A     -0.638461    17A     -0.592056    18A     -0.565647
      19A     -0.531349    20A     -0.519386    21A     -0.501936
      22A     -0.473262    23A     -0.413848    24A     -0.405339

  @DF-RHF Final Energy:  -305.92278554574369

   => Energetics <=

    Nuclear Repulsion Energy =            251.8507120281738878
    One-Electron Energy =                -916.9234300300400946
    Two-Electron Energy =                 359.1499324561224853
    Total Energy =                       -305.9227855457436931
  Basis Set: (AUG-CC-PVTZ AUX)
    Blend: AUG-CC-PVTZ-RI
    Molecular point group: c1

    Geometry (in Angstrom), charge = 0, multiplicity = 1:

       Center              X                  Y                   Z               Mass
    ------------   -----------------  -----------------  -----------------  -----------------
         O           -0.133602073100     1.481967898546    -0.185768365162    15.994914619570
         O            2.028076926900    -0.258836101454     0.354741634838    15.994914619570
         C           -0.322112073100     0.080950898546    -0.109442365162    12.000000000000
         C           -1.289233073100    -0.433830101454     0.913813634838    12.000000000000
         C           -1.657363073100    -0.410400101454    -0.555935365162    12.000000000000
         C            0.943658126900    -0.693766301454    -0.458565365162    12.000000000000
         H           -1.768351073100     0.301133898546     1.552571634838     1.007825032230
         H           -1.084822073100    -1.390537101454     1.384451634838     1.007825032230
         H           -1.712289073100    -1.352539101454    -1.093513365162     1.007825032230
         H           -2.360183073100     0.348839898546    -0.880538365162     1.007825032230
         H            1.154560926900    -0.549507101454    -1.520716365162     1.007825032230
         H            0.790648926900    -1.751925101454    -0.263927365162     1.007825032230
         H            0.290857926900     1.734193898546     0.653791634838     1.007825032230
         H            2.306859926900     0.597143898546    -0.011872365162     1.007825032230

  Basis Set: AUG-CC-PVTZ
    Blend: AUG-CC-PVTZ
  Basis Set: (AUG-CC-PVTZ AUX)
    Blend: AUG-CC-PVTZ-JKFIT
	 Reference Energy          =    -305.9227855457436931 [Eh]
	 Singles Energy            =      -0.0000000000000000 [Eh]
	 Same-Spin Energy          =      -0.3045947524023924 [Eh]
	 Opposite-Spin Energy      =      -0.9838218030325223 [Eh]
	 Correlation Energy        =      -1.2884165554349147 [Eh]
	 Total Energy              =    -307.2112021011786283 [Eh]

	 ================> DF-SCS-MP2 Energies <==================
	-----------------------------------------------------------
	 SCS Same-Spin Scale       =       0.3333333333333333 [-]
	 SCS Opposite-Spin Scale   =       1.2000000000000000 [-]
	 SCS Same-Spin Energy      =      -0.1015315841341308 [Eh]
	 SCS Opposite-Spin Energy  =      -1.1805861636390267 [Eh]
	 SCS Correlation Energy    =      -1.2821177477731576 [Eh]
	 SCS Total Energy          =    -307.2049032935168498 [Eh]
	-----------------------------------------------------------

  Dipole Moment: [D]
     X:    -0.4113      Y:    -0.1442      Z:    -0.0421     Total:     0.4379

*** Psi4 exiting successfully. Buy a developer a beer!
