                               Psi4 1.3.2 release

  ==> Input File <==

--------------------------------------------------------------------------
#psi4
#
memory 32 gb

molecule  {
0 1
  O       -0.2489543     1.5154167    -0.1441605
  O        2.0546780    -0.2388480     0.3560180
  C       -0.2955110     0.1009390    -0.1081660
  C       -1.2626320    -0.4138420     0.9150900
  C       -1.6307620    -0.3904120    -0.5546590
  C        0.9536540    -0.6636150    -0.4527090
  H       -1.7417500     0.3211220     1.5538480
  H       -1.0582210    -1.3705490     1.3857280
  H       -1.6856880    -1.3325510    -1.0922370
  H       -2.3335820     0.3688280    -0.8792620
  H        1.1811620    -0.5295190    -1.5194400
  H        0.8172500    -1.7319370    -0.2626510
  H        0.3174590     1.7541820     0.6550680
  H        2.3334610     0.6171320    -0.0105960
units angstrom
no_reorient  #important for SAPT in psi4, default
symmetry c1  #important for SAPT in psi4, default
}

set PROPERTIES_ORIGIN ["COM"]
properties('MP2/aug-cc-pvtz', properties = ['dipole'])
--------------------------------------------------------------------------

    Molecular point group: c1
  Charge       = 0
  Multiplicity = 1
  Basis Set: AUG-CC-PVTZ
    Blend: AUG-CC-PVTZ
  Basis Set: (AUG-CC-PVTZ AUX)
    Blend: AUG-CC-PVTZ-JKFIT

    Orbital Energies [Eh]
    ---------------------

    Doubly Occupied:

       1A    -20.574506     2A    -20.568876     3A    -11.288499
       4A    -11.287323     5A    -11.228391     6A    -11.227276
       7A     -1.379815     8A     -1.355483     9A     -1.134075
      10A     -0.955063    11A     -0.835391    12A     -0.781260
      13A     -0.707053    14A     -0.691321    15A     -0.653462
      16A     -0.634434    17A     -0.590489    18A     -0.567375
      19A     -0.535387    20A     -0.519389    21A     -0.501204
      22A     -0.476472    23A     -0.415605    24A     -0.400625

  @DF-RHF Final Energy:  -305.91695499004845

   => Energetics <=

    Nuclear Repulsion Energy =            251.7429183105012669
    One-Electron Energy =                -916.7021997394846267
    Two-Electron Energy =                 359.0423264389348788
    Total Energy =                       -305.9169549900484526
  Basis Set: (AUG-CC-PVTZ AUX)
    Blend: AUG-CC-PVTZ-RI
    Molecular point group: c1

    Geometry (in Angstrom), charge = 0, multiplicity = 1:

       Center              X                  Y                   Z               Mass
    ------------   -----------------  -----------------  -----------------  -----------------
         O           -0.247506251371     1.491598367522    -0.153387343110    15.994914619570
         O            2.056126048629    -0.262666332478     0.346791156890    15.994914619570
         C           -0.294062951371     0.077120667522    -0.117392843110    12.000000000000
         C           -1.261183951371    -0.437660332478     0.905863156890    12.000000000000
         C           -1.629313951371    -0.414230332478    -0.563885843110    12.000000000000
         C            0.955102048629    -0.687433332478    -0.461935843110    12.000000000000
         H           -1.740301951371     0.297303667522     1.544621156890     1.007825032230
         H           -1.056772951371    -1.394367332478     1.376501156890     1.007825032230
         H           -1.684239951371    -1.356369332478    -1.101463843110     1.007825032230
         H           -2.332133951371     0.345009667522    -0.888488843110     1.007825032230
         H            1.182610048629    -0.553337332478    -1.528666843110     1.007825032230
         H            0.818698048629    -1.755755332478    -0.271877843110     1.007825032230
         H            0.318907048629     1.730363667522     0.645841156890     1.007825032230
         H            2.334909048629     0.593313667522    -0.019822843110     1.007825032230

  Basis Set: AUG-CC-PVTZ
    Blend: AUG-CC-PVTZ
  Basis Set: (AUG-CC-PVTZ AUX)
    Blend: AUG-CC-PVTZ-JKFIT
	 Reference Energy          =    -305.9169549900484526 [Eh]
	 Singles Energy            =      -0.0000000000000000 [Eh]
	 Same-Spin Energy          =      -0.3054026190904281 [Eh]
	 Opposite-Spin Energy      =      -0.9856731323284844 [Eh]
	 Correlation Energy        =      -1.2910757514189126 [Eh]
	 Total Energy              =    -307.2080307414673825 [Eh]

	 ================> DF-SCS-MP2 Energies <==================
	-----------------------------------------------------------
	 SCS Same-Spin Scale       =       0.3333333333333333 [-]
	 SCS Opposite-Spin Scale   =       1.2000000000000000 [-]
	 SCS Same-Spin Energy      =      -0.1018008730301427 [Eh]
	 SCS Opposite-Spin Energy  =      -1.1828077587941812 [Eh]
	 SCS Correlation Energy    =      -1.2846086318243239 [Eh]
	 SCS Total Energy          =    -307.2015636218727650 [Eh]
	-----------------------------------------------------------

  Dipole Moment: [D]
     X:    -0.0822      Y:    -0.1904      Z:    -0.1782     Total:     0.2734

*** Psi4 exiting successfully. Buy a developer a beer!
