                               Psi4 1.3.2 release

  ==> Input File <==

--------------------------------------------------------------------------
#psi4
#
memory 32 gb

molecule  {
0 1
  O       -0.1070010     1.5019560    -0.1844920
  O        2.0546780    -0.2388480     0.3560180
  C       -0.2955110     0.1009390    -0.1081660
  C       -1.3209449    -0.3287748     0.8974217
  C       -1.6307620    -0.3904120    -0.5546590
  C        0.9536540    -0.6636150    -0.4527090
  H       -1.7417500     0.3211220     1.5538480
  H       -1.0582210    -1.3705490     1.3857280
  H       -1.6856880    -1.3325510    -1.0922370
  H       -2.3335820     0.3688280    -0.8792620
  H        1.1811620    -0.5295190    -1.5194400
  H        0.8172500    -1.7319370    -0.2626510
  H        0.3174590     1.7541820     0.6550680
  H        2.3334610     0.6171320    -0.0105960
units angstrom
no_reorient  #important for SAPT in psi4, default
symmetry c1  #important for SAPT in psi4, default
}

set PROPERTIES_ORIGIN ["COM"]
properties('MP2/aug-cc-pvtz', properties = ['dipole'])
--------------------------------------------------------------------------

    Molecular point group: c1
  Charge       = 0
  Multiplicity = 1
  Basis Set: AUG-CC-PVTZ
    Blend: AUG-CC-PVTZ
  Basis Set: (AUG-CC-PVTZ AUX)
    Blend: AUG-CC-PVTZ-JKFIT

    Orbital Energies [Eh]
    ---------------------

    Doubly Occupied:

       1A    -20.568305     2A    -20.564524     3A    -11.288513
       4A    -11.284023     5A    -11.232507     6A    -11.230966
       7A     -1.382301     8A     -1.352564     9A     -1.142621
      10A     -0.955795    11A     -0.837248    12A     -0.786136
      13A     -0.704963    14A     -0.697823    15A     -0.658702
      16A     -0.630878    17A     -0.593614    18A     -0.567049
      19A     -0.529669    20A     -0.520860    21A     -0.494250
      22A     -0.476598    23A     -0.417888    24A     -0.402703

  @DF-RHF Final Energy:  -305.91058330953337

   => Energetics <=

    Nuclear Repulsion Energy =            252.2432509078267060
    One-Electron Energy =                -917.6666678926903842
    Two-Electron Energy =                 359.5128336753303415
    Total Energy =                       -305.9105833095333651
  Basis Set: (AUG-CC-PVTZ AUX)
    Blend: AUG-CC-PVTZ-RI
    Molecular point group: c1

    Geometry (in Angstrom), charge = 0, multiplicity = 1:

       Center              X                  Y                   Z               Mass
    ------------   -----------------  -----------------  -----------------  -----------------
         O           -0.123392051580     1.468989667207    -0.183984659693    15.994914619570
         O            2.038286948420    -0.271814332793     0.356525340307    15.994914619570
         C           -0.311902051580     0.067972667207    -0.107658659693    12.000000000000
         C           -1.337335951580    -0.361741132793     0.897929040307    12.000000000000
         C           -1.647153051580    -0.423378332793    -0.554151659693    12.000000000000
         C            0.937262948420    -0.696581332793    -0.452201659693    12.000000000000
         H           -1.758141051580     0.288155667207     1.554355340307     1.007825032230
         H           -1.074612051580    -1.403515332793     1.386235340307     1.007825032230
         H           -1.702079051580    -1.365517332793    -1.091729659693     1.007825032230
         H           -2.349973051580     0.335861667207    -0.878754659693     1.007825032230
         H            1.164770948420    -0.562485332793    -1.518932659693     1.007825032230
         H            0.800858948420    -1.764903332793    -0.262143659693     1.007825032230
         H            0.301067948420     1.721215667207     0.655575340307     1.007825032230
         H            2.317069948420     0.584165667207    -0.010088659693     1.007825032230

  Basis Set: AUG-CC-PVTZ
    Blend: AUG-CC-PVTZ
  Basis Set: (AUG-CC-PVTZ AUX)
    Blend: AUG-CC-PVTZ-JKFIT
	 Reference Energy          =    -305.9105833095333651 [Eh]
	 Singles Energy            =      -0.0000000000000000 [Eh]
	 Same-Spin Energy          =      -0.3048544263941157 [Eh]
	 Opposite-Spin Energy      =      -0.9843745863629216 [Eh]
	 Correlation Energy        =      -1.2892290127570374 [Eh]
	 Total Energy              =    -307.1998123222904269 [Eh]

	 ================> DF-SCS-MP2 Energies <==================
	-----------------------------------------------------------
	 SCS Same-Spin Scale       =       0.3333333333333333 [-]
	 SCS Opposite-Spin Scale   =       1.2000000000000000 [-]
	 SCS Same-Spin Energy      =      -0.1016181421313719 [Eh]
	 SCS Opposite-Spin Energy  =      -1.1812495036355060 [Eh]
	 SCS Correlation Energy    =      -1.2828676457668780 [Eh]
	 SCS Total Energy          =    -307.1934509553002499 [Eh]
	-----------------------------------------------------------

  Dipole Moment: [D]
     X:    -0.4718      Y:    -0.1185      Z:    -0.0717     Total:     0.4917

*** Psi4 exiting successfully. Buy a developer a beer!
