                               Psi4 1.3.2 release

  ==> Input File <==

--------------------------------------------------------------------------
#psi4
#
memory 32 gb

molecule  {
0 1
  O       -0.1070010     1.5019560    -0.1844920
  O        2.0546780    -0.2388480     0.3560180
  C       -0.2955110     0.1009390    -0.1081660
  C       -1.2626320    -0.4138420     0.9150900
  C       -1.6307620    -0.3904120    -0.5546590
  C        1.0366799    -0.7144312    -0.4756091
  H       -1.7417500     0.3211220     1.5538480
  H       -1.0582210    -1.3705490     1.3857280
  H       -1.6856880    -1.3325510    -1.0922370
  H       -2.3335820     0.3688280    -0.8792620
  H        1.1811620    -0.5295190    -1.5194400
  H        0.8172500    -1.7319370    -0.2626510
  H        0.3174590     1.7541820     0.6550680
  H        2.3334610     0.6171320    -0.0105960
units angstrom
no_reorient  #important for SAPT in psi4, default
symmetry c1  #important for SAPT in psi4, default
}

set PROPERTIES_ORIGIN ["COM"]
properties('MP2/aug-cc-pvtz', properties = ['dipole'])
--------------------------------------------------------------------------

    Molecular point group: c1
  Charge       = 0
  Multiplicity = 1
  Basis Set: AUG-CC-PVTZ
    Blend: AUG-CC-PVTZ
  Basis Set: (AUG-CC-PVTZ AUX)
    Blend: AUG-CC-PVTZ-JKFIT

    Orbital Energies [Eh]
    ---------------------

    Doubly Occupied:

       1A    -20.569756     2A    -20.568234     3A    -11.288866
       4A    -11.282058     5A    -11.228756     6A    -11.227286
       7A     -1.385032     8A     -1.360277     9A     -1.131716
      10A     -0.944086    11A     -0.834108    12A     -0.783081
      13A     -0.708763    14A     -0.691907    15A     -0.654855
      16A     -0.638097    17A     -0.603337    18A     -0.564639
      19A     -0.532090    20A     -0.517914    21A     -0.505070
      22A     -0.470657    23A     -0.410086    24A     -0.394149

  @DF-RHF Final Energy:  -305.91572023147938

   => Energetics <=

    Nuclear Repulsion Energy =            250.9365559209996661
    One-Electron Energy =                -915.1149128429359507
    Two-Electron Energy =                 358.2626366904568727
    Total Energy =                       -305.9157202314793835
  Basis Set: (AUG-CC-PVTZ AUX)
    Blend: AUG-CC-PVTZ-RI
    Molecular point group: c1

    Geometry (in Angstrom), charge = 0, multiplicity = 1:

       Center              X                  Y                   Z               Mass
    ------------   -----------------  -----------------  -----------------  -----------------
         O           -0.142654048207     1.487508188607    -0.183271657220    15.994914619570
         O            2.019024951793    -0.253295811393     0.357238342780    15.994914619570
         C           -0.331164048207     0.086491188607    -0.106945657220    12.000000000000
         C           -1.298285048207    -0.428289811393     0.916310342780    12.000000000000
         C           -1.666415048207    -0.404859811393    -0.553438657220    12.000000000000
         C            1.001026851793    -0.728879011393    -0.474388757220    12.000000000000
         H           -1.777403048207     0.306674188607     1.555068342780     1.007825032230
         H           -1.093874048207    -1.384996811393     1.386948342780     1.007825032230
         H           -1.721341048207    -1.346998811393    -1.091016657220     1.007825032230
         H           -2.369235048207     0.354380188607    -0.878041657220     1.007825032230
         H            1.145508951793    -0.543966811393    -1.518219657220     1.007825032230
         H            0.781596951793    -1.746384811393    -0.261430657220     1.007825032230
         H            0.281805951793     1.739734188607     0.656288342780     1.007825032230
         H            2.297807951793     0.602684188607    -0.009375657220     1.007825032230

  Basis Set: AUG-CC-PVTZ
    Blend: AUG-CC-PVTZ
  Basis Set: (AUG-CC-PVTZ AUX)
    Blend: AUG-CC-PVTZ-JKFIT
	 Reference Energy          =    -305.9157202314793835 [Eh]
	 Singles Energy            =      -0.0000000000000000 [Eh]
	 Same-Spin Energy          =      -0.3044304612867445 [Eh]
	 Opposite-Spin Energy      =      -0.9835147625668748 [Eh]
	 Correlation Energy        =      -1.2879452238536193 [Eh]
	 Total Energy              =    -307.2036654553330095 [Eh]

	 ================> DF-SCS-MP2 Energies <==================
	-----------------------------------------------------------
	 SCS Same-Spin Scale       =       0.3333333333333333 [-]
	 SCS Opposite-Spin Scale   =       1.2000000000000000 [-]
	 SCS Same-Spin Energy      =      -0.1014768204289148 [Eh]
	 SCS Opposite-Spin Energy  =      -1.1802177150802498 [Eh]
	 SCS Correlation Energy    =      -1.2816945355091647 [Eh]
	 SCS Total Energy          =    -307.1974147669885724 [Eh]
	-----------------------------------------------------------

  Dipole Moment: [D]
     X:    -0.2057      Y:    -0.1437      Z:    -0.0486     Total:     0.2556

*** Psi4 exiting successfully. Buy a developer a beer!
