                               Psi4 1.3.2 release

  ==> Input File <==

--------------------------------------------------------------------------
#psi4
#
memory 32 gb

molecule  {
0 1
  O       -0.1070010     1.5019560    -0.1844920
  O        2.0546780    -0.2388480     0.3560180
  C       -0.2909223     0.0842837    -0.0585729
  C       -1.2626320    -0.4138420     0.9150900
  C       -1.6307620    -0.3904120    -0.5546590
  C        0.9536540    -0.6636150    -0.4527090
  H       -1.7417500     0.3211220     1.5538480
  H       -1.0582210    -1.3705490     1.3857280
  H       -1.6856880    -1.3325510    -1.0922370
  H       -2.3335820     0.3688280    -0.8792620
  H        1.1811620    -0.5295190    -1.5194400
  H        0.8172500    -1.7319370    -0.2626510
  H        0.3174590     1.7541820     0.6550680
  H        2.3334610     0.6171320    -0.0105960
units angstrom
no_reorient  #important for SAPT in psi4, default
symmetry c1  #important for SAPT in psi4, default
}

set PROPERTIES_ORIGIN ["COM"]
properties('MP2/aug-cc-pvtz', properties = ['dipole'])
--------------------------------------------------------------------------

    Molecular point group: c1
  Charge       = 0
  Multiplicity = 1
  Basis Set: AUG-CC-PVTZ
    Blend: AUG-CC-PVTZ
  Basis Set: (AUG-CC-PVTZ AUX)
    Blend: AUG-CC-PVTZ-JKFIT

    Orbital Energies [Eh]
    ---------------------

    Doubly Occupied:

       1A    -20.570016     2A    -20.563788     3A    -11.289321
       4A    -11.282923     5A    -11.233776     6A    -11.229252
       7A     -1.378890     8A     -1.350541     9A     -1.143524
      10A     -0.952782    11A     -0.839057    12A     -0.782502
      13A     -0.699721    14A     -0.693630    15A     -0.659162
      16A     -0.638776    17A     -0.589987    18A     -0.563995
      19A     -0.530279    20A     -0.519427    21A     -0.498354
      22A     -0.473540    23A     -0.421554    24A     -0.406879

  @DF-RHF Final Energy:  -305.92017008561930

   => Energetics <=

    Nuclear Repulsion Energy =            252.1248614093601077
    One-Electron Energy =                -917.4667118704102222
    Two-Electron Energy =                 359.4216803754308671
    Total Energy =                       -305.9201700856193042
  Basis Set: (AUG-CC-PVTZ AUX)
    Blend: AUG-CC-PVTZ-RI
    Molecular point group: c1

    Geometry (in Angstrom), charge = 0, multiplicity = 1:

       Center              X                  Y                   Z               Mass
    ------------   -----------------  -----------------  -----------------  -----------------
         O           -0.131964435151     1.482852657779    -0.193151207449    15.994914619570
         O            2.029714564849    -0.257951342221     0.347358792551    15.994914619570
         C           -0.315885735151     0.065180357779    -0.067232107449    12.000000000000
         C           -1.287595435151    -0.432945342221     0.906430792551    12.000000000000
         C           -1.655725435151    -0.409515342221    -0.563318207449    12.000000000000
         C            0.928690564849    -0.682718342221    -0.461368207449    12.000000000000
         H           -1.766713435151     0.302018657779     1.545188792551     1.007825032230
         H           -1.083184435151    -1.389652342221     1.377068792551     1.007825032230
         H           -1.710651435151    -1.351654342221    -1.100896207449     1.007825032230
         H           -2.358545435151     0.349724657779    -0.887921207449     1.007825032230
         H            1.156198564849    -0.548622342221    -1.528099207449     1.007825032230
         H            0.792286564849    -1.751040342221    -0.271310207449     1.007825032230
         H            0.292495564849     1.735078657779     0.646408792551     1.007825032230
         H            2.308497564849     0.598028657779    -0.019255207449     1.007825032230

  Basis Set: AUG-CC-PVTZ
    Blend: AUG-CC-PVTZ
  Basis Set: (AUG-CC-PVTZ AUX)
    Blend: AUG-CC-PVTZ-JKFIT
	 Reference Energy          =    -305.9201700856193042 [Eh]
	 Singles Energy            =      -0.0000000000000000 [Eh]
	 Same-Spin Energy          =      -0.3049536386674921 [Eh]
	 Opposite-Spin Energy      =      -0.9846988611489147 [Eh]
	 Correlation Energy        =      -1.2896524998164067 [Eh]
	 Total Energy              =    -307.2098225854356883 [Eh]

	 ================> DF-SCS-MP2 Energies <==================
	-----------------------------------------------------------
	 SCS Same-Spin Scale       =       0.3333333333333333 [-]
	 SCS Opposite-Spin Scale   =       1.2000000000000000 [-]
	 SCS Same-Spin Energy      =      -0.1016512128891640 [Eh]
	 SCS Opposite-Spin Energy  =      -1.1816386333786977 [Eh]
	 SCS Correlation Energy    =      -1.2832898462678617 [Eh]
	 SCS Total Energy          =    -307.2034599318871528 [Eh]
	-----------------------------------------------------------

  Dipole Moment: [D]
     X:    -0.4660      Y:    -0.1959      Z:     0.0281     Total:     0.5063

*** Psi4 exiting successfully. Buy a developer a beer!
