                               Psi4 1.3.2 release

  ==> Input File <==

--------------------------------------------------------------------------
#psi4
#
memory 32 gb

molecule  {
0 1
  O       -0.1070010     1.5019560    -0.1844920
  O        2.0546780    -0.2388480     0.3560180
  C       -0.2955110     0.1009390    -0.1081660
  C       -1.3482448    -0.2854298     0.8867441
  C       -1.6307620    -0.3904120    -0.5546590
  C        0.9536540    -0.6636150    -0.4527090
  H       -1.7417500     0.3211220     1.5538480
  H       -1.0582210    -1.3705490     1.3857280
  H       -1.6856880    -1.3325510    -1.0922370
  H       -2.3335820     0.3688280    -0.8792620
  H        1.1811620    -0.5295190    -1.5194400
  H        0.8172500    -1.7319370    -0.2626510
  H        0.3174590     1.7541820     0.6550680
  H        2.3334610     0.6171320    -0.0105960
units angstrom
no_reorient  #important for SAPT in psi4, default
symmetry c1  #important for SAPT in psi4, default
}

set PROPERTIES_ORIGIN ["COM"]
properties('MP2/aug-cc-pvtz', properties = ['dipole'])
--------------------------------------------------------------------------

    Molecular point group: c1
  Charge       = 0
  Multiplicity = 1
  Basis Set: AUG-CC-PVTZ
    Blend: AUG-CC-PVTZ
  Basis Set: (AUG-CC-PVTZ AUX)
    Blend: AUG-CC-PVTZ-JKFIT

    Orbital Energies [Eh]
    ---------------------

    Doubly Occupied:

       1A    -20.567306     2A    -20.564724     3A    -11.288683
       4A    -11.285122     5A    -11.234009     6A    -11.231674
       7A     -1.382386     8A     -1.352750     9A     -1.144932
      10A     -0.957598    11A     -0.839526    12A     -0.787106
      13A     -0.707502    14A     -0.699513    15A     -0.660979
      16A     -0.627397    17A     -0.595287    18A     -0.568046
      19A     -0.529358    20A     -0.522447    21A     -0.488615
      22A     -0.476534    23A     -0.419721    24A     -0.398946

  @DF-RHF Final Energy:  -305.89587254257350

   => Energetics <=

    Nuclear Repulsion Energy =            252.3429186590523727
    One-Electron Energy =                -917.8172601078140360
    Two-Electron Energy =                 359.5784689061881068
    Total Energy =                       -305.8958725425734997
  Basis Set: (AUG-CC-PVTZ AUX)
    Blend: AUG-CC-PVTZ-RI
    Molecular point group: c1

    Geometry (in Angstrom), charge = 0, multiplicity = 1:

       Center              X                  Y                   Z               Mass
    ------------   -----------------  -----------------  -----------------  -----------------
         O           -0.119671554578     1.463082504815    -0.182529490305    15.994914619570
         O            2.042007445422    -0.277721495185     0.357980509695    15.994914619570
         C           -0.308181554578     0.062065504815    -0.106203490305    12.000000000000
         C           -1.360915354578    -0.324303295185     0.888706609695    12.000000000000
         C           -1.643432554578    -0.429285495185    -0.552696490305    12.000000000000
         C            0.940983445422    -0.702488495185    -0.450746490305    12.000000000000
         H           -1.754420554578     0.282248504815     1.555810509695     1.007825032230
         H           -1.070891554578    -1.409422495185     1.387690509695     1.007825032230
         H           -1.698358554578    -1.371424495185    -1.090274490305     1.007825032230
         H           -2.346252554578     0.329954504815    -0.877299490305     1.007825032230
         H            1.168491445422    -0.568392495185    -1.517477490305     1.007825032230
         H            0.804579445422    -1.770810495185    -0.260688490305     1.007825032230
         H            0.304788445422     1.715308504815     0.657030509695     1.007825032230
         H            2.320790445422     0.578258504815    -0.008633490305     1.007825032230

  Basis Set: AUG-CC-PVTZ
    Blend: AUG-CC-PVTZ
  Basis Set: (AUG-CC-PVTZ AUX)
    Blend: AUG-CC-PVTZ-JKFIT
	 Reference Energy          =    -305.8958725425734997 [Eh]
	 Singles Energy            =      -0.0000000000000000 [Eh]
	 Same-Spin Energy          =      -0.3050576156740690 [Eh]
	 Opposite-Spin Energy      =      -0.9849903265625417 [Eh]
	 Correlation Energy        =      -1.2900479422366107 [Eh]
	 Total Energy              =    -307.1859204848100831 [Eh]

	 ================> DF-SCS-MP2 Energies <==================
	-----------------------------------------------------------
	 SCS Same-Spin Scale       =       0.3333333333333333 [-]
	 SCS Opposite-Spin Scale   =       1.2000000000000000 [-]
	 SCS Same-Spin Energy      =      -0.1016858718913563 [Eh]
	 SCS Opposite-Spin Energy  =      -1.1819883918750500 [Eh]
	 SCS Correlation Energy    =      -1.2836742637664063 [Eh]
	 SCS Total Energy          =    -307.1795468063398857 [Eh]
	-----------------------------------------------------------

  Dipole Moment: [D]
     X:    -0.4722      Y:    -0.0961      Z:    -0.1071     Total:     0.4937

*** Psi4 exiting successfully. Buy a developer a beer!
