                               Psi4 1.3.2 release

  ==> Input File <==

--------------------------------------------------------------------------
#psi4
#
memory 32 gb

molecule  {
0 1
  O       -0.1070010     1.5019560    -0.1844920
  O        2.0546780    -0.2388480     0.3560180
  C       -0.2772033     0.0482610     0.0391128
  C       -1.2626320    -0.4138420     0.9150900
  C       -1.6307620    -0.3904120    -0.5546590
  C        0.9536540    -0.6636150    -0.4527090
  H       -1.7417500     0.3211220     1.5538480
  H       -1.0582210    -1.3705490     1.3857280
  H       -1.6856880    -1.3325510    -1.0922370
  H       -2.3335820     0.3688280    -0.8792620
  H        1.1811620    -0.5295190    -1.5194400
  H        0.8172500    -1.7319370    -0.2626510
  H        0.3174590     1.7541820     0.6550680
  H        2.3334610     0.6171320    -0.0105960
units angstrom
no_reorient  #important for SAPT in psi4, default
symmetry c1  #important for SAPT in psi4, default
}

set PROPERTIES_ORIGIN ["COM"]
properties('MP2/aug-cc-pvtz', properties = ['dipole'])
--------------------------------------------------------------------------

    Molecular point group: c1
  Charge       = 0
  Multiplicity = 1
  Basis Set: AUG-CC-PVTZ
    Blend: AUG-CC-PVTZ
  Basis Set: (AUG-CC-PVTZ AUX)
    Blend: AUG-CC-PVTZ-JKFIT

    Orbital Energies [Eh]
    ---------------------

    Doubly Occupied:

       1A    -20.568178     2A    -20.562921     3A    -11.291756
       4A    -11.285902     5A    -11.237836     6A    -11.226348
       7A     -1.373054     8A     -1.344154     9A     -1.153153
      10A     -0.954143    11A     -0.842538    12A     -0.776637
      13A     -0.695144    14A     -0.693444    15A     -0.661582
      16A     -0.637854    17A     -0.592236    18A     -0.558795
      19A     -0.529396    20A     -0.518510    21A     -0.493430
      22A     -0.474155    23A     -0.446837    24A     -0.387840

  @DF-RHF Final Energy:  -305.90205222260033

   => Energetics <=

    Nuclear Repulsion Energy =            252.0795607810076433
    One-Electron Energy =                -917.3515437759839415
    Two-Electron Energy =                 359.3699307723759375
    Total Energy =                       -305.9020522226003322
  Basis Set: (AUG-CC-PVTZ AUX)
    Blend: AUG-CC-PVTZ-RI
    Molecular point group: c1

    Geometry (in Angstrom), charge = 0, multiplicity = 1:

       Center              X                  Y                   Z               Mass
    ------------   -----------------  -----------------  -----------------  -----------------
         O           -0.133834093955     1.487761919255    -0.206464053065    15.994914619570
         O            2.027844906045    -0.253042080745     0.334045946935    15.994914619570
         C           -0.304036393955     0.034066919255     0.017140746935    12.000000000000
         C           -1.289465093955    -0.428036080745     0.893117946935    12.000000000000
         C           -1.657595093955    -0.404606080745    -0.576631053065    12.000000000000
         C            0.926820906045    -0.677809080745    -0.474681053065    12.000000000000
         H           -1.768583093955     0.306927919255     1.531875946935     1.007825032230
         H           -1.085054093955    -1.384743080745     1.363755946935     1.007825032230
         H           -1.712521093955    -1.346745080745    -1.114209053065     1.007825032230
         H           -2.360415093955     0.354633919255    -0.901234053065     1.007825032230
         H            1.154328906045    -0.543713080745    -1.541412053065     1.007825032230
         H            0.790416906045    -1.746131080745    -0.284623053065     1.007825032230
         H            0.290625906045     1.739987919255     0.633095946935     1.007825032230
         H            2.306627906045     0.602937919255    -0.032568053065     1.007825032230

  Basis Set: AUG-CC-PVTZ
    Blend: AUG-CC-PVTZ
  Basis Set: (AUG-CC-PVTZ AUX)
    Blend: AUG-CC-PVTZ-JKFIT
	 Reference Energy          =    -305.9020522226003322 [Eh]
	 Singles Energy            =      -0.0000000000000000 [Eh]
	 Same-Spin Energy          =      -0.3060033686666951 [Eh]
	 Opposite-Spin Energy      =      -0.9872448072867870 [Eh]
	 Correlation Energy        =      -1.2932481759534822 [Eh]
	 Total Energy              =    -307.1953003985537975 [Eh]

	 ================> DF-SCS-MP2 Energies <==================
	-----------------------------------------------------------
	 SCS Same-Spin Scale       =       0.3333333333333333 [-]
	 SCS Opposite-Spin Scale   =       1.2000000000000000 [-]
	 SCS Same-Spin Energy      =      -0.1020011228888984 [Eh]
	 SCS Opposite-Spin Energy  =      -1.1846937687441443 [Eh]
	 SCS Correlation Energy    =      -1.2866948916330427 [Eh]
	 SCS Total Energy          =    -307.1887471142333652 [Eh]
	-----------------------------------------------------------

  Dipole Moment: [D]
     X:    -0.4405      Y:    -0.2930      Z:     0.1532     Total:     0.5508

*** Psi4 exiting successfully. Buy a developer a beer!
