                               Psi4 1.3.2 release

  ==> Input File <==

--------------------------------------------------------------------------
#psi4
#
memory 32 gb

molecule  {
0 1
  O       -0.1070010     1.5019560    -0.1844920
  O        2.0546780    -0.2388480     0.3560180
  C       -0.2688797     0.2988645    -0.1189488
  C       -1.2626320    -0.4138420     0.9150900
  C       -1.6307620    -0.3904120    -0.5546590
  C        0.9536540    -0.6636150    -0.4527090
  H       -1.7417500     0.3211220     1.5538480
  H       -1.0582210    -1.3705490     1.3857280
  H       -1.6856880    -1.3325510    -1.0922370
  H       -2.3335820     0.3688280    -0.8792620
  H        1.1811620    -0.5295190    -1.5194400
  H        0.8172500    -1.7319370    -0.2626510
  H        0.3174590     1.7541820     0.6550680
  H        2.3334610     0.6171320    -0.0105960
units angstrom
no_reorient  #important for SAPT in psi4, default
symmetry c1  #important for SAPT in psi4, default
}

set PROPERTIES_ORIGIN ["COM"]
properties('MP2/aug-cc-pvtz', properties = ['dipole'])
--------------------------------------------------------------------------

    Molecular point group: c1
  Charge       = 0
  Multiplicity = 1
  Basis Set: AUG-CC-PVTZ
    Blend: AUG-CC-PVTZ
  Basis Set: (AUG-CC-PVTZ AUX)
    Blend: AUG-CC-PVTZ-JKFIT

    Orbital Energies [Eh]
    ---------------------

    Doubly Occupied:

       1A    -20.595733     2A    -20.559754     3A    -11.295922
       4A    -11.276454     5A    -11.226583     6A    -11.225613
       7A     -1.481471     8A     -1.355777     9A     -1.096622
      10A     -0.930485    11A     -0.843003    12A     -0.815773
      13A     -0.719375    14A     -0.696804    15A     -0.666293
      16A     -0.652361    17A     -0.610282    18A     -0.571446
      19A     -0.544147    20A     -0.516762    21A     -0.505980
      22A     -0.469895    23A     -0.380189    24A     -0.359486

  @DF-RHF Final Energy:  -305.87303022843287

   => Energetics <=

    Nuclear Repulsion Energy =            252.5757608947311041
    One-Electron Energy =                -918.1051627970463187
    Two-Electron Energy =                 359.6563716738822905
    Total Energy =                       -305.8730302284328673
  Basis Set: (AUG-CC-PVTZ AUX)
    Blend: AUG-CC-PVTZ-RI
    Molecular point group: c1

    Geometry (in Angstrom), charge = 0, multiplicity = 1:

       Center              X                  Y                   Z               Mass
    ------------   -----------------  -----------------  -----------------  -----------------
         O           -0.134968454478     1.453609062631    -0.184923032439    15.994914619570
         O            2.026710545522    -0.287194937369     0.355586967561    15.994914619570
         C           -0.296847154478     0.250517562631    -0.119379832439    12.000000000000
         C           -1.290599454478    -0.462188937369     0.914658967561    12.000000000000
         C           -1.658729454478    -0.438758937369    -0.555090032439    12.000000000000
         C            0.925686545522    -0.711961937369    -0.453140032439    12.000000000000
         H           -1.769717454478     0.272775062631     1.553416967561     1.007825032230
         H           -1.086188454478    -1.418895937369     1.385296967561     1.007825032230
         H           -1.713655454478    -1.380897937369    -1.092668032439     1.007825032230
         H           -2.361549454478     0.320481062631    -0.879693032439     1.007825032230
         H            1.153194545522    -0.577865937369    -1.519871032439     1.007825032230
         H            0.789282545522    -1.780283937369    -0.263082032439     1.007825032230
         H            0.289491545522     1.705835062631     0.654636967561     1.007825032230
         H            2.305493545522     0.568785062631    -0.011027032439     1.007825032230

  Basis Set: AUG-CC-PVTZ
    Blend: AUG-CC-PVTZ
  Basis Set: (AUG-CC-PVTZ AUX)
    Blend: AUG-CC-PVTZ-JKFIT
	 Reference Energy          =    -305.8730302284328673 [Eh]
	 Singles Energy            =      -0.0000000000000000 [Eh]
	 Same-Spin Energy          =      -0.3057044388751580 [Eh]
	 Opposite-Spin Energy      =      -0.9847236882673723 [Eh]
	 Correlation Energy        =      -1.2904281271425302 [Eh]
	 Total Energy              =    -307.1634583555754148 [Eh]

	 ================> DF-SCS-MP2 Energies <==================
	-----------------------------------------------------------
	 SCS Same-Spin Scale       =       0.3333333333333333 [-]
	 SCS Opposite-Spin Scale   =       1.2000000000000000 [-]
	 SCS Same-Spin Energy      =      -0.1019014796250527 [Eh]
	 SCS Opposite-Spin Energy  =      -1.1816684259208468 [Eh]
	 SCS Correlation Energy    =      -1.2835699055458993 [Eh]
	 SCS Total Energy          =    -307.1566001339787704 [Eh]
	-----------------------------------------------------------

  Dipole Moment: [D]
     X:    -0.2171      Y:     0.6547      Z:    -0.0743     Total:     0.6937

*** Psi4 exiting successfully. Buy a developer a beer!
