                               Psi4 1.4a3.dev225

  ==> Input File <==

--------------------------------------------------------------------------
#psi4
#
memory 32 gb

molecule  {
0 1
  O       -0.1070010     1.5019560    -0.1844920
  O        2.0546780    -0.2388480     0.3560180
  C       -0.2955110     0.1009390    -0.1081660
  C       -1.2626320    -0.4138420     0.9150900
  C       -1.6307620    -0.3904120    -0.5546590
  C        0.9370488    -0.6534518    -0.4481290
  H       -1.7417500     0.3211220     1.5538480
  H       -1.0582210    -1.3705490     1.3857280
  H       -1.6856880    -1.3325510    -1.0922370
  H       -2.3335820     0.3688280    -0.8792620
  H        1.1811620    -0.5295190    -1.5194400
  H        0.8172500    -1.7319370    -0.2626510
  H        0.3174590     1.7541820     0.6550680
  H        2.3334610     0.6171320    -0.0105960
units angstrom
no_reorient  #important for SAPT in psi4, default
symmetry c1  #important for SAPT in psi4, default
}

set PROPERTIES_ORIGIN ["COM"]
properties('MP2/aug-cc-pvtz', properties = ['dipole'])
--------------------------------------------------------------------------

    Molecular point group: c1
  Charge       = 0
  Multiplicity = 1
  Basis Set: AUG-CC-PVTZ
    Blend: AUG-CC-PVTZ
  Basis Set: (AUG-CC-PVTZ AUX)
    Blend: AUG-CC-PVTZ-JKFIT

    Orbital Energies [Eh]
    ---------------------

    Doubly Occupied:

       1A    -20.571157     2A    -20.563725     3A    -11.289440
       4A    -11.282520     5A    -11.232330     6A    -11.231674
       7A     -1.382909     8A     -1.350570     9A     -1.140397
      10A     -0.954986    11A     -0.838451    12A     -0.786191
      13A     -0.703442    14A     -0.692540    15A     -0.658191
      16A     -0.639057    17A     -0.585986    18A     -0.566630
      19A     -0.531372    20A     -0.519963    21A     -0.500427
      22A     -0.473704    23A     -0.417468    24A     -0.407453

  @DF-RHF Final Energy:  -305.92202165573138

   => Energetics <=

    Nuclear Repulsion Energy =            252.3216542961848461
    One-Electron Energy =                -917.8461833823608913
    Two-Electron Energy =                 359.6025074304446321
    Total Energy =                       -305.9220216557313847
  Basis Set: (AUG-CC-PVTZ AUX)
    Blend: AUG-CC-PVTZ-RI
    Molecular point group: c1

    Geometry (in Angstrom), charge = 0, multiplicity = 1:

       Center              X                  Y                   Z               Mass
    ------------   -----------------  -----------------  -----------------  -----------------
         O           -0.129076078731     1.479197767144    -0.187016712318    15.994914619570
         O            2.032602921269    -0.261606232856     0.353493287682    15.994914619570
         C           -0.317586078731     0.078180767144    -0.110690712318    12.000000000000
         C           -1.284707078731    -0.436600232856     0.912565287682    12.000000000000
         C           -1.652837078731    -0.413170232856    -0.557183712318    12.000000000000
         C            0.914973721269    -0.676210032856    -0.450653712318    12.000000000000
         H           -1.763825078731     0.298363767144     1.551323287682     1.007825032230
         H           -1.080296078731    -1.393307232856     1.383203287682     1.007825032230
         H           -1.707763078731    -1.355309232856    -1.094761712318     1.007825032230
         H           -2.355657078731     0.346069767144    -0.881786712318     1.007825032230
         H            1.159086921269    -0.552277232856    -1.521964712318     1.007825032230
         H            0.795174921269    -1.754695232856    -0.265175712318     1.007825032230
         H            0.295383921269     1.731423767144     0.652543287682     1.007825032230
         H            2.311385921269     0.594373767144    -0.013120712318     1.007825032230

  Basis Set: AUG-CC-PVTZ
    Blend: AUG-CC-PVTZ
  Basis Set: (AUG-CC-PVTZ AUX)
    Blend: AUG-CC-PVTZ-JKFIT
	 Reference Energy          =    -305.9220216557313847 [Eh]
	 Singles Energy            =      -0.0000000000000000 [Eh]
	 Same-Spin Energy          =      -0.3049016789449719 [Eh]
	 Opposite-Spin Energy      =      -0.9843684004797677 [Eh]
	 Correlation Energy        =      -1.2892700794247396 [Eh]
	 Total Energy              =    -307.2112917351561237 [Eh]

	 ================> DF-SCS-MP2 Energies <==================
	-----------------------------------------------------------
	 SCS Same-Spin Scale       =       0.3333333333333333 [-]
	 SCS Opposite-Spin Scale   =       1.2000000000000000 [-]
	 SCS Same-Spin Energy      =      -0.1016338929816573 [Eh]
	 SCS Opposite-Spin Energy  =      -1.1812420805757211 [Eh]
	 SCS Correlation Energy    =      -1.2828759735573785 [Eh]
	 SCS Total Energy          =    -307.2048976292887801 [Eh]
	-----------------------------------------------------------

  Dipole Moment: [D]
     X:    -0.5169      Y:    -0.1430      Z:    -0.0357     Total:     0.5375

*** Psi4 exiting successfully. Buy a developer a beer!
