                               Psi4 1.3.2 release

  ==> Input File <==

--------------------------------------------------------------------------
#psi4
#
memory 32 gb

molecule  {
0 1
  O       -0.1070010     1.5019560    -0.1844920
  O        1.9598564    -0.1427091     0.4207519
  C       -0.2955110     0.1009390    -0.1081660
  C       -1.2626320    -0.4138420     0.9150900
  C       -1.6307620    -0.3904120    -0.5546590
  C        0.9536540    -0.6636150    -0.4527090
  H       -1.7417500     0.3211220     1.5538480
  H       -1.0582210    -1.3705490     1.3857280
  H       -1.6856880    -1.3325510    -1.0922370
  H       -2.3335820     0.3688280    -0.8792620
  H        1.1811620    -0.5295190    -1.5194400
  H        0.8172500    -1.7319370    -0.2626510
  H        0.3174590     1.7541820     0.6550680
  H        2.3334610     0.6171320    -0.0105960
units angstrom
no_reorient  #important for SAPT in psi4, default
symmetry c1  #important for SAPT in psi4, default
}

set PROPERTIES_ORIGIN ["COM"]
properties('MP2/aug-cc-pvtz', properties = ['dipole'])
--------------------------------------------------------------------------

    Molecular point group: c1
  Charge       = 0
  Multiplicity = 1
  Basis Set: AUG-CC-PVTZ
    Blend: AUG-CC-PVTZ
  Basis Set: (AUG-CC-PVTZ AUX)
    Blend: AUG-CC-PVTZ-JKFIT

    Orbital Energies [Eh]
    ---------------------

    Doubly Occupied:

       1A    -20.566691     2A    -20.561892     3A    -11.285969
       4A    -11.283533     5A    -11.229294     6A    -11.227391
       7A     -1.384383     8A     -1.352768     9A     -1.135957
      10A     -0.954788    11A     -0.835333    12A     -0.782217
      13A     -0.702435    14A     -0.695375    15A     -0.662855
      16A     -0.636688    17A     -0.590356    18A     -0.561749
      19A     -0.528582    20A     -0.515613    21A     -0.501990
      22A     -0.475398    23A     -0.409786    24A     -0.406003

  @DF-RHF Final Energy:  -305.92106666028121

   => Energetics <=

    Nuclear Repulsion Energy =            253.5615280858276890
    One-Electron Energy =                -920.3910942739727261
    Two-Electron Energy =                 360.9084995278637962
    Total Energy =                       -305.9210666602812125
  Basis Set: (AUG-CC-PVTZ AUX)
    Blend: AUG-CC-PVTZ-RI
    Molecular point group: c1

    Geometry (in Angstrom), charge = 0, multiplicity = 1:

       Center              X                  Y                   Z               Mass
    ------------   -----------------  -----------------  -----------------  -----------------
         O           -0.114114526806     1.463118993336    -0.198151591947    15.994914619570
         O            1.952742873194    -0.181546106664     0.407092308053    15.994914619570
         C           -0.302624526806     0.062101993336    -0.121825591947    12.000000000000
         C           -1.269745526806    -0.452679006664     0.901430408053    12.000000000000
         C           -1.637875526806    -0.429249006664    -0.568318591947    12.000000000000
         C            0.946540473194    -0.702452006664    -0.466368591947    12.000000000000
         H           -1.748863526806     0.282284993336     1.540188408053     1.007825032230
         H           -1.065334526806    -1.409386006664     1.372068408053     1.007825032230
         H           -1.692801526806    -1.371388006664    -1.105896591947     1.007825032230
         H           -2.340695526806     0.329990993336    -0.892921591947     1.007825032230
         H            1.174048473194    -0.568356006664    -1.533099591947     1.007825032230
         H            0.810136473194    -1.770774006664    -0.276310591947     1.007825032230
         H            0.310345473194     1.715344993336     0.641408408053     1.007825032230
         H            2.326347473194     0.578294993336    -0.024255591947     1.007825032230

  Basis Set: AUG-CC-PVTZ
    Blend: AUG-CC-PVTZ
  Basis Set: (AUG-CC-PVTZ AUX)
    Blend: AUG-CC-PVTZ-JKFIT
	 Reference Energy          =    -305.9210666602812125 [Eh]
	 Singles Energy            =      -0.0000000000000000 [Eh]
	 Same-Spin Energy          =      -0.3047011147483627 [Eh]
	 Opposite-Spin Energy      =      -0.9836084212035404 [Eh]
	 Correlation Energy        =      -1.2883095359519032 [Eh]
	 Total Energy              =    -307.2093761962331087 [Eh]

	 ================> DF-SCS-MP2 Energies <==================
	-----------------------------------------------------------
	 SCS Same-Spin Scale       =       0.3333333333333333 [-]
	 SCS Opposite-Spin Scale   =       1.2000000000000000 [-]
	 SCS Same-Spin Energy      =      -0.1015670382494542 [Eh]
	 SCS Opposite-Spin Energy  =      -1.1803301054442485 [Eh]
	 SCS Correlation Energy    =      -1.2818971436937028 [Eh]
	 SCS Total Energy          =    -307.2029638039749102 [Eh]
	-----------------------------------------------------------

  Dipole Moment: [D]
     X:    -0.1330      Y:    -0.3463      Z:    -0.2108     Total:     0.4267

*** Psi4 exiting successfully. Buy a developer a beer!
