                               Psi4 1.3.2 release

  ==> Input File <==

--------------------------------------------------------------------------
#psi4
#
memory 32 gb

molecule  {
-1 1
  O       -1.5186010     1.5599430    -0.1433510
  O        2.2638970    -1.4295650    -0.0456660
  O        3.5317420     0.4486470     0.1950180
  N        0.0040180    -0.1295860    -0.1151350
  C       -2.3384940    -0.6954940    -0.4149760
  C       -1.2508570     0.3439190    -0.2101810
  C        1.1754880     0.7048690     0.0403840
  C       -3.5055210    -0.4701880     0.5431350
  C        2.4465640    -0.1793200     0.0655420
  H       -2.6873130    -0.6028840    -1.4504550
  H       -1.9319890    -1.7056860    -0.3020050
  H        1.2516430     1.4279040    -0.7806770
  H        1.1211640     1.2868180     0.9683990
  H        0.2447619    -1.1092734    -0.3245605
  H       -3.1861080    -0.6022700     1.5809140
  H       -3.8905480     0.5449040     0.4307430
  H       -4.3152940    -1.1768540     0.3431720
units angstrom
no_reorient  #important for SAPT in psi4, default
symmetry c1  #important for SAPT in psi4, default
}

set PROPERTIES_ORIGIN ["COM"]
properties('MP2/aug-cc-pvtz', properties = ['dipole'])
--------------------------------------------------------------------------

    Molecular point group: c1
  Charge       = -1
  Multiplicity = 1
  Basis Set: AUG-CC-PVTZ
    Blend: AUG-CC-PVTZ
  Basis Set: (AUG-CC-PVTZ AUX)
    Blend: AUG-CC-PVTZ-JKFIT

    Orbital Energies [Eh]
    ---------------------

    Doubly Occupied:

       1A    -20.387468     2A    -20.322447     3A    -20.313688
       4A    -15.445491     5A    -11.221891     6A    -11.163697
       7A    -11.135157     8A    -11.127768     9A    -11.108707
      10A     -1.238458    11A     -1.190250    12A     -1.096570
      13A     -1.081125    14A     -0.949414    15A     -0.831174
      16A     -0.759556    17A     -0.649400    18A     -0.584593
      19A     -0.545117    20A     -0.526232    21A     -0.503243
      22A     -0.486725    23A     -0.472877    24A     -0.437093
      25A     -0.427058    26A     -0.419819    27A     -0.407005
      28A     -0.394772    29A     -0.380042    30A     -0.345373
      31A     -0.298704    32A     -0.256379    33A     -0.238664
      34A     -0.225775    35A     -0.215942

  @DF-RHF Final Energy:  -473.28669464022278

   => Energetics <=

    Nuclear Repulsion Energy =            435.1609221953596034
    One-Electron Energy =               -1522.5198827629644711
    Two-Electron Energy =                 614.0722659273819772
    Total Energy =                       -473.2866946402227768
  Basis Set: (AUG-CC-PVTZ AUX)
    Blend: AUG-CC-PVTZ-RI
    Molecular point group: c1

    Geometry (in Angstrom), charge = -1, multiplicity = 1:

       Center              X                  Y                   Z               Mass
    ------------   -----------------  -----------------  -----------------  -----------------
         O           -1.620828990315     1.545027369902    -0.137505289062    15.994914619570
         O            2.161669009685    -1.444480630098    -0.039820289062    15.994914619570
         O            3.429514009685     0.433731369902     0.200863710938    15.994914619570
         N           -0.098209990315    -0.144501630098    -0.109289289062    14.003074004430
         C           -2.440721990315    -0.710409630098    -0.409130289062    12.000000000000
         C           -1.353084990315     0.329003369902    -0.204335289062    12.000000000000
         C            1.073260009685     0.689953369902     0.046229710938    12.000000000000
         C           -3.607748990315    -0.485103630098     0.548980710938    12.000000000000
         C            2.344336009685    -0.194235630098     0.071387710938    12.000000000000
         H           -2.789540990315    -0.617799630098    -1.444609289062     1.007825032230
         H           -2.034216990315    -1.720601630098    -0.296159289062     1.007825032230
         H            1.149415009685     1.412988369902    -0.774831289062     1.007825032230
         H            1.018936009685     1.271902369902     0.974244710938     1.007825032230
         H            0.142533909685    -1.124189030098    -0.318714789062     1.007825032230
         H           -3.288335990315    -0.617185630098     1.586759710938     1.007825032230
         H           -3.992775990315     0.529988369902     0.436588710938     1.007825032230
         H           -4.417521990315    -1.191769630098     0.349017710938     1.007825032230

  Basis Set: AUG-CC-PVTZ
    Blend: AUG-CC-PVTZ
  Basis Set: (AUG-CC-PVTZ AUX)
    Blend: AUG-CC-PVTZ-JKFIT
	 Reference Energy          =    -473.2866946402227768 [Eh]
	 Singles Energy            =      -0.0000000000000000 [Eh]
	 Same-Spin Energy          =      -0.4759421752122759 [Eh]
	 Opposite-Spin Energy      =      -1.4650072470050670 [Eh]
	 Correlation Energy        =      -1.9409494222173429 [Eh]
	 Total Energy              =    -475.2276440624401062 [Eh]

	 ================> DF-SCS-MP2 Energies <==================
	-----------------------------------------------------------
	 SCS Same-Spin Scale       =       0.3333333333333333 [-]
	 SCS Opposite-Spin Scale   =       1.2000000000000000 [-]
	 SCS Same-Spin Energy      =      -0.1586473917374253 [Eh]
	 SCS Opposite-Spin Energy  =      -1.7580086964060804 [Eh]
	 SCS Correlation Energy    =      -1.9166560881435057 [Eh]
	 SCS Total Energy          =    -475.2033507283662743 [Eh]
	-----------------------------------------------------------

  Dipole Moment: [D]
     X:    -9.3733      Y:    -1.1169      Z:    -0.5725     Total:     9.4570

*** Psi4 exiting successfully. Buy a developer a beer!
