                               Psi4 1.3.2 release

  ==> Input File <==

--------------------------------------------------------------------------
#psi4
#
memory 32 gb

molecule  {
-1 1
  O       -1.5186010     1.5599430    -0.1433510
  O        2.2638970    -1.4295650    -0.0456660
  O        3.5317420     0.4486470     0.1950180
  N        0.0040180    -0.1295860    -0.1151350
  C       -2.3384940    -0.6954940    -0.4149760
  C       -1.2508570     0.3439190    -0.2101810
  C        1.1754880     0.7048690     0.0403840
  C       -3.5055210    -0.4701880     0.5431350
  C        2.4465640    -0.1793200     0.0655420
  H       -2.6873130    -0.6028840    -1.4504550
  H       -1.9319890    -1.7056860    -0.3020050
  H        1.2516430     1.4279040    -0.7806770
  H        1.1211640     1.2868180     0.9683990
  H        0.2493713    -1.1057815    -0.3742249
  H       -3.1861080    -0.6022700     1.5809140
  H       -3.8905480     0.5449040     0.4307430
  H       -4.3152940    -1.1768540     0.3431720
units angstrom
no_reorient  #important for SAPT in psi4, default
symmetry c1  #important for SAPT in psi4, default
}

set PROPERTIES_ORIGIN ["COM"]
properties('MP2/aug-cc-pvtz', properties = ['dipole'])
--------------------------------------------------------------------------

    Molecular point group: c1
  Charge       = -1
  Multiplicity = 1
  Basis Set: AUG-CC-PVTZ
    Blend: AUG-CC-PVTZ
  Basis Set: (AUG-CC-PVTZ AUX)
    Blend: AUG-CC-PVTZ-JKFIT

    Orbital Energies [Eh]
    ---------------------

    Doubly Occupied:

       1A    -20.387748     2A    -20.322284     3A    -20.313586
       4A    -15.445908     5A    -11.221865     6A    -11.163546
       7A    -11.135083     8A    -11.127754     9A    -11.108591
      10A     -1.238551    11A     -1.190090    12A     -1.096081
      13A     -1.080634    14A     -0.949357    15A     -0.831064
      16A     -0.759366    17A     -0.647227    18A     -0.584060
      19A     -0.545047    20A     -0.526019    21A     -0.503568
      22A     -0.487123    23A     -0.472027    24A     -0.437034
      25A     -0.426665    26A     -0.419702    27A     -0.406782
      28A     -0.394586    29A     -0.379612    30A     -0.345305
      31A     -0.298826    32A     -0.256463    33A     -0.238432
      34A     -0.225639    35A     -0.215825

  @DF-RHF Final Energy:  -473.28558016227475

   => Energetics <=

    Nuclear Repulsion Energy =            435.1106726695137468
    One-Electron Energy =               -1522.4296102654070637
    Two-Electron Energy =                 614.0333574336184483
    Total Energy =                       -473.2855801622747549
  Basis Set: (AUG-CC-PVTZ AUX)
    Blend: AUG-CC-PVTZ-RI
    Molecular point group: c1

    Geometry (in Angstrom), charge = -1, multiplicity = 1:

       Center              X                  Y                   Z               Mass
    ------------   -----------------  -----------------  -----------------  -----------------
         O           -1.620864710836     1.545000309441    -0.137120415055    15.994914619570
         O            2.161633289164    -1.444507690559    -0.039435415055    15.994914619570
         O            3.429478289164     0.433704309441     0.201248584945    15.994914619570
         N           -0.098245710836    -0.144528690559    -0.108904415055    14.003074004430
         C           -2.440757710836    -0.710436690559    -0.408745415055    12.000000000000
         C           -1.353120710836     0.328976309441    -0.203950415055    12.000000000000
         C            1.073224289164     0.689926309441     0.046614584945    12.000000000000
         C           -3.607784710836    -0.485130690559     0.549365584945    12.000000000000
         C            2.344300289164    -0.194262690559     0.071772584945    12.000000000000
         H           -2.789576710836    -0.617826690559    -1.444224415055     1.007825032230
         H           -2.034252710836    -1.720628690559    -0.295774415055     1.007825032230
         H            1.149379289164     1.412961309441    -0.774446415055     1.007825032230
         H            1.018900289164     1.271875309441     0.974629584945     1.007825032230
         H            0.147107589164    -1.120724190559    -0.367994315055     1.007825032230
         H           -3.288371710836    -0.617212690559     1.587144584945     1.007825032230
         H           -3.992811710836     0.529961309441     0.436973584945     1.007825032230
         H           -4.417557710836    -1.191796690559     0.349402584945     1.007825032230

  Basis Set: AUG-CC-PVTZ
    Blend: AUG-CC-PVTZ
  Basis Set: (AUG-CC-PVTZ AUX)
    Blend: AUG-CC-PVTZ-JKFIT
	 Reference Energy          =    -473.2855801622747549 [Eh]
	 Singles Energy            =      -0.0000000000000000 [Eh]
	 Same-Spin Energy          =      -0.4760209381626508 [Eh]
	 Opposite-Spin Energy      =      -1.4651725243023392 [Eh]
	 Correlation Energy        =      -1.9411934624649900 [Eh]
	 Total Energy              =    -475.2267736247397352 [Eh]

	 ================> DF-SCS-MP2 Energies <==================
	-----------------------------------------------------------
	 SCS Same-Spin Scale       =       0.3333333333333333 [-]
	 SCS Opposite-Spin Scale   =       1.2000000000000000 [-]
	 SCS Same-Spin Energy      =      -0.1586736460542169 [Eh]
	 SCS Opposite-Spin Energy  =      -1.7582070291628071 [Eh]
	 SCS Correlation Energy    =      -1.9168806752170240 [Eh]
	 SCS Total Energy          =    -475.2024608374917989 [Eh]
	-----------------------------------------------------------

  Dipole Moment: [D]
     X:    -9.3759      Y:    -1.1056      Z:    -0.6256     Total:     9.4616

*** Psi4 exiting successfully. Buy a developer a beer!
