                               Psi4 1.3.2 release

  ==> Input File <==

--------------------------------------------------------------------------
#psi4
#
memory 32 gb

molecule  {
-1 1
  O       -1.5186010     1.5599430    -0.1433510
  O        2.2638970    -1.4295650    -0.0456660
  O        3.5317420     0.4486470     0.1950180
  N        0.0040180    -0.1295860    -0.1151350
  C       -2.3384940    -0.6954940    -0.4149760
  C       -1.2508570     0.3439190    -0.2101810
  C        1.1754880     0.7048690     0.0403840
  C       -3.5055210    -0.4701880     0.5431350
  C        2.4465640    -0.1793200     0.0655420
  H       -2.6873130    -0.6028840    -1.4504550
  H       -1.9319890    -1.7056860    -0.3020050
  H        1.2516430     1.4279040    -0.7806770
  H        1.1211640     1.2868180     0.9683990
  H        0.2401526    -1.1127652    -0.2748960
  H       -3.1861080    -0.6022700     1.5809140
  H       -3.8905480     0.5449040     0.4307430
  H       -4.3152940    -1.1768540     0.3431720
units angstrom
no_reorient  #important for SAPT in psi4, default
symmetry c1  #important for SAPT in psi4, default
}

set PROPERTIES_ORIGIN ["COM"]
properties('MP2/aug-cc-pvtz', properties = ['dipole'])
--------------------------------------------------------------------------

    Molecular point group: c1
  Charge       = -1
  Multiplicity = 1
  Basis Set: AUG-CC-PVTZ
    Blend: AUG-CC-PVTZ
  Basis Set: (AUG-CC-PVTZ AUX)
    Blend: AUG-CC-PVTZ-JKFIT

    Orbital Energies [Eh]
    ---------------------

    Doubly Occupied:

       1A    -20.387260     2A    -20.322558     3A    -20.313758
       4A    -15.445194     5A    -11.221918     6A    -11.163803
       7A    -11.135218     8A    -11.127782     9A    -11.108798
      10A     -1.238390    11A     -1.190362    12A     -1.096942
      13A     -1.081483    14A     -0.949464    15A     -0.831258
      16A     -0.759714    17A     -0.651047    18A     -0.584999
      19A     -0.545174    20A     -0.526443    21A     -0.502874
      22A     -0.486332    23A     -0.473694    24A     -0.437144
      25A     -0.427381    26A     -0.419872    27A     -0.407210
      28A     -0.394838    29A     -0.380385    30A     -0.345419
      31A     -0.298615    32A     -0.256317    33A     -0.238826
      34A     -0.225866    35A     -0.216020

  @DF-RHF Final Energy:  -473.28743493204530

   => Energetics <=

    Nuclear Repulsion Energy =            435.1985384081744428
    One-Electron Energy =               -1522.5872309824060267
    Two-Electron Energy =                 614.1012576421861695
    Total Energy =                       -473.2874349320453575
  Basis Set: (AUG-CC-PVTZ AUX)
    Blend: AUG-CC-PVTZ-RI
    Molecular point group: c1

    Geometry (in Angstrom), charge = -1, multiplicity = 1:

       Center              X                  Y                   Z               Mass
    ------------   -----------------  -----------------  -----------------  -----------------
         O           -1.620793270568     1.545054429588    -0.137890163844    15.994914619570
         O            2.161704729432    -1.444453570412    -0.040205163844    15.994914619570
         O            3.429549729432     0.433758429588     0.200478836156    15.994914619570
         N           -0.098174270568    -0.144474570412    -0.109674163844    14.003074004430
         C           -2.440686270568    -0.710382570412    -0.409515163844    12.000000000000
         C           -1.353049270568     0.329030429588    -0.204720163844    12.000000000000
         C            1.073295729432     0.689980429588     0.045844836156    12.000000000000
         C           -3.607713270568    -0.485076570412     0.548595836156    12.000000000000
         C            2.344371729432    -0.194208570412     0.071002836156    12.000000000000
         H           -2.789505270568    -0.617772570412    -1.444994163844     1.007825032230
         H           -2.034181270568    -1.720574570412    -0.296544163844     1.007825032230
         H            1.149450729432     1.413015429588    -0.775216163844     1.007825032230
         H            1.018971729432     1.271929429588     0.973859836156     1.007825032230
         H            0.137960329432    -1.127653770412    -0.269435163844     1.007825032230
         H           -3.288300270568    -0.617158570412     1.586374836156     1.007825032230
         H           -3.992740270568     0.530015429588     0.436203836156     1.007825032230
         H           -4.417486270568    -1.191742570412     0.348632836156     1.007825032230

  Basis Set: AUG-CC-PVTZ
    Blend: AUG-CC-PVTZ
  Basis Set: (AUG-CC-PVTZ AUX)
    Blend: AUG-CC-PVTZ-JKFIT
	 Reference Energy          =    -473.2874349320453007 [Eh]
	 Singles Energy            =      -0.0000000000000000 [Eh]
	 Same-Spin Energy          =      -0.4758842697728310 [Eh]
	 Opposite-Spin Energy      =      -1.4648894318361680 [Eh]
	 Correlation Energy        =      -1.9407737016089990 [Eh]
	 Total Energy              =    -475.2282086336542761 [Eh]

	 ================> DF-SCS-MP2 Energies <==================
	-----------------------------------------------------------
	 SCS Same-Spin Scale       =       0.3333333333333333 [-]
	 SCS Opposite-Spin Scale   =       1.2000000000000000 [-]
	 SCS Same-Spin Energy      =      -0.1586280899242770 [Eh]
	 SCS Opposite-Spin Energy  =      -1.7578673182034017 [Eh]
	 SCS Correlation Energy    =      -1.9164954081276786 [Eh]
	 SCS Total Energy          =    -475.2039303401729740 [Eh]
	-----------------------------------------------------------

  Dipole Moment: [D]
     X:    -9.3727      Y:    -1.1263      Z:    -0.5190     Total:     9.4544

*** Psi4 exiting successfully. Buy a developer a beer!
