                               Psi4 1.3.2 release

  ==> Input File <==

--------------------------------------------------------------------------
#psi4
#
memory 32 gb

molecule  {
-1 1
  O       -1.5186010     1.5599430    -0.1433510
  O        2.2638970    -1.4295650    -0.0456660
  O        3.5317420     0.4486470     0.1950180
  N        0.0040180    -0.1295860    -0.1151350
  C       -2.3384940    -0.6954940    -0.4149760
  C       -1.2508570     0.3439190    -0.2101810
  C        1.1533795     0.6815702     0.3386597
  C       -3.5055210    -0.4701880     0.5431350
  C        2.4465640    -0.1793200     0.0655420
  H       -2.6873130    -0.6028840    -1.4504550
  H       -1.9319890    -1.7056860    -0.3020050
  H        1.2516430     1.4279040    -0.7806770
  H        1.1211640     1.2868180     0.9683990
  H        0.2309340    -1.1197490    -0.1755670
  H       -3.1861080    -0.6022700     1.5809140
  H       -3.8905480     0.5449040     0.4307430
  H       -4.3152940    -1.1768540     0.3431720
units angstrom
no_reorient  #important for SAPT in psi4, default
symmetry c1  #important for SAPT in psi4, default
}

set PROPERTIES_ORIGIN ["COM"]
properties('MP2/aug-cc-pvtz', properties = ['dipole'])
--------------------------------------------------------------------------

    Molecular point group: c1
  Charge       = -1
  Multiplicity = 1
  Basis Set: AUG-CC-PVTZ
    Blend: AUG-CC-PVTZ
  Basis Set: (AUG-CC-PVTZ AUX)
    Blend: AUG-CC-PVTZ-JKFIT

    Orbital Energies [Eh]
    ---------------------

    Doubly Occupied:

       1A    -20.387580     2A    -20.325021     3A    -20.314774
       4A    -15.449149     5A    -11.221837     6A    -11.172126
       7A    -11.135300     8A    -11.128871     9A    -11.118601
      10A     -1.238046    11A     -1.191556    12A     -1.096678
      13A     -1.080820    14A     -0.949506    15A     -0.837106
      16A     -0.765602    17A     -0.662556    18A     -0.583943
      19A     -0.557212    20A     -0.541137    21A     -0.511864
      22A     -0.479724    23A     -0.468651    24A     -0.441833
      25A     -0.423821    26A     -0.417828    27A     -0.406022
      28A     -0.402718    29A     -0.377961    30A     -0.323120
      31A     -0.299137    32A     -0.249195    33A     -0.234709
      34A     -0.225167    35A     -0.213951

  @DF-RHF Final Energy:  -473.19115781721308

   => Energetics <=

    Nuclear Repulsion Energy =            434.5817007444177307
    One-Electron Energy =               -1521.0794788173986944
    Two-Electron Energy =                 613.3066202557679389
    Total Energy =                       -473.1911578172130248
  Basis Set: (AUG-CC-PVTZ AUX)
    Blend: AUG-CC-PVTZ-RI
    Molecular point group: c1

    Geometry (in Angstrom), charge = -1, multiplicity = 1:

       Center              X                  Y                   Z               Mass
    ------------   -----------------  -----------------  -----------------  -----------------
         O           -1.618681837635     1.547258375201    -0.166182380861    15.994914619570
         O            2.163816162365    -1.442249624799    -0.068497380861    15.994914619570
         O            3.431661162365     0.435962375201     0.172186619139    15.994914619570
         N           -0.096062837635    -0.142270624799    -0.137966380861    14.003074004430
         C           -2.438574837635    -0.708178624799    -0.437807380861    12.000000000000
         C           -1.350937837635     0.331234375201    -0.233012380861    12.000000000000
         C            1.053298662365     0.668885575201     0.315828319139    12.000000000000
         C           -3.605601837635    -0.482872624799     0.520303619139    12.000000000000
         C            2.346483162365    -0.192004624799     0.042710619139    12.000000000000
         H           -2.787393837635    -0.615568624799    -1.473286380861     1.007825032230
         H           -2.032069837635    -1.718370624799    -0.324836380861     1.007825032230
         H            1.151562162365     1.415219375201    -0.803508380861     1.007825032230
         H            1.021083162365     1.274133375201     0.945567619139     1.007825032230
         H            0.130853162365    -1.132433624799    -0.198398380861     1.007825032230
         H           -3.286188837635    -0.614954624799     1.558082619139     1.007825032230
         H           -3.990628837635     0.532219375201     0.407911619139     1.007825032230
         H           -4.415374837635    -1.189538624799     0.320340619139     1.007825032230

  Basis Set: AUG-CC-PVTZ
    Blend: AUG-CC-PVTZ
  Basis Set: (AUG-CC-PVTZ AUX)
    Blend: AUG-CC-PVTZ-JKFIT
	 Reference Energy          =    -473.1911578172130817 [Eh]
	 Singles Energy            =      -0.0000000000000000 [Eh]
	 Same-Spin Energy          =      -0.4771525771356907 [Eh]
	 Opposite-Spin Energy      =      -1.4693875176154485 [Eh]
	 Correlation Energy        =      -1.9465400947511391 [Eh]
	 Total Energy              =    -475.1376979119642101 [Eh]

	 ================> DF-SCS-MP2 Energies <==================
	-----------------------------------------------------------
	 SCS Same-Spin Scale       =       0.3333333333333333 [-]
	 SCS Opposite-Spin Scale   =       1.2000000000000000 [-]
	 SCS Same-Spin Energy      =      -0.1590508590452302 [Eh]
	 SCS Opposite-Spin Energy  =      -1.7632650211385381 [Eh]
	 SCS Correlation Energy    =      -1.9223158801837683 [Eh]
	 SCS Total Energy          =    -475.1134736973968415 [Eh]
	-----------------------------------------------------------

  Dipole Moment: [D]
     X:    -9.3937      Y:    -1.3103      Z:     0.1461     Total:     9.4858

*** Psi4 exiting successfully. Buy a developer a beer!
