                               Psi4 1.3.2 release

  ==> Input File <==

--------------------------------------------------------------------------
#psi4
#
memory 32 gb

molecule  {
-1 1
  O       -1.5186010     1.5599430    -0.1433510
  O        2.2638970    -1.4295650    -0.0456660
  O        3.5317420     0.4486470     0.1950180
  N        0.0040180    -0.1295860    -0.1151350
  C       -2.3384940    -0.6954940    -0.4149760
  C       -1.2508570     0.3439190    -0.2101810
  C        1.1754880     0.7048690     0.0403840
  C       -3.5055210    -0.4701880     0.5431350
  C        2.4465640    -0.1793200     0.0655420
  H       -2.6873130    -0.6028840    -1.4504550
  H       -1.9319890    -1.7056860    -0.3020050
  H        1.2516430     1.4279040    -0.7806770
  H        1.1211640     1.2868180     0.9683990
  H        0.2585899    -1.0987977    -0.4735539
  H       -3.1861080    -0.6022700     1.5809140
  H       -3.8905480     0.5449040     0.4307430
  H       -4.3152940    -1.1768540     0.3431720
units angstrom
no_reorient  #important for SAPT in psi4, default
symmetry c1  #important for SAPT in psi4, default
}

set PROPERTIES_ORIGIN ["COM"]
properties('MP2/aug-cc-pvtz', properties = ['dipole'])
--------------------------------------------------------------------------

    Molecular point group: c1
  Charge       = -1
  Multiplicity = 1
  Basis Set: AUG-CC-PVTZ
    Blend: AUG-CC-PVTZ
  Basis Set: (AUG-CC-PVTZ AUX)
    Blend: AUG-CC-PVTZ-JKFIT

    Orbital Energies [Eh]
    ---------------------

    Doubly Occupied:

       1A    -20.388498     2A    -20.321812     3A    -20.313295
       4A    -15.447083     5A    -11.221819     6A    -11.163119
       7A    -11.134896     8A    -11.127718     9A    -11.108299
      10A     -1.238814    11A     -1.189632    12A     -1.094846
      13A     -1.079260    14A     -0.949222    15A     -0.830779
      16A     -0.758915    17A     -0.641601    18A     -0.582560
      19A     -0.544870    20A     -0.525593    21A     -0.504059
      22A     -0.487899    23A     -0.470287    24A     -0.436898
      25A     -0.425763    26A     -0.419227    27A     -0.406292
      28A     -0.393827    29A     -0.378476    30A     -0.345104
      31A     -0.299156    32A     -0.256696    33A     -0.237774
      34A     -0.225247    35A     -0.215478

  @DF-RHF Final Energy:  -473.28195901411061

   => Energetics <=

    Nuclear Repulsion Energy =            434.9751402614773497
    One-Electron Energy =               -1522.1845686551785093
    Two-Electron Energy =                 613.9274693795906614
    Total Energy =                       -473.2819590141106119
  Basis Set: (AUG-CC-PVTZ AUX)
    Blend: AUG-CC-PVTZ-RI
    Molecular point group: c1

    Geometry (in Angstrom), charge = -1, multiplicity = 1:

       Center              X                  Y                   Z               Mass
    ------------   -----------------  -----------------  -----------------  -----------------
         O           -1.620936150328     1.544946188520    -0.136350665491    15.994914619570
         O            2.161561849672    -1.444561811480    -0.038665665491    15.994914619570
         O            3.429406849672     0.433650188520     0.202018334509    15.994914619570
         N           -0.098317150328    -0.144582811480    -0.108134665491    14.003074004430
         C           -2.440829150328    -0.710490811480    -0.407975665491    12.000000000000
         C           -1.353192150328     0.328922188520    -0.203180665491    12.000000000000
         C            1.073152849672     0.689872188520     0.047384334509    12.000000000000
         C           -3.607856150328    -0.485184811480     0.550135334509    12.000000000000
         C            2.344228849672    -0.194316811480     0.072542334509    12.000000000000
         H           -2.789648150328    -0.617880811480    -1.443454665491     1.007825032230
         H           -2.034324150328    -1.720682811480    -0.295004665491     1.007825032230
         H            1.149307849672     1.412907188520    -0.773676665491     1.007825032230
         H            1.018828849672     1.271821188520     0.975399334509     1.007825032230
         H            0.156254749672    -1.113794511480    -0.466553565491     1.007825032230
         H           -3.288443150328    -0.617266811480     1.587914334509     1.007825032230
         H           -3.992883150328     0.529907188520     0.437743334509     1.007825032230
         H           -4.417629150328    -1.191850811480     0.350172334509     1.007825032230

  Basis Set: AUG-CC-PVTZ
    Blend: AUG-CC-PVTZ
  Basis Set: (AUG-CC-PVTZ AUX)
    Blend: AUG-CC-PVTZ-JKFIT
	 Reference Energy          =    -473.2819590141106119 [Eh]
	 Singles Energy            =      -0.0000000000000000 [Eh]
	 Same-Spin Energy          =      -0.4762383757282453 [Eh]
	 Opposite-Spin Energy      =      -1.4656535417957492 [Eh]
	 Correlation Energy        =      -1.9418919175239946 [Eh]
	 Total Energy              =    -475.2238509316346153 [Eh]

	 ================> DF-SCS-MP2 Energies <==================
	-----------------------------------------------------------
	 SCS Same-Spin Scale       =       0.3333333333333333 [-]
	 SCS Opposite-Spin Scale   =       1.2000000000000000 [-]
	 SCS Same-Spin Energy      =      -0.1587461252427484 [Eh]
	 SCS Opposite-Spin Energy  =      -1.7587842501548991 [Eh]
	 SCS Correlation Energy    =      -1.9175303753976476 [Eh]
	 SCS Total Energy          =    -475.1994893895082441 [Eh]
	-----------------------------------------------------------

  Dipole Moment: [D]
     X:    -9.3865      Y:    -1.0775      Z:    -0.7307     Total:     9.4764

*** Psi4 exiting successfully. Buy a developer a beer!
