                               Psi4 1.3.2 release

  ==> Input File <==

--------------------------------------------------------------------------
#psi4
#
memory 32 gb

molecule  {
-1 1
  O       -1.5186010     1.5599430    -0.1433510
  O        2.2638970    -1.4295650    -0.0456660
  O        3.5317420     0.4486470     0.1950180
  N        0.0040180    -0.1295860    -0.1151350
  C       -2.3277492    -0.6874656    -0.5140724
  C       -1.2508570     0.3439190    -0.2101810
  C        1.1754880     0.7048690     0.0403840
  C       -3.5055210    -0.4701880     0.5431350
  C        2.4465640    -0.1793200     0.0655420
  H       -2.6873130    -0.6028840    -1.4504550
  H       -1.9319890    -1.7056860    -0.3020050
  H        1.2516430     1.4279040    -0.7806770
  H        1.1211640     1.2868180     0.9683990
  H        0.2309340    -1.1197490    -0.1755670
  H       -3.1861080    -0.6022700     1.5809140
  H       -3.8905480     0.5449040     0.4307430
  H       -4.3152940    -1.1768540     0.3431720
units angstrom
no_reorient  #important for SAPT in psi4, default
symmetry c1  #important for SAPT in psi4, default
}

set PROPERTIES_ORIGIN ["COM"]
properties('MP2/aug-cc-pvtz', properties = ['dipole'])
--------------------------------------------------------------------------

    Molecular point group: c1
  Charge       = -1
  Multiplicity = 1
  Basis Set: AUG-CC-PVTZ
    Blend: AUG-CC-PVTZ
  Basis Set: (AUG-CC-PVTZ AUX)
    Blend: AUG-CC-PVTZ-JKFIT

    Orbital Energies [Eh]
    ---------------------

    Doubly Occupied:

       1A    -20.387125     2A    -20.322540     3A    -20.313763
       4A    -15.444878     5A    -11.222313     6A    -11.163823
       7A    -11.132958     8A    -11.130692     9A    -11.108859
      10A     -1.238197    11A     -1.190371    12A     -1.097178
      13A     -1.081677    14A     -0.940680    15A     -0.829215
      16A     -0.765493    17A     -0.653887    18A     -0.588979
      19A     -0.542393    20A     -0.531612    21A     -0.500120
      22A     -0.485122    23A     -0.472990    24A     -0.436301
      25A     -0.430757    26A     -0.423089    27A     -0.401841
      28A     -0.395236    29A     -0.377102    30A     -0.345489
      31A     -0.298265    32A     -0.255999    33A     -0.238856
      34A     -0.225861    35A     -0.215986

  @DF-RHF Final Energy:  -473.27794234069898

   => Energetics <=

    Nuclear Repulsion Energy =            434.7252599621040190
    One-Electron Energy =               -1521.6271130719151188
    Two-Electron Energy =                 613.6239107691120580
    Total Energy =                       -473.2779423406990418
  Basis Set: (AUG-CC-PVTZ AUX)
    Blend: AUG-CC-PVTZ-RI
    Molecular point group: c1

    Geometry (in Angstrom), charge = -1, multiplicity = 1:

       Center              X                  Y                   Z               Mass
    ------------   -----------------  -----------------  -----------------  -----------------
         O           -1.621713274255     1.544367754736    -0.129516099669    15.994914619570
         O            2.160784725745    -1.445140245264    -0.031831099669    15.994914619570
         O            3.428629725745     0.433071754736     0.208852900331    15.994914619570
         N           -0.099094274255    -0.145161245264    -0.101300099669    14.003074004430
         C           -2.430861474255    -0.703040845264    -0.500237499669    12.000000000000
         C           -1.353969274255     0.328343754736    -0.196346099669    12.000000000000
         C            1.072375725745     0.689293754736     0.054218900331    12.000000000000
         C           -3.608633274255    -0.485763245264     0.556969900331    12.000000000000
         C            2.343451725745    -0.194895245264     0.079376900331    12.000000000000
         H           -2.790425274255    -0.618459245264    -1.436620099669     1.007825032230
         H           -2.035101274255    -1.721261245264    -0.288170099669     1.007825032230
         H            1.148530725745     1.412328754736    -0.766842099669     1.007825032230
         H            1.018051725745     1.271242754736     0.982233900331     1.007825032230
         H            0.127821725745    -1.135324245264    -0.161732099669     1.007825032230
         H           -3.289220274255    -0.617845245264     1.594748900331     1.007825032230
         H           -3.993660274255     0.529328754736     0.444577900331     1.007825032230
         H           -4.418406274255    -1.192429245264     0.357006900331     1.007825032230

  Basis Set: AUG-CC-PVTZ
    Blend: AUG-CC-PVTZ
  Basis Set: (AUG-CC-PVTZ AUX)
    Blend: AUG-CC-PVTZ-JKFIT
	 Reference Energy          =    -473.2779423406989849 [Eh]
	 Singles Energy            =      -0.0000000000000000 [Eh]
	 Same-Spin Energy          =      -0.4756756239173875 [Eh]
	 Opposite-Spin Energy      =      -1.4651017795542374 [Eh]
	 Correlation Energy        =      -1.9407774034716248 [Eh]
	 Total Energy              =    -475.2187197441705848 [Eh]

	 ================> DF-SCS-MP2 Energies <==================
	-----------------------------------------------------------
	 SCS Same-Spin Scale       =       0.3333333333333333 [-]
	 SCS Opposite-Spin Scale   =       1.2000000000000000 [-]
	 SCS Same-Spin Energy      =      -0.1585585413057958 [Eh]
	 SCS Opposite-Spin Energy  =      -1.7581221354650849 [Eh]
	 SCS Correlation Energy    =      -1.9166806767708806 [Eh]
	 SCS Total Energy          =    -475.1946230174698940 [Eh]
	-----------------------------------------------------------

  Dipole Moment: [D]
     X:    -9.3577      Y:    -1.1084      Z:    -0.5062     Total:     9.4367

*** Psi4 exiting successfully. Buy a developer a beer!
