                               Psi4 1.3.2 release

  ==> Input File <==

--------------------------------------------------------------------------
#psi4
#
memory 32 gb

molecule  {
-1 1
  O       -1.5186010     1.5599430    -0.1433510
  O        2.2638970    -1.4295650    -0.0456660
  O        3.5317420     0.4486470     0.1950180
  N        0.0040180    -0.1295860    -0.1151350
  C       -2.3384940    -0.6954940    -0.4149760
  C       -1.2508570     0.3439190    -0.2101810
  C        1.1754880     0.7048690     0.0403840
  C       -3.5055210    -0.4701880     0.5431350
  C        2.4465640    -0.1793200     0.0655420
  H       -2.6873130    -0.6028840    -1.4504550
  H       -1.9319890    -1.7056860    -0.3020050
  H        1.2516430     1.4279040    -0.7806770
  H        1.1211640     1.2868180     0.9683990
  H        0.2355433    -1.1162571    -0.2252315
  H       -3.1861080    -0.6022700     1.5809140
  H       -3.8905480     0.5449040     0.4307430
  H       -4.3152940    -1.1768540     0.3431720
units angstrom
no_reorient  #important for SAPT in psi4, default
symmetry c1  #important for SAPT in psi4, default
}

set PROPERTIES_ORIGIN ["COM"]
properties('MP2/aug-cc-pvtz', properties = ['dipole'])
--------------------------------------------------------------------------

    Molecular point group: c1
  Charge       = -1
  Multiplicity = 1
  Basis Set: AUG-CC-PVTZ
    Blend: AUG-CC-PVTZ
  Basis Set: (AUG-CC-PVTZ AUX)
    Blend: AUG-CC-PVTZ-JKFIT

    Orbital Energies [Eh]
    ---------------------

    Doubly Occupied:

       1A    -20.387127     2A    -20.322614     3A    -20.313796
       4A    -15.445019     5A    -11.221942     6A    -11.163861
       7A    -11.135264     8A    -11.127797     9A    -11.108860
      10A     -1.238348    11A     -1.190422    12A     -1.097181
      13A     -1.081705    14A     -0.949507    15A     -0.831313
      16A     -0.759833    17A     -0.652116    18A     -0.585285
      19A     -0.545216    20A     -0.526647    21A     -0.502472
      22A     -0.485954    23A     -0.474458    24A     -0.437187
      25A     -0.427617    26A     -0.419871    27A     -0.407394
      28A     -0.394794    29A     -0.380645    30A     -0.345442
      31A     -0.298562    32A     -0.256277    33A     -0.238915
      34A     -0.225911    35A     -0.216058

  @DF-RHF Final Energy:  -473.28785741363663

   => Energetics <=

    Nuclear Repulsion Energy =            435.2229891070290932
    One-Electron Energy =               -1522.6308714273716305
    Two-Electron Energy =                 614.1200249067060213
    Total Energy =                       -473.2878574136366296
  Basis Set: (AUG-CC-PVTZ AUX)
    Blend: AUG-CC-PVTZ-RI
    Molecular point group: c1

    Geometry (in Angstrom), charge = -1, multiplicity = 1:

       Center              X                  Y                   Z               Mass
    ------------   -----------------  -----------------  -----------------  -----------------
         O           -1.620757550822     1.545081490049    -0.138275038626    15.994914619570
         O            2.161740449178    -1.444426509951    -0.040590038626    15.994914619570
         O            3.429585449178     0.433785490049     0.200093961374    15.994914619570
         N           -0.098138550822    -0.144447509951    -0.110059038626    14.003074004430
         C           -2.440650550822    -0.710355509951    -0.409900038626    12.000000000000
         C           -1.353013550822     0.329057490049    -0.205105038626    12.000000000000
         C            1.073331449178     0.690007490049     0.045459961374    12.000000000000
         C           -3.607677550822    -0.485049509951     0.548210961374    12.000000000000
         C            2.344407449178    -0.194181509951     0.070617961374    12.000000000000
         H           -2.789469550822    -0.617745509951    -1.445379038626     1.007825032230
         H           -2.034145550822    -1.720547509951    -0.296929038626     1.007825032230
         H            1.149486449178     1.413042490049    -0.775601038626     1.007825032230
         H            1.019007449178     1.271956490049     0.973474961374     1.007825032230
         H            0.133386749178    -1.131118609951    -0.220155538626     1.007825032230
         H           -3.288264550822    -0.617131509951     1.585989961374     1.007825032230
         H           -3.992704550822     0.530042490049     0.435818961374     1.007825032230
         H           -4.417450550822    -1.191715509951     0.348247961374     1.007825032230

  Basis Set: AUG-CC-PVTZ
    Blend: AUG-CC-PVTZ
  Basis Set: (AUG-CC-PVTZ AUX)
    Blend: AUG-CC-PVTZ-JKFIT
	 Reference Energy          =    -473.2878574136366296 [Eh]
	 Singles Energy            =      -0.0000000000000000 [Eh]
	 Same-Spin Energy          =      -0.4758475804501625 [Eh]
	 Opposite-Spin Energy      =      -1.4648165081344957 [Eh]
	 Correlation Energy        =      -1.9406640885846582 [Eh]
	 Total Energy              =    -475.2285215022212697 [Eh]

	 ================> DF-SCS-MP2 Energies <==================
	-----------------------------------------------------------
	 SCS Same-Spin Scale       =       0.3333333333333333 [-]
	 SCS Opposite-Spin Scale   =       1.2000000000000000 [-]
	 SCS Same-Spin Energy      =      -0.1586158601500542 [Eh]
	 SCS Opposite-Spin Energy  =      -1.7577798097613948 [Eh]
	 SCS Correlation Energy    =      -1.9163956699114491 [Eh]
	 SCS Total Energy          =    -475.2042530835480534 [Eh]
	-----------------------------------------------------------

  Dipole Moment: [D]
     X:    -9.3744      Y:    -1.1337      Z:    -0.4654     Total:     9.4541

*** Psi4 exiting successfully. Buy a developer a beer!
