                               Psi4 1.3.2 release

  ==> Input File <==

--------------------------------------------------------------------------
#psi4
#
memory 32 gb

molecule  {
-1 1
  O       -1.5186010     1.5599430    -0.1433510
  O        2.2638970    -1.4295650    -0.0456660
  O        3.5317420     0.4486470     0.1950180
  N        0.0040180    -0.1295860    -0.1151350
  C       -2.3384940    -0.6954940    -0.4149760
  C       -1.2508570     0.3439190    -0.2101810
  C        1.1754880     0.7048690     0.0403840
  C       -3.5055210    -0.4701880     0.5431350
  C        2.4465640    -0.1793200     0.0655420
  H       -2.6873130    -0.6028840    -1.4504550
  H       -1.9319890    -1.7056860    -0.3020050
  H        1.2516430     1.4279040    -0.7806770
  H        1.1211640     1.2868180     0.9683990
  H        0.2539806    -1.1022896    -0.4238894
  H       -3.1861080    -0.6022700     1.5809140
  H       -3.8905480     0.5449040     0.4307430
  H       -4.3152940    -1.1768540     0.3431720
units angstrom
no_reorient  #important for SAPT in psi4, default
symmetry c1  #important for SAPT in psi4, default
}

set PROPERTIES_ORIGIN ["COM"]
properties('MP2/aug-cc-pvtz', properties = ['dipole'])
--------------------------------------------------------------------------

    Molecular point group: c1
  Charge       = -1
  Multiplicity = 1
  Basis Set: AUG-CC-PVTZ
    Blend: AUG-CC-PVTZ
  Basis Set: (AUG-CC-PVTZ AUX)
    Blend: AUG-CC-PVTZ-JKFIT

    Orbital Energies [Eh]
    ---------------------

    Doubly Occupied:

       1A    -20.388093     2A    -20.322071     3A    -20.313454
       4A    -15.446441     5A    -11.221840     6A    -11.163352
       7A    -11.134996     8A    -11.127737     9A    -11.108453
      10A     -1.238670    11A     -1.189882    12A     -1.095499
      13A     -1.080010    14A     -0.949293    15A     -0.830931
      16A     -0.759150    17A     -0.644599    18A     -0.583386
      19A     -0.544964    20A     -0.525805    21A     -0.503843
      22A     -0.487517    23A     -0.471160    24A     -0.436969
      25A     -0.426224    26A     -0.419510    27A     -0.406543
      28A     -0.394273    29A     -0.379092    30A     -0.345215
      31A     -0.298977    32A     -0.256569    33A     -0.238134
      34A     -0.225462    35A     -0.215670

  @DF-RHF Final Energy:  -473.28402478645887

   => Energetics <=

    Nuclear Repulsion Energy =            435.0484756179041028
    One-Electron Energy =               -1522.3174329468351971
    Two-Electron Energy =                 613.9849325424721656
    Total Energy =                       -473.2840247864588719
  Basis Set: (AUG-CC-PVTZ AUX)
    Blend: AUG-CC-PVTZ-RI
    Molecular point group: c1

    Geometry (in Angstrom), charge = -1, multiplicity = 1:

       Center              X                  Y                   Z               Mass
    ------------   -----------------  -----------------  -----------------  -----------------
         O           -1.620900430582     1.544973248981    -0.136735540273    15.994914619570
         O            2.161597569418    -1.444534751019    -0.039050540273    15.994914619570
         O            3.429442569418     0.433677248981     0.201633459727    15.994914619570
         N           -0.098281430582    -0.144555751019    -0.108519540273    14.003074004430
         C           -2.440793430582    -0.710463751019    -0.408360540273    12.000000000000
         C           -1.353156430582     0.328949248981    -0.203565540273    12.000000000000
         C            1.073188569418     0.689899248981     0.046999459727    12.000000000000
         C           -3.607820430582    -0.485157751019     0.549750459727    12.000000000000
         C            2.344264569418    -0.194289751019     0.072157459727    12.000000000000
         H           -2.789612430582    -0.617853751019    -1.443839540273     1.007825032230
         H           -2.034288430582    -1.720655751019    -0.295389540273     1.007825032230
         H            1.149343569418     1.412934248981    -0.774061540273     1.007825032230
         H            1.018864569418     1.271848248981     0.975014459727     1.007825032230
         H            0.151681169418    -1.117259351019    -0.417273940273     1.007825032230
         H           -3.288407430582    -0.617239751019     1.587529459727     1.007825032230
         H           -3.992847430582     0.529934248981     0.437358459727     1.007825032230
         H           -4.417593430582    -1.191823751019     0.349787459727     1.007825032230

  Basis Set: AUG-CC-PVTZ
    Blend: AUG-CC-PVTZ
  Basis Set: (AUG-CC-PVTZ AUX)
    Blend: AUG-CC-PVTZ-JKFIT
	 Reference Energy          =    -473.2840247864588719 [Eh]
	 Singles Energy            =      -0.0000000000000000 [Eh]
	 Same-Spin Energy          =      -0.4761199606270647 [Eh]
	 Opposite-Spin Energy      =      -1.4653874748640643 [Eh]
	 Correlation Energy        =      -1.9415074354911290 [Eh]
	 Total Energy              =    -475.2255322219500044 [Eh]

	 ================> DF-SCS-MP2 Energies <==================
	-----------------------------------------------------------
	 SCS Same-Spin Scale       =       0.3333333333333333 [-]
	 SCS Opposite-Spin Scale   =       1.2000000000000000 [-]
	 SCS Same-Spin Energy      =      -0.1587066535423549 [Eh]
	 SCS Opposite-Spin Energy  =      -1.7584649698368771 [Eh]
	 SCS Correlation Energy    =      -1.9171716233792320 [Eh]
	 SCS Total Energy          =    -475.2011964098380759 [Eh]
	-----------------------------------------------------------

  Dipole Moment: [D]
     X:    -9.3804      Y:    -1.0925      Z:    -0.6784     Total:     9.4681

*** Psi4 exiting successfully. Buy a developer a beer!
