                               Psi4 1.3.2 release

  ==> Input File <==

--------------------------------------------------------------------------
#psi4
#
memory 32 gb

molecule  {
-1 1
  O       -1.5186010     1.5599430    -0.1433510
  O        2.2638970    -1.4295650    -0.0456660
  O        3.5317420     0.4486470     0.1950180
  N        0.0040180    -0.1295860    -0.1151350
  C       -2.3116320    -0.6754231    -0.6627170
  C       -1.2508570     0.3439190    -0.2101810
  C        1.1754880     0.7048690     0.0403840
  C       -3.5055210    -0.4701880     0.5431350
  C        2.4465640    -0.1793200     0.0655420
  H       -2.6873130    -0.6028840    -1.4504550
  H       -1.9319890    -1.7056860    -0.3020050
  H        1.2516430     1.4279040    -0.7806770
  H        1.1211640     1.2868180     0.9683990
  H        0.2309340    -1.1197490    -0.1755670
  H       -3.1861080    -0.6022700     1.5809140
  H       -3.8905480     0.5449040     0.4307430
  H       -4.3152940    -1.1768540     0.3431720
units angstrom
no_reorient  #important for SAPT in psi4, default
symmetry c1  #important for SAPT in psi4, default
}

set PROPERTIES_ORIGIN ["COM"]
properties('MP2/aug-cc-pvtz', properties = ['dipole'])
--------------------------------------------------------------------------

    Molecular point group: c1
  Charge       = -1
  Multiplicity = 1
  Basis Set: AUG-CC-PVTZ
    Blend: AUG-CC-PVTZ
  Basis Set: (AUG-CC-PVTZ AUX)
    Blend: AUG-CC-PVTZ-JKFIT

    Orbital Energies [Eh]
    ---------------------

    Doubly Occupied:

       1A    -20.387823     2A    -20.322631     3A    -20.313940
       4A    -15.445174     5A    -11.225959     6A    -11.164021
       7A    -11.135559     8A    -11.134102     9A    -11.109309
      10A     -1.238478    11A     -1.190513    12A     -1.097365
      13A     -1.081839    14A     -0.932963    15A     -0.826495
      16A     -0.777703    17A     -0.658695    18A     -0.603731
      19A     -0.538053    20A     -0.535149    21A     -0.498081
      22A     -0.485226    23A     -0.470820    24A     -0.447412
      25A     -0.431431    26A     -0.424333    27A     -0.401756
      28A     -0.394412    29A     -0.352420    30A     -0.340008
      31A     -0.297019    32A     -0.255784    33A     -0.238951
      34A     -0.226006    35A     -0.216062

  @DF-RHF Final Energy:  -473.21344469928164

   => Energetics <=

    Nuclear Repulsion Energy =            433.8840042339956540
    One-Electron Energy =               -1519.7964530314784497
    Two-Electron Energy =                 612.6990040982011578
    Total Energy =                       -473.2134446992815811
  Basis Set: (AUG-CC-PVTZ AUX)
    Blend: AUG-CC-PVTZ-RI
    Molecular point group: c1

    Geometry (in Angstrom), charge = -1, multiplicity = 1:

       Center              X                  Y                   Z               Mass
    ------------   -----------------  -----------------  -----------------  -----------------
         O           -1.623200439024     1.543256570304    -0.115800379060    15.994914619570
         O            2.159297560976    -1.446251429696    -0.018115379060    15.994914619570
         O            3.427142560976     0.431960570304     0.222568620940    15.994914619570
         N           -0.100581439024    -0.146272429696    -0.087584379060    14.003074004430
         C           -2.416231439024    -0.692109529696    -0.635166379060    12.000000000000
         C           -1.355456439024     0.327232570304    -0.182630379060    12.000000000000
         C            1.070888560976     0.688182570304     0.067934620940    12.000000000000
         C           -3.610120439024    -0.486874429696     0.570685620940    12.000000000000
         C            2.341964560976    -0.196006429696     0.093092620940    12.000000000000
         H           -2.791912439024    -0.619570429696    -1.422904379060     1.007825032230
         H           -2.036588439024    -1.722372429696    -0.274454379060     1.007825032230
         H            1.147043560976     1.411217570304    -0.753126379060     1.007825032230
         H            1.016564560976     1.270131570304     0.995949620940     1.007825032230
         H            0.126334560976    -1.136435429696    -0.148016379060     1.007825032230
         H           -3.290707439024    -0.618956429696     1.608464620940     1.007825032230
         H           -3.995147439024     0.528217570304     0.458293620940     1.007825032230
         H           -4.419893439024    -1.193540429696     0.370722620940     1.007825032230

  Basis Set: AUG-CC-PVTZ
    Blend: AUG-CC-PVTZ
  Basis Set: (AUG-CC-PVTZ AUX)
    Blend: AUG-CC-PVTZ-JKFIT
	 Reference Energy          =    -473.2134446992816379 [Eh]
	 Singles Energy            =      -0.0000000000000000 [Eh]
	 Same-Spin Energy          =      -0.4762988501278342 [Eh]
	 Opposite-Spin Energy      =      -1.4679094196977398 [Eh]
	 Correlation Energy        =      -1.9442082698255740 [Eh]
	 Total Energy              =    -475.1576529691072324 [Eh]

	 ================> DF-SCS-MP2 Energies <==================
	-----------------------------------------------------------
	 SCS Same-Spin Scale       =       0.3333333333333333 [-]
	 SCS Opposite-Spin Scale   =       1.2000000000000000 [-]
	 SCS Same-Spin Energy      =      -0.1587662833759447 [Eh]
	 SCS Opposite-Spin Energy  =      -1.7614913036372877 [Eh]
	 SCS Correlation Energy    =      -1.9202575870132323 [Eh]
	 SCS Total Energy          =    -475.1337022862948629 [Eh]
	-----------------------------------------------------------

  Dipole Moment: [D]
     X:    -9.3069      Y:    -1.0309      Z:    -0.5900     Total:     9.3824

*** Psi4 exiting successfully. Buy a developer a beer!
