                               Psi4 1.3.2 release

  ==> Input File <==

--------------------------------------------------------------------------
#psi4
#
memory 32 gb

molecule  {
-1 1
  O       -1.5186010     1.5599430    -0.1433510
  O        2.2638970    -1.4295650    -0.0456660
  O        3.5317420     0.4486470     0.1950180
  N        0.0040180    -0.1295860    -0.1151350
  C       -2.3384940    -0.6954940    -0.4149760
  C       -1.2508570     0.3439190    -0.2101810
  C        1.1644338     0.6932196     0.1895218
  C       -3.5055210    -0.4701880     0.5431350
  C        2.4465640    -0.1793200     0.0655420
  H       -2.6873130    -0.6028840    -1.4504550
  H       -1.9319890    -1.7056860    -0.3020050
  H        1.2516430     1.4279040    -0.7806770
  H        1.1211640     1.2868180     0.9683990
  H        0.2309340    -1.1197490    -0.1755670
  H       -3.1861080    -0.6022700     1.5809140
  H       -3.8905480     0.5449040     0.4307430
  H       -4.3152940    -1.1768540     0.3431720
units angstrom
no_reorient  #important for SAPT in psi4, default
symmetry c1  #important for SAPT in psi4, default
}

set PROPERTIES_ORIGIN ["COM"]
properties('MP2/aug-cc-pvtz', properties = ['dipole'])
--------------------------------------------------------------------------

    Molecular point group: c1
  Charge       = -1
  Multiplicity = 1
  Basis Set: AUG-CC-PVTZ
    Blend: AUG-CC-PVTZ
  Basis Set: (AUG-CC-PVTZ AUX)
    Blend: AUG-CC-PVTZ-JKFIT

    Orbital Energies [Eh]
    ---------------------

    Doubly Occupied:

       1A    -20.387136     2A    -20.323218     3A    -20.314037
       4A    -15.446079     5A    -11.221915     6A    -11.165986
       7A    -11.135245     8A    -11.128309     9A    -11.111353
      10A     -1.238192    11A     -1.190709    12A     -1.097000
      13A     -1.081570    14A     -0.949567    15A     -0.832652
      16A     -0.761286    17A     -0.655138    18A     -0.584627
      19A     -0.544707    20A     -0.537594    21A     -0.505493
      22A     -0.480804    23A     -0.475885    24A     -0.440000
      25A     -0.423659    26A     -0.419921    27A     -0.405737
      28A     -0.399715    29A     -0.378961    30A     -0.337865
      31A     -0.298689    32A     -0.253777    33A     -0.238276
      34A     -0.225757    35A     -0.215848

  @DF-RHF Final Energy:  -473.26420681379727

   => Energetics <=

    Nuclear Repulsion Energy =            435.0721275964567099
    One-Electron Energy =               -1522.2592560582206715
    Two-Electron Energy =                 613.9229216479666320
    Total Energy =                       -473.2642068137972728
  Basis Set: (AUG-CC-PVTZ AUX)
    Blend: AUG-CC-PVTZ-RI
    Molecular point group: c1

    Geometry (in Angstrom), charge = -1, multiplicity = 1:

       Center              X                  Y                   Z               Mass
    ------------   -----------------  -----------------  -----------------  -----------------
         O           -1.619701838969     1.546183462855    -0.152421142521    15.994914619570
         O            2.162796161031    -1.443324537145    -0.054736142521    15.994914619570
         O            3.430641161031     0.434887462855     0.185947857479    15.994914619570
         N           -0.097082838969    -0.143345537145    -0.124205142521    14.003074004430
         C           -2.439594838969    -0.709253537145    -0.424046142521    12.000000000000
         C           -1.351957838969     0.330159462855    -0.219251142521    12.000000000000
         C            1.063332961031     0.679460062855     0.180451657479    12.000000000000
         C           -3.606621838969    -0.483947537145     0.534064857479    12.000000000000
         C            2.345463161031    -0.193079537145     0.056471857479    12.000000000000
         H           -2.788413838969    -0.616643537145    -1.459525142521     1.007825032230
         H           -2.033089838969    -1.719445537145    -0.311075142521     1.007825032230
         H            1.150542161031     1.414144462855    -0.789747142521     1.007825032230
         H            1.020063161031     1.273058462855     0.959328857479     1.007825032230
         H            0.129833161031    -1.133508537145    -0.184637142521     1.007825032230
         H           -3.287208838969    -0.616029537145     1.571843857479     1.007825032230
         H           -3.991648838969     0.531144462855     0.421672857479     1.007825032230
         H           -4.416394838969    -1.190613537145     0.334101857479     1.007825032230

  Basis Set: AUG-CC-PVTZ
    Blend: AUG-CC-PVTZ
  Basis Set: (AUG-CC-PVTZ AUX)
    Blend: AUG-CC-PVTZ-JKFIT
	 Reference Energy          =    -473.2642068137972728 [Eh]
	 Singles Energy            =      -0.0000000000000000 [Eh]
	 Same-Spin Energy          =      -0.4761586751071681 [Eh]
	 Opposite-Spin Energy      =      -1.4658880933842133 [Eh]
	 Correlation Energy        =      -1.9420467684913814 [Eh]
	 Total Energy              =    -475.2062535822886389 [Eh]

	 ================> DF-SCS-MP2 Energies <==================
	-----------------------------------------------------------
	 SCS Same-Spin Scale       =       0.3333333333333333 [-]
	 SCS Opposite-Spin Scale   =       1.2000000000000000 [-]
	 SCS Same-Spin Energy      =      -0.1587195583690560 [Eh]
	 SCS Opposite-Spin Energy  =      -1.7590657120610560 [Eh]
	 SCS Correlation Energy    =      -1.9177852704301119 [Eh]
	 SCS Total Energy          =    -475.1819920842273746 [Eh]
	-----------------------------------------------------------

  Dipole Moment: [D]
     X:    -9.3945      Y:    -1.1968      Z:    -0.1158     Total:     9.4711

*** Psi4 exiting successfully. Buy a developer a beer!
