                               Psi4 1.3.2 release

  ==> Input File <==

--------------------------------------------------------------------------
#psi4
#
memory 32 gb

molecule  {
-1 1
  O       -1.5186010     1.5599430    -0.1433510
  O        2.2638970    -1.4295650    -0.0456660
  O        3.5317420     0.4486470     0.1950180
  N        0.0040180    -0.1295860    -0.1151350
  C       -2.3384940    -0.6954940    -0.4149760
  C       -1.2508570     0.3439190    -0.2101810
  C        1.1681185     0.6971027     0.1398092
  C       -3.5055210    -0.4701880     0.5431350
  C        2.4465640    -0.1793200     0.0655420
  H       -2.6873130    -0.6028840    -1.4504550
  H       -1.9319890    -1.7056860    -0.3020050
  H        1.2516430     1.4279040    -0.7806770
  H        1.1211640     1.2868180     0.9683990
  H        0.2309340    -1.1197490    -0.1755670
  H       -3.1861080    -0.6022700     1.5809140
  H       -3.8905480     0.5449040     0.4307430
  H       -4.3152940    -1.1768540     0.3431720
units angstrom
no_reorient  #important for SAPT in psi4, default
symmetry c1  #important for SAPT in psi4, default
}

set PROPERTIES_ORIGIN ["COM"]
properties('MP2/aug-cc-pvtz', properties = ['dipole'])
--------------------------------------------------------------------------

    Molecular point group: c1
  Charge       = -1
  Multiplicity = 1
  Basis Set: AUG-CC-PVTZ
    Blend: AUG-CC-PVTZ
  Basis Set: (AUG-CC-PVTZ AUX)
    Blend: AUG-CC-PVTZ-JKFIT

    Orbital Energies [Eh]
    ---------------------

    Doubly Occupied:

       1A    -20.387068     2A    -20.322883     3A    -20.313911
       4A    -15.445463     5A    -11.221930     6A    -11.164818
       7A    -11.135247     8A    -11.128132     9A    -11.109992
      10A     -1.238237    11A     -1.190555    12A     -1.097125
      13A     -1.081678    14A     -0.949566    15A     -0.831949
      16A     -0.760513    17A     -0.653689    18A     -0.584966
      19A     -0.544839    20A     -0.532921    21A     -0.502279
      22A     -0.483318    23A     -0.476565    24A     -0.439036
      25A     -0.424723    26A     -0.420087    27A     -0.406275
      28A     -0.397872    29A     -0.379603    30A     -0.341823
      31A     -0.298599    32A     -0.255099    33A     -0.238670
      34A     -0.225858    35A     -0.215987

  @DF-RHF Final Energy:  -473.27747277468217

   => Energetics <=

    Nuclear Repulsion Energy =            435.1633736614821260
    One-Electron Energy =               -1522.4791436874102146
    Two-Electron Energy =                 614.0382972512459219
    Total Energy =                       -473.2774727746821100
  Basis Set: (AUG-CC-PVTZ AUX)
    Blend: AUG-CC-PVTZ-RI
    Molecular point group: c1

    Geometry (in Angstrom), charge = -1, multiplicity = 1:

       Center              X                  Y                   Z               Mass
    ------------   -----------------  -----------------  -----------------  -----------------
         O           -1.620041833262     1.545825161816    -0.147834066150    15.994914619570
         O            2.162456166738    -1.443682838184    -0.050149066150    15.994914619570
         O            3.430301166738     0.434529161816     0.190534933850    15.994914619570
         N           -0.097422833262    -0.143703838184    -0.119618066150    14.003074004430
         C           -2.439934833262    -0.709611838184    -0.419459066150    12.000000000000
         C           -1.352297833262     0.329801161816    -0.214664066150    12.000000000000
         C            1.066677666738     0.682984861816     0.135326133850    12.000000000000
         C           -3.606961833262    -0.484305838184     0.538651933850    12.000000000000
         C            2.345123166738    -0.193437838184     0.061058933850    12.000000000000
         H           -2.788753833262    -0.617001838184    -1.454938066150     1.007825032230
         H           -2.033429833262    -1.719803838184    -0.306488066150     1.007825032230
         H            1.150202166738     1.413786161816    -0.785160066150     1.007825032230
         H            1.019723166738     1.272700161816     0.963915933850     1.007825032230
         H            0.129493166738    -1.133866838184    -0.180050066150     1.007825032230
         H           -3.287548833262    -0.616387838184     1.576430933850     1.007825032230
         H           -3.991988833262     0.530786161816     0.426259933850     1.007825032230
         H           -4.416734833262    -1.190971838184     0.338688933850     1.007825032230

  Basis Set: AUG-CC-PVTZ
    Blend: AUG-CC-PVTZ
  Basis Set: (AUG-CC-PVTZ AUX)
    Blend: AUG-CC-PVTZ-JKFIT
	 Reference Energy          =    -473.2774727746821668 [Eh]
	 Singles Energy            =      -0.0000000000000000 [Eh]
	 Same-Spin Energy          =      -0.4759784587607567 [Eh]
	 Opposite-Spin Energy      =      -1.4652725967466138 [Eh]
	 Correlation Energy        =      -1.9412510555073705 [Eh]
	 Total Energy              =    -475.2187238301895604 [Eh]

	 ================> DF-SCS-MP2 Energies <==================
	-----------------------------------------------------------
	 SCS Same-Spin Scale       =       0.3333333333333333 [-]
	 SCS Opposite-Spin Scale   =       1.2000000000000000 [-]
	 SCS Same-Spin Energy      =      -0.1586594862535856 [Eh]
	 SCS Opposite-Spin Energy  =      -1.7583271160959366 [Eh]
	 SCS Correlation Energy    =      -1.9169866023495221 [Eh]
	 SCS Total Energy          =    -475.1944593770317056 [Eh]
	-----------------------------------------------------------

  Dipole Moment: [D]
     X:    -9.3904      Y:    -1.1701      Z:    -0.2122     Total:     9.4654

*** Psi4 exiting successfully. Buy a developer a beer!
