                               Psi4 1.3.2 release

  ==> Input File <==

--------------------------------------------------------------------------
#psi4
#
memory 32 gb

molecule  {
-1 1
  O       -1.5186010     1.5599430    -0.1433510
  O        2.2638970    -1.4295650    -0.0456660
  O        3.5317420     0.4486470     0.1950180
  N        0.0040180    -0.1295860    -0.1151350
  C       -2.3384940    -0.6954940    -0.4149760
  C       -1.2508570     0.3439190    -0.2101810
  C        1.1607490     0.6893365     0.2392345
  C       -3.5055210    -0.4701880     0.5431350
  C        2.4465640    -0.1793200     0.0655420
  H       -2.6873130    -0.6028840    -1.4504550
  H       -1.9319890    -1.7056860    -0.3020050
  H        1.2516430     1.4279040    -0.7806770
  H        1.1211640     1.2868180     0.9683990
  H        0.2309340    -1.1197490    -0.1755670
  H       -3.1861080    -0.6022700     1.5809140
  H       -3.8905480     0.5449040     0.4307430
  H       -4.3152940    -1.1768540     0.3431720
units angstrom
no_reorient  #important for SAPT in psi4, default
symmetry c1  #important for SAPT in psi4, default
}

set PROPERTIES_ORIGIN ["COM"]
properties('MP2/aug-cc-pvtz', properties = ['dipole'])
--------------------------------------------------------------------------

    Molecular point group: c1
  Charge       = -1
  Multiplicity = 1
  Basis Set: AUG-CC-PVTZ
    Blend: AUG-CC-PVTZ
  Basis Set: (AUG-CC-PVTZ AUX)
    Blend: AUG-CC-PVTZ-JKFIT

    Orbital Energies [Eh]
    ---------------------

    Doubly Occupied:

       1A    -20.387248     2A    -20.323687     3A    -20.314217
       4A    -15.446919     5A    -11.221898     6A    -11.167605
       7A    -11.135255     8A    -11.128494     9A    -11.113249
      10A     -1.238148    11A     -1.190925    12A     -1.096865
      13A     -1.081408    14A     -0.949559    15A     -0.833690
      16A     -0.762394    17A     -0.657158    18A     -0.584288
      19A     -0.546196    20A     -0.541504    21A     -0.508324
      22A     -0.479816    23A     -0.473740    24A     -0.440799
      25A     -0.423292    26A     -0.419366    27A     -0.405371
      28A     -0.401328    29A     -0.378473    30A     -0.333106
      31A     -0.298813    32A     -0.252159    33A     -0.237567
      34A     -0.225603    35A     -0.215563

  @DF-RHF Final Energy:  -473.24546764565793

   => Energetics <=

    Nuclear Repulsion Energy =            434.9442821588735910
    One-Electron Energy =               -1521.9514438164599142
    Two-Electron Energy =                 613.7616940119282845
    Total Energy =                       -473.2454676456579818
  Basis Set: (AUG-CC-PVTZ AUX)
    Blend: AUG-CC-PVTZ-RI
    Molecular point group: c1

    Geometry (in Angstrom), charge = -1, multiplicity = 1:

       Center              X                  Y                   Z               Mass
    ------------   -----------------  -----------------  -----------------  -----------------
         O           -1.619361835449     1.546541763895    -0.157008228119    15.994914619570
         O            2.163136164551    -1.442966236105    -0.059323228119    15.994914619570
         O            3.430981164551     0.435245763895     0.181360771881    15.994914619570
         N           -0.096742835449    -0.142987236105    -0.128792228119    14.003074004430
         C           -2.439254835449    -0.708895236105    -0.428633228119    12.000000000000
         C           -1.351617835449     0.330517763895    -0.223838228119    12.000000000000
         C            1.059988164551     0.675935263895     0.225577271881    12.000000000000
         C           -3.606281835449    -0.483589236105     0.529477771881    12.000000000000
         C            2.345803164551    -0.192721236105     0.051884771881    12.000000000000
         H           -2.788073835449    -0.616285236105    -1.464112228119     1.007825032230
         H           -2.032749835449    -1.719087236105    -0.315662228119     1.007825032230
         H            1.150882164551     1.414502763895    -0.794334228119     1.007825032230
         H            1.020403164551     1.273416763895     0.954741771881     1.007825032230
         H            0.130173164551    -1.133150236105    -0.189224228119     1.007825032230
         H           -3.286868835449    -0.615671236105     1.567256771881     1.007825032230
         H           -3.991308835449     0.531502763895     0.417085771881     1.007825032230
         H           -4.416054835449    -1.190255236105     0.329514771881     1.007825032230

  Basis Set: AUG-CC-PVTZ
    Blend: AUG-CC-PVTZ
  Basis Set: (AUG-CC-PVTZ AUX)
    Blend: AUG-CC-PVTZ-JKFIT
	 Reference Energy          =    -473.2454676456579250 [Eh]
	 Singles Energy            =      -0.0000000000000000 [Eh]
	 Same-Spin Energy          =      -0.4764125405495238 [Eh]
	 Opposite-Spin Energy      =      -1.4667712788229894 [Eh]
	 Correlation Energy        =      -1.9431838193725133 [Eh]
	 Total Energy              =    -475.1886514650304321 [Eh]

	 ================> DF-SCS-MP2 Energies <==================
	-----------------------------------------------------------
	 SCS Same-Spin Scale       =       0.3333333333333333 [-]
	 SCS Opposite-Spin Scale   =       1.2000000000000000 [-]
	 SCS Same-Spin Energy      =      -0.1588041801831746 [Eh]
	 SCS Opposite-Spin Energy  =      -1.7601255345875872 [Eh]
	 SCS Correlation Energy    =      -1.9189297147707618 [Eh]
	 SCS Total Energy          =    -475.1643973604286657 [Eh]
	-----------------------------------------------------------

  Dipole Moment: [D]
     X:    -9.3969      Y:    -1.2299      Z:    -0.0229     Total:     9.4770

*** Psi4 exiting successfully. Buy a developer a beer!
