                               Psi4 1.3.2 release

  ==> Input File <==

--------------------------------------------------------------------------
#psi4
#
memory 32 gb

molecule  {
-1 1
  O       -1.5186010     1.5599430    -0.1433510
  O        2.2638970    -1.4295650    -0.0456660
  O        3.5317420     0.4486470     0.1950180
  N        0.0040180    -0.1295860    -0.1151350
  C       -2.3384940    -0.6954940    -0.4149760
  C       -1.2508570     0.3439190    -0.2101810
  C        1.1718033     0.7009859     0.0900966
  C       -3.5055210    -0.4701880     0.5431350
  C        2.4465640    -0.1793200     0.0655420
  H       -2.6873130    -0.6028840    -1.4504550
  H       -1.9319890    -1.7056860    -0.3020050
  H        1.2516430     1.4279040    -0.7806770
  H        1.1211640     1.2868180     0.9683990
  H        0.2309340    -1.1197490    -0.1755670
  H       -3.1861080    -0.6022700     1.5809140
  H       -3.8905480     0.5449040     0.4307430
  H       -4.3152940    -1.1768540     0.3431720
units angstrom
no_reorient  #important for SAPT in psi4, default
symmetry c1  #important for SAPT in psi4, default
}

set PROPERTIES_ORIGIN ["COM"]
properties('MP2/aug-cc-pvtz', properties = ['dipole'])
--------------------------------------------------------------------------

    Molecular point group: c1
  Charge       = -1
  Multiplicity = 1
  Basis Set: AUG-CC-PVTZ
    Blend: AUG-CC-PVTZ
  Basis Set: (AUG-CC-PVTZ AUX)
    Blend: AUG-CC-PVTZ-JKFIT

    Orbital Energies [Eh]
    ---------------------

    Doubly Occupied:

       1A    -20.387045     2A    -20.322682     3A    -20.313833
       4A    -15.445089     5A    -11.221946     6A    -11.164111
       7A    -11.135264     8A    -11.127967     9A    -11.109171
      10A     -1.238284    11A     -1.190462    12A     -1.097220
      13A     -1.081748    14A     -0.949557    15A     -0.831522
      16A     -0.760058    17A     -0.652833    18A     -0.585253
      19A     -0.545076    20A     -0.529292    21A     -0.500238
      22A     -0.485756    23A     -0.476196    24A     -0.438009
      25A     -0.426259    26A     -0.419995    27A     -0.406896
      28A     -0.396069    29A     -0.380299    30A     -0.344472
      31A     -0.298550    32A     -0.255954    33A     -0.238866
      34A     -0.225908    35A     -0.216045

  @DF-RHF Final Energy:  -473.28537732000041

   => Energetics <=

    Nuclear Repulsion Energy =            435.2174358575806536
    One-Electron Energy =               -1522.6097713675505929
    Two-Electron Energy =                 614.1069581899696459
    Total Energy =                       -473.2853773200004071
  Basis Set: (AUG-CC-PVTZ AUX)
    Blend: AUG-CC-PVTZ-RI
    Molecular point group: c1

    Geometry (in Angstrom), charge = -1, multiplicity = 1:

       Center              X                  Y                   Z               Mass
    ------------   -----------------  -----------------  -----------------  -----------------
         O           -1.620381836783     1.545466851549    -0.143246989779    15.994914619570
         O            2.162116163217    -1.444041148451    -0.045561989779    15.994914619570
         O            3.429961163217     0.434170851549     0.195122010221    15.994914619570
         N           -0.097762836783    -0.144062148451    -0.115030989779    14.003074004430
         C           -2.440274836783    -0.709970148451    -0.414871989779    12.000000000000
         C           -1.352637836783     0.329442851549    -0.210076989779    12.000000000000
         C            1.070022463217     0.686509751549     0.090200610221    12.000000000000
         C           -3.607301836783    -0.484664148451     0.543239010221    12.000000000000
         C            2.344783163217    -0.193796148451     0.065646010221    12.000000000000
         H           -2.789093836783    -0.617360148451    -1.450350989779     1.007825032230
         H           -2.033769836783    -1.720162148451    -0.301900989779     1.007825032230
         H            1.149862163217     1.413427851549    -0.780572989779     1.007825032230
         H            1.019383163217     1.272341851549     0.968503010221     1.007825032230
         H            0.129153163217    -1.134225148451    -0.175462989779     1.007825032230
         H           -3.287888836783    -0.616746148451     1.581018010221     1.007825032230
         H           -3.992328836783     0.530427851549     0.430847010221     1.007825032230
         H           -4.417074836783    -1.191330148451     0.343276010221     1.007825032230

  Basis Set: AUG-CC-PVTZ
    Blend: AUG-CC-PVTZ
  Basis Set: (AUG-CC-PVTZ AUX)
    Blend: AUG-CC-PVTZ-JKFIT
	 Reference Energy          =    -473.2853773200004071 [Eh]
	 Singles Energy            =      -0.0000000000000000 [Eh]
	 Same-Spin Energy          =      -0.4758700529601918 [Eh]
	 Opposite-Spin Energy      =      -1.4649096369314094 [Eh]
	 Correlation Energy        =      -1.9407796898916012 [Eh]
	 Total Energy              =    -475.2261570098920060 [Eh]

	 ================> DF-SCS-MP2 Energies <==================
	-----------------------------------------------------------
	 SCS Same-Spin Scale       =       0.3333333333333333 [-]
	 SCS Opposite-Spin Scale   =       1.2000000000000000 [-]
	 SCS Same-Spin Energy      =      -0.1586233509867306 [Eh]
	 SCS Opposite-Spin Energy  =      -1.7578915643176913 [Eh]
	 SCS Correlation Energy    =      -1.9165149153044219 [Eh]
	 SCS Total Energy          =    -475.2018922353048538 [Eh]
	-----------------------------------------------------------

  Dipole Moment: [D]
     X:    -9.3849      Y:    -1.1507      Z:    -0.3112     Total:     9.4603

*** Psi4 exiting successfully. Buy a developer a beer!
