                               Psi4 1.3.2 release

  ==> Input File <==

--------------------------------------------------------------------------
#psi4
#
memory 32 gb

molecule  {
-1 1
  O       -1.5186010     1.5599430    -0.1433510
  O        2.2638970    -1.4295650    -0.0456660
  O        3.5317420     0.4486470     0.1950180
  N        0.0040180    -0.1295860    -0.1151350
  C       -2.3062596    -0.6714089    -0.7122652
  C       -1.2508570     0.3439190    -0.2101810
  C        1.1754880     0.7048690     0.0403840
  C       -3.5055210    -0.4701880     0.5431350
  C        2.4465640    -0.1793200     0.0655420
  H       -2.6873130    -0.6028840    -1.4504550
  H       -1.9319890    -1.7056860    -0.3020050
  H        1.2516430     1.4279040    -0.7806770
  H        1.1211640     1.2868180     0.9683990
  H        0.2309340    -1.1197490    -0.1755670
  H       -3.1861080    -0.6022700     1.5809140
  H       -3.8905480     0.5449040     0.4307430
  H       -4.3152940    -1.1768540     0.3431720
units angstrom
no_reorient  #important for SAPT in psi4, default
symmetry c1  #important for SAPT in psi4, default
}

set PROPERTIES_ORIGIN ["COM"]
properties('MP2/aug-cc-pvtz', properties = ['dipole'])
--------------------------------------------------------------------------

    Molecular point group: c1
  Charge       = -1
  Multiplicity = 1
  Basis Set: AUG-CC-PVTZ
    Blend: AUG-CC-PVTZ
  Basis Set: (AUG-CC-PVTZ AUX)
    Blend: AUG-CC-PVTZ-JKFIT

    Orbital Energies [Eh]
    ---------------------

    Doubly Occupied:

       1A    -20.388254     2A    -20.322722     3A    -20.314069
       4A    -15.445412     5A    -11.228031     6A    -11.164167
       7A    -11.137230     8A    -11.135961     9A    -11.109605
      10A     -1.238729    11A     -1.190630    12A     -1.097529
      13A     -1.081997    14A     -0.932156    15A     -0.825827
      16A     -0.783042    17A     -0.661320    18A     -0.609583
      19A     -0.539132    20A     -0.532502    21A     -0.497488
      22A     -0.485310    23A     -0.470283    24A     -0.450273
      25A     -0.431413    26A     -0.424621    27A     -0.402417
      28A     -0.393130    29A     -0.349761    30A     -0.331898
      31A     -0.296395    32A     -0.255744    33A     -0.239044
      34A     -0.226121    35A     -0.216142

  @DF-RHF Final Energy:  -473.17492939699133

   => Energetics <=

    Nuclear Repulsion Energy =            433.5919339412826616
    One-Electron Energy =               -1519.1178541086476343
    Two-Electron Energy =                 612.3509907703737554
    Total Energy =                       -473.1749293969912742
  Basis Set: (AUG-CC-PVTZ AUX)
    Blend: AUG-CC-PVTZ-RI
    Molecular point group: c1

    Geometry (in Angstrom), charge = -1, multiplicity = 1:

       Center              X                  Y                   Z               Mass
    ------------   -----------------  -----------------  -----------------  -----------------
         O           -1.623696160614     1.542886172418    -0.111228472190    15.994914619570
         O            2.158801839386    -1.446621827582    -0.013543472190    15.994914619570
         O            3.426646839386     0.431590172418     0.227140527810    15.994914619570
         N           -0.101077160614    -0.146642827582    -0.083012472190    14.003074004430
         C           -2.411354760614    -0.688465727582    -0.680142672190    12.000000000000
         C           -1.355952160614     0.326862172418    -0.178058472190    12.000000000000
         C            1.070392839386     0.687812172418     0.072506527810    12.000000000000
         C           -3.610616160614    -0.487244827582     0.575257527810    12.000000000000
         C            2.341468839386    -0.196376827582     0.097664527810    12.000000000000
         H           -2.792408160614    -0.619940827582    -1.418332472190     1.007825032230
         H           -2.037084160614    -1.722742827582    -0.269882472190     1.007825032230
         H            1.146547839386     1.410847172418    -0.748554472190     1.007825032230
         H            1.016068839386     1.269761172418     1.000521527810     1.007825032230
         H            0.125838839386    -1.136805827582    -0.143444472190     1.007825032230
         H           -3.291203160614    -0.619326827582     1.613036527810     1.007825032230
         H           -3.995643160614     0.527847172418     0.462865527810     1.007825032230
         H           -4.420389160614    -1.193910827582     0.375294527810     1.007825032230

  Basis Set: AUG-CC-PVTZ
    Blend: AUG-CC-PVTZ
  Basis Set: (AUG-CC-PVTZ AUX)
    Blend: AUG-CC-PVTZ-JKFIT
	 Reference Energy          =    -473.1749293969913310 [Eh]
	 Singles Energy            =      -0.0000000000000000 [Eh]
	 Same-Spin Energy          =      -0.4767402929762573 [Eh]
	 Opposite-Spin Energy      =      -1.4694970091569699 [Eh]
	 Correlation Energy        =      -1.9462373021332271 [Eh]
	 Total Energy              =    -475.1211666991245579 [Eh]

	 ================> DF-SCS-MP2 Energies <==================
	-----------------------------------------------------------
	 SCS Same-Spin Scale       =       0.3333333333333333 [-]
	 SCS Opposite-Spin Scale   =       1.2000000000000000 [-]
	 SCS Same-Spin Energy      =      -0.1589134309920857 [Eh]
	 SCS Opposite-Spin Energy  =      -1.7633964109883637 [Eh]
	 SCS Correlation Energy    =      -1.9223098419804494 [Eh]
	 SCS Total Energy          =    -475.0972392389717811 [Eh]
	-----------------------------------------------------------

  Dipole Moment: [D]
     X:    -9.2844      Y:    -0.9954      Z:    -0.6020     Total:     9.3570

*** Psi4 exiting successfully. Buy a developer a beer!
