                               Psi4 1.3.2 release

  ==> Input File <==

--------------------------------------------------------------------------
#psi4
#
memory 32 gb

molecule  {
-1 1
  O       -1.5186010     1.5599430    -0.1433510
  O        2.2638970    -1.4295650    -0.0456660
  O        3.5317420     0.4486470     0.1950180
  N        0.0040180    -0.1295860    -0.1151350
  C       -2.3384940    -0.6954940    -0.4149760
  C       -1.2508570     0.3439190    -0.2101810
  C        1.1570643     0.6854534     0.2889471
  C       -3.5055210    -0.4701880     0.5431350
  C        2.4465640    -0.1793200     0.0655420
  H       -2.6873130    -0.6028840    -1.4504550
  H       -1.9319890    -1.7056860    -0.3020050
  H        1.2516430     1.4279040    -0.7806770
  H        1.1211640     1.2868180     0.9683990
  H        0.2309340    -1.1197490    -0.1755670
  H       -3.1861080    -0.6022700     1.5809140
  H       -3.8905480     0.5449040     0.4307430
  H       -4.3152940    -1.1768540     0.3431720
units angstrom
no_reorient  #important for SAPT in psi4, default
symmetry c1  #important for SAPT in psi4, default
}

set PROPERTIES_ORIGIN ["COM"]
properties('MP2/aug-cc-pvtz', properties = ['dipole'])
--------------------------------------------------------------------------

    Molecular point group: c1
  Charge       = -1
  Multiplicity = 1
  Basis Set: AUG-CC-PVTZ
    Blend: AUG-CC-PVTZ
  Basis Set: (AUG-CC-PVTZ AUX)
    Blend: AUG-CC-PVTZ-JKFIT

    Orbital Energies [Eh]
    ---------------------

    Doubly Occupied:

       1A    -20.387398     2A    -20.324288     3A    -20.314459
       4A    -15.447954     5A    -11.221874     6A    -11.169659
       7A    -11.135275     8A    -11.128683     9A    -11.115671
      10A     -1.238101    11A     -1.191207    12A     -1.096747
      13A     -1.081168    14A     -0.949540    15A     -0.835142
      16A     -0.763840    17A     -0.659678    18A     -0.584025
      19A     -0.551444    20A     -0.541858    21A     -0.510426
      22A     -0.479667    23A     -0.471109    24A     -0.441409
      25A     -0.423436    26A     -0.418597    27A     -0.405399
      28A     -0.402405    29A     -0.378150    30A     -0.328055
      31A     -0.298966    32A     -0.250525    33A     -0.236396
      34A     -0.225402    35A     -0.215005

  @DF-RHF Final Energy:  -473.22114221958174

   => Energetics <=

    Nuclear Repulsion Energy =            434.7805514344213407
    One-Electron Energy =               -1521.5574727280866227
    Two-Electron Energy =                 613.5557790740836026
    Total Energy =                       -473.2211422195816795
  Basis Set: (AUG-CC-PVTZ AUX)
    Blend: AUG-CC-PVTZ-RI
    Molecular point group: c1

    Geometry (in Angstrom), charge = -1, multiplicity = 1:

       Center              X                  Y                   Z               Mass
    ------------   -----------------  -----------------  -----------------  -----------------
         O           -1.619021841155     1.546900064934    -0.161595304490    15.994914619570
         O            2.163476158845    -1.442607935066    -0.063910304490    15.994914619570
         O            3.431321158845     0.435604064934     0.176773695510    15.994914619570
         N           -0.096402841155    -0.142628935066    -0.133379304490    14.003074004430
         C           -2.438914841155    -0.708536935066    -0.433220304490    12.000000000000
         C           -1.351277841155     0.330876064934    -0.228425304490    12.000000000000
         C            1.056643458845     0.672410464934     0.270702795510    12.000000000000
         C           -3.605941841155    -0.483230935066     0.524890695510    12.000000000000
         C            2.346143158845    -0.192362935066     0.047297695510    12.000000000000
         H           -2.787733841155    -0.615926935066    -1.468699304490     1.007825032230
         H           -2.032409841155    -1.718728935066    -0.320249304490     1.007825032230
         H            1.151222158845     1.414861064934    -0.798921304490     1.007825032230
         H            1.020743158845     1.273775064934     0.950154695510     1.007825032230
         H            0.130513158845    -1.132791935066    -0.193811304490     1.007825032230
         H           -3.286528841155    -0.615312935066     1.562669695510     1.007825032230
         H           -3.990968841155     0.531861064934     0.412498695510     1.007825032230
         H           -4.415714841155    -1.189896935066     0.324927695510     1.007825032230

  Basis Set: AUG-CC-PVTZ
    Blend: AUG-CC-PVTZ
  Basis Set: (AUG-CC-PVTZ AUX)
    Blend: AUG-CC-PVTZ-JKFIT
	 Reference Energy          =    -473.2211422195817363 [Eh]
	 Singles Energy            =      -0.0000000000000000 [Eh]
	 Same-Spin Energy          =      -0.4767426465410493 [Eh]
	 Opposite-Spin Energy      =      -1.4679349591114699 [Eh]
	 Correlation Energy        =      -1.9446776056525192 [Eh]
	 Total Energy              =    -475.1658198252342800 [Eh]

	 ================> DF-SCS-MP2 Energies <==================
	-----------------------------------------------------------
	 SCS Same-Spin Scale       =       0.3333333333333333 [-]
	 SCS Opposite-Spin Scale   =       1.2000000000000000 [-]
	 SCS Same-Spin Energy      =      -0.1589142155136831 [Eh]
	 SCS Opposite-Spin Energy  =      -1.7615219509337638 [Eh]
	 SCS Correlation Energy    =      -1.9204361664474470 [Eh]
	 SCS Total Energy          =    -475.1415783860292095 [Eh]
	-----------------------------------------------------------

  Dipole Moment: [D]
     X:    -9.3968      Y:    -1.2682      Z:     0.0649     Total:     9.4823

*** Psi4 exiting successfully. Buy a developer a beer!
