                               Psi4 1.3.2 release

  ==> Input File <==

--------------------------------------------------------------------------
#psi4
#
memory 32 gb

molecule  {
-1 1
  O       -1.5186010     1.5599430    -0.1433510
  O        2.2638970    -1.4295650    -0.0456660
  O        3.5317420     0.4486470     0.1950180
  N        0.0040180    -0.1295860    -0.1151350
  C       -2.3223768    -0.6834515    -0.5636206
  C       -1.2508570     0.3439190    -0.2101810
  C        1.1754880     0.7048690     0.0403840
  C       -3.5055210    -0.4701880     0.5431350
  C        2.4465640    -0.1793200     0.0655420
  H       -2.6873130    -0.6028840    -1.4504550
  H       -1.9319890    -1.7056860    -0.3020050
  H        1.2516430     1.4279040    -0.7806770
  H        1.1211640     1.2868180     0.9683990
  H        0.2309340    -1.1197490    -0.1755670
  H       -3.1861080    -0.6022700     1.5809140
  H       -3.8905480     0.5449040     0.4307430
  H       -4.3152940    -1.1768540     0.3431720
units angstrom
no_reorient  #important for SAPT in psi4, default
symmetry c1  #important for SAPT in psi4, default
}

set PROPERTIES_ORIGIN ["COM"]
properties('MP2/aug-cc-pvtz', properties = ['dipole'])
--------------------------------------------------------------------------

    Molecular point group: c1
  Charge       = -1
  Multiplicity = 1
  Basis Set: AUG-CC-PVTZ
    Blend: AUG-CC-PVTZ
  Basis Set: (AUG-CC-PVTZ AUX)
    Blend: AUG-CC-PVTZ-JKFIT

    Orbital Energies [Eh]
    ---------------------

    Doubly Occupied:

       1A    -20.387268     2A    -20.322541     3A    -20.313789
       4A    -15.444913     5A    -11.223105     6A    -11.163851
       7A    -11.132760     8A    -11.132189     9A    -11.108940
      10A     -1.238220    11A     -1.190386    12A     -1.097193
      13A     -1.081683    14A     -0.937318    15A     -0.828219
      16A     -0.768960    17A     -0.655026    18A     -0.592806
      19A     -0.540484    20A     -0.533978    21A     -0.499377
      22A     -0.485079    23A     -0.472154    24A     -0.439854
      25A     -0.431305    26A     -0.423670    27A     -0.400833
      28A     -0.396063    29A     -0.368459    30A     -0.345104
      31A     -0.297953    32A     -0.255905    33A     -0.238858
      34A     -0.225879    35A     -0.215986

  @DF-RHF Final Energy:  -473.26387777489617

   => Energetics <=

    Nuclear Repulsion Energy =            434.4530688911660263
    One-Electron Energy =               -1521.0536794638651372
    Two-Electron Energy =                 613.3367327978030517
    Total Energy =                       -473.2638777748961729
  Basis Set: (AUG-CC-PVTZ AUX)
    Blend: AUG-CC-PVTZ-RI
    Molecular point group: c1

    Geometry (in Angstrom), charge = -1, multiplicity = 1:

       Center              X                  Y                   Z               Mass
    ------------   -----------------  -----------------  -----------------  -----------------
         O           -1.622208995845     1.543997366077    -0.124944192799    15.994914619570
         O            2.160289004155    -1.445510633923    -0.027259192799    15.994914619570
         O            3.428134004155     0.432701366077     0.213424807201    15.994914619570
         N           -0.099589995845    -0.145531633923    -0.096728192799    14.003074004430
         C           -2.425984795845    -0.699397133923    -0.545213792799    12.000000000000
         C           -1.354464995845     0.327973366077    -0.191774192799    12.000000000000
         C            1.071880004155     0.688923366077     0.058790807201    12.000000000000
         C           -3.609128995845    -0.486133633923     0.561541807201    12.000000000000
         C            2.342956004155    -0.195265633923     0.083948807201    12.000000000000
         H           -2.790920995845    -0.618829633923    -1.432048192799     1.007825032230
         H           -2.035596995845    -1.721631633923    -0.283598192799     1.007825032230
         H            1.148035004155     1.411958366077    -0.762270192799     1.007825032230
         H            1.017556004155     1.270872366077     0.986805807201     1.007825032230
         H            0.127326004155    -1.135694633923    -0.157160192799     1.007825032230
         H           -3.289715995845    -0.618215633923     1.599320807201     1.007825032230
         H           -3.994155995845     0.528958366077     0.449149807201     1.007825032230
         H           -4.418901995845    -1.192799633923     0.361578807201     1.007825032230

  Basis Set: AUG-CC-PVTZ
    Blend: AUG-CC-PVTZ
  Basis Set: (AUG-CC-PVTZ AUX)
    Blend: AUG-CC-PVTZ-JKFIT
	 Reference Energy          =    -473.2638777748961729 [Eh]
	 Singles Energy            =      -0.0000000000000000 [Eh]
	 Same-Spin Energy          =      -0.4757678798378673 [Eh]
	 Opposite-Spin Energy      =      -1.4657159929947379 [Eh]
	 Correlation Energy        =      -1.9414838728326052 [Eh]
	 Total Energy              =    -475.2053616477287505 [Eh]

	 ================> DF-SCS-MP2 Energies <==================
	-----------------------------------------------------------
	 SCS Same-Spin Scale       =       0.3333333333333333 [-]
	 SCS Opposite-Spin Scale   =       1.2000000000000000 [-]
	 SCS Same-Spin Energy      =      -0.1585892932792891 [Eh]
	 SCS Opposite-Spin Energy  =      -1.7588591915936853 [Eh]
	 SCS Correlation Energy    =      -1.9174484848729745 [Eh]
	 SCS Total Energy          =    -475.1813262597691505 [Eh]
	-----------------------------------------------------------

  Dipole Moment: [D]
     X:    -9.3436      Y:    -1.0870      Z:    -0.5418     Total:     9.4222

*** Psi4 exiting successfully. Buy a developer a beer!
