                               Psi4 1.3.2 release

  ==> Input File <==

--------------------------------------------------------------------------
#psi4
#
memory 32 gb

molecule  {
-1 1
  O       -1.5186010     1.5599430    -0.1433510
  O        2.2638970    -1.4295650    -0.0456660
  O        3.5317420     0.4486470     0.1950180
  N        0.0040180    -0.1295860    -0.1151350
  C       -2.3170044    -0.6794373    -0.6131688
  C       -1.2508570     0.3439190    -0.2101810
  C        1.1754880     0.7048690     0.0403840
  C       -3.5055210    -0.4701880     0.5431350
  C        2.4465640    -0.1793200     0.0655420
  H       -2.6873130    -0.6028840    -1.4504550
  H       -1.9319890    -1.7056860    -0.3020050
  H        1.2516430     1.4279040    -0.7806770
  H        1.1211640     1.2868180     0.9683990
  H        0.2309340    -1.1197490    -0.1755670
  H       -3.1861080    -0.6022700     1.5809140
  H       -3.8905480     0.5449040     0.4307430
  H       -4.3152940    -1.1768540     0.3431720
units angstrom
no_reorient  #important for SAPT in psi4, default
symmetry c1  #important for SAPT in psi4, default
}

set PROPERTIES_ORIGIN ["COM"]
properties('MP2/aug-cc-pvtz', properties = ['dipole'])
--------------------------------------------------------------------------

    Molecular point group: c1
  Charge       = -1
  Multiplicity = 1
  Basis Set: AUG-CC-PVTZ
    Blend: AUG-CC-PVTZ
  Basis Set: (AUG-CC-PVTZ AUX)
    Blend: AUG-CC-PVTZ-JKFIT

    Orbital Energies [Eh]
    ---------------------

    Doubly Occupied:

       1A    -20.387498     2A    -20.322571     3A    -20.313847
       4A    -15.445010     5A    -11.224319     6A    -11.163917
       7A    -11.133931     8A    -11.133008     9A    -11.109088
      10A     -1.238311    11A     -1.190433    12A     -1.097254
      13A     -1.081736    14A     -0.934720    15A     -0.827303
      16A     -0.773009    17A     -0.656602    18A     -0.597900
      19A     -0.538362    20A     -0.535840    21A     -0.498708
      22A     -0.485129    23A     -0.471438    24A     -0.443879
      25A     -0.431407    26A     -0.424033    27A     -0.401095
      28A     -0.395535    29A     -0.359293    30A     -0.343919
      31A     -0.297537    32A     -0.255835    33A     -0.238889
      34A     -0.225926    35A     -0.216010

  @DF-RHF Final Energy:  -473.24271098197687

   => Energetics <=

    Nuclear Repulsion Energy =            434.1718651925976360
    One-Electron Energy =               -1520.4425733578721065
    Two-Electron Energy =                 613.0279971832976571
    Total Energy =                       -473.2427109819768702
  Basis Set: (AUG-CC-PVTZ AUX)
    Blend: AUG-CC-PVTZ-RI
    Molecular point group: c1

    Geometry (in Angstrom), charge = -1, multiplicity = 1:

       Center              X                  Y                   Z               Mass
    ------------   -----------------  -----------------  -----------------  -----------------
         O           -1.622704717435     1.543626968191    -0.120372285929    15.994914619570
         O            2.159793282565    -1.445881031809    -0.022687285929    15.994914619570
         O            3.427638282565     0.432330968191     0.217996714071    15.994914619570
         N           -0.100085717435    -0.145902031809    -0.092156285929    14.003074004430
         C           -2.421108117435    -0.695753331809    -0.590190085929    12.000000000000
         C           -1.354960717435     0.327602968191    -0.187202285929    12.000000000000
         C            1.071384282565     0.688552968191     0.063362714071    12.000000000000
         C           -3.609624717435    -0.486504031809     0.566113714071    12.000000000000
         C            2.342460282565    -0.195636031809     0.088520714071    12.000000000000
         H           -2.791416717435    -0.619200031809    -1.427476285929     1.007825032230
         H           -2.036092717435    -1.722002031809    -0.279026285929     1.007825032230
         H            1.147539282565     1.411587968191    -0.757698285929     1.007825032230
         H            1.017060282565     1.270501968191     0.991377714071     1.007825032230
         H            0.126830282565    -1.136065031809    -0.152588285929     1.007825032230
         H           -3.290211717435    -0.618586031809     1.603892714071     1.007825032230
         H           -3.994651717435     0.528587968191     0.453721714071     1.007825032230
         H           -4.419397717435    -1.193170031809     0.366150714071     1.007825032230

  Basis Set: AUG-CC-PVTZ
    Blend: AUG-CC-PVTZ
  Basis Set: (AUG-CC-PVTZ AUX)
    Blend: AUG-CC-PVTZ-JKFIT
	 Reference Energy          =    -473.2427109819768702 [Eh]
	 Singles Energy            =      -0.0000000000000000 [Eh]
	 Same-Spin Energy          =      -0.4759752805716300 [Eh]
	 Opposite-Spin Energy      =      -1.4666499951262726 [Eh]
	 Correlation Energy        =      -1.9426252756979026 [Eh]
	 Total Energy              =    -475.1853362576747486 [Eh]

	 ================> DF-SCS-MP2 Energies <==================
	-----------------------------------------------------------
	 SCS Same-Spin Scale       =       0.3333333333333333 [-]
	 SCS Opposite-Spin Scale   =       1.2000000000000000 [-]
	 SCS Same-Spin Energy      =      -0.1586584268572100 [Eh]
	 SCS Opposite-Spin Energy  =      -1.7599799941515271 [Eh]
	 SCS Correlation Energy    =      -1.9186384210087370 [Eh]
	 SCS Total Energy          =    -475.1613494029855929 [Eh]
	-----------------------------------------------------------

  Dipole Moment: [D]
     X:    -9.3267      Y:    -1.0613      Z:    -0.5698     Total:     9.4042

*** Psi4 exiting successfully. Buy a developer a beer!
