                               Psi4 1.3.2 release

  ==> Input File <==

--------------------------------------------------------------------------
#psi4
#
memory 32 gb

molecule  {
-1 1
  O       -1.5186010     1.5599430    -0.1433510
  O        2.2638970    -1.4295650    -0.0456660
  O        3.5317420     0.4486470     0.1950180
  N        0.0040180    -0.1295860    -0.1151350
  C       -2.3331216    -0.6914798    -0.4645242
  C       -1.2508570     0.3439190    -0.2101810
  C        1.1754880     0.7048690     0.0403840
  C       -3.5055210    -0.4701880     0.5431350
  C        2.4465640    -0.1793200     0.0655420
  H       -2.6873130    -0.6028840    -1.4504550
  H       -1.9319890    -1.7056860    -0.3020050
  H        1.2516430     1.4279040    -0.7806770
  H        1.1211640     1.2868180     0.9683990
  H        0.2309340    -1.1197490    -0.1755670
  H       -3.1861080    -0.6022700     1.5809140
  H       -3.8905480     0.5449040     0.4307430
  H       -4.3152940    -1.1768540     0.3431720
units angstrom
no_reorient  #important for SAPT in psi4, default
symmetry c1  #important for SAPT in psi4, default
}

set PROPERTIES_ORIGIN ["COM"]
properties('MP2/aug-cc-pvtz', properties = ['dipole'])
--------------------------------------------------------------------------

    Molecular point group: c1
  Charge       = -1
  Multiplicity = 1
  Basis Set: AUG-CC-PVTZ
    Blend: AUG-CC-PVTZ
  Basis Set: (AUG-CC-PVTZ AUX)
    Blend: AUG-CC-PVTZ-JKFIT

    Orbital Energies [Eh]
    ---------------------

    Doubly Occupied:

       1A    -20.387061     2A    -20.322565     3A    -20.313767
       4A    -15.444898     5A    -11.221936     6A    -11.163830
       7A    -11.133825     8A    -11.129209     9A    -11.108844
      10A     -1.238236    11A     -1.190386    12A     -1.097205
      13A     -1.081715    14A     -0.944761    15A     -0.830265
      16A     -0.762510    17A     -0.653096    18A     -0.586585
      19A     -0.543960    20A     -0.529123    21A     -0.500985
      22A     -0.485291    23A     -0.473973    24A     -0.435361
      25A     -0.429054    26A     -0.421870    27A     -0.404295
      28A     -0.393848    29A     -0.382505    30A     -0.345574
      31A     -0.298467    32A     -0.256118    33A     -0.238880
      34A     -0.225871    35A     -0.216010

  @DF-RHF Final Energy:  -473.28574966404852

   => Energetics <=

    Nuclear Repulsion Energy =            434.9862240721015496
    One-Electron Energy =               -1522.1601900556447617
    Two-Electron Energy =                 613.8882163194946315
    Total Energy =                       -473.2857496640485806
  Basis Set: (AUG-CC-PVTZ AUX)
    Blend: AUG-CC-PVTZ-RI
    Molecular point group: c1

    Geometry (in Angstrom), charge = -1, multiplicity = 1:

       Center              X                  Y                   Z               Mass
    ------------   -----------------  -----------------  -----------------  -----------------
         O           -1.621217552666     1.544738152623    -0.134088006538    15.994914619570
         O            2.161280447334    -1.444769847377    -0.036403006538    15.994914619570
         O            3.429125447334     0.433442152623     0.204280993462    15.994914619570
         N           -0.098598552666    -0.144790847377    -0.105872006538    14.003074004430
         C           -2.435738152666    -0.706684647377    -0.455261206538    12.000000000000
         C           -1.353473552666     0.328714152623    -0.200918006538    12.000000000000
         C            1.072871447334     0.689664152623     0.049646993462    12.000000000000
         C           -3.608137552666    -0.485392847377     0.552397993462    12.000000000000
         C            2.343947447334    -0.194524847377     0.074804993462    12.000000000000
         H           -2.789929552666    -0.618088847377    -1.441192006538     1.007825032230
         H           -2.034605552666    -1.720890847377    -0.292742006538     1.007825032230
         H            1.149026447334     1.412699152623    -0.771414006538     1.007825032230
         H            1.018547447334     1.271613152623     0.977661993462     1.007825032230
         H            0.128317447334    -1.134953847377    -0.166304006538     1.007825032230
         H           -3.288724552666    -0.617474847377     1.590176993462     1.007825032230
         H           -3.993164552666     0.529699152623     0.440005993462     1.007825032230
         H           -4.417910552666    -1.192058847377     0.352434993462     1.007825032230

  Basis Set: AUG-CC-PVTZ
    Blend: AUG-CC-PVTZ
  Basis Set: (AUG-CC-PVTZ AUX)
    Blend: AUG-CC-PVTZ-JKFIT
	 Reference Energy          =    -473.2857496640485238 [Eh]
	 Singles Energy            =      -0.0000000000000000 [Eh]
	 Same-Spin Energy          =      -0.4756974986226014 [Eh]
	 Opposite-Spin Energy      =      -1.4647969220664381 [Eh]
	 Correlation Energy        =      -1.9404944206890393 [Eh]
	 Total Energy              =    -475.2262440847375728 [Eh]

	 ================> DF-SCS-MP2 Energies <==================
	-----------------------------------------------------------
	 SCS Same-Spin Scale       =       0.3333333333333333 [-]
	 SCS Opposite-Spin Scale   =       1.2000000000000000 [-]
	 SCS Same-Spin Energy      =      -0.1585658328742005 [Eh]
	 SCS Opposite-Spin Energy  =      -1.7577563064797257 [Eh]
	 SCS Correlation Energy    =      -1.9163221393539263 [Eh]
	 SCS Total Energy          =    -475.2020718034024753 [Eh]
	-----------------------------------------------------------

  Dipole Moment: [D]
     X:    -9.3691      Y:    -1.1256      Z:    -0.4629     Total:     9.4478

*** Psi4 exiting successfully. Buy a developer a beer!
