                               Psi4 1.3.2 release

  ==> Input File <==

--------------------------------------------------------------------------
#psi4
#
memory 32 gb

molecule  {
-1 1
  O       -1.5186010     1.5599430    -0.1433510
  O        2.2638970    -1.4295650    -0.0456660
  O        3.5317420     0.4486470     0.1950180
  N        0.0040180    -0.1295860    -0.1151350
  C       -2.3384940    -0.6954940    -0.4149760
  C       -1.2508570     0.3439190    -0.2101810
  C        1.1754880     0.7048690     0.0403840
  C       -3.5055210    -0.4701880     0.5431350
  C        2.4465640    -0.1793200     0.0655420
  H       -2.6873130    -0.6028840    -1.4504550
  H       -1.9319890    -1.7056860    -0.3020050
  H        1.2516430     1.4279040    -0.7806770
  H        1.1211640     1.2868180     0.9683990
  H        0.2309340    -1.1197490    -0.1755670
  H       -3.1861080    -0.6022700     1.5809140
  H       -3.8905480     0.5449040     0.4307430
  H       -4.3152940    -1.1768540     0.3431720
units angstrom
no_reorient  #important for SAPT in psi4, default
symmetry c1  #important for SAPT in psi4, default
}

set PROPERTIES_ORIGIN ["COM"]
properties('MP2/aug-cc-pvtz', properties = ['dipole'])
--------------------------------------------------------------------------

    Molecular point group: c1
  Charge       = -1
  Multiplicity = 1
  Basis Set: AUG-CC-PVTZ
    Blend: AUG-CC-PVTZ
  Basis Set: (AUG-CC-PVTZ AUX)
    Blend: AUG-CC-PVTZ-JKFIT

    Orbital Energies [Eh]
    ---------------------

    Doubly Occupied:

       1A    -20.387071     2A    -20.322615     3A    -20.313801
       4A    -15.444969     5A    -11.221965     6A    -11.163870
       7A    -11.135297     8A    -11.127814     9A    -11.108891
      10A     -1.238333    11A     -1.190429    12A     -1.097273
      13A     -1.081793    14A     -0.949543    15A     -0.831339
      16A     -0.759911    17A     -0.652572    18A     -0.585456
      19A     -0.545244    20A     -0.526842    21A     -0.502047
      22A     -0.485607    23A     -0.475143    24A     -0.437220
      25A     -0.427758    26A     -0.419822    27A     -0.407553
      28A     -0.394644    29A     -0.380820    30A     -0.345441
      31A     -0.298546    32A     -0.256259    33A     -0.238929
      34A     -0.225907    35A     -0.216056

  @DF-RHF Final Energy:  -473.28800157013973

   => Energetics <=

    Nuclear Repulsion Energy =            435.2339264894336566
    One-Electron Energy =               -1522.6502975190703637
    Two-Electron Energy =                 614.1283694594968665
    Total Energy =                       -473.2880015701397269
  Basis Set: (AUG-CC-PVTZ AUX)
    Blend: AUG-CC-PVTZ-RI
    Molecular point group: c1

    Geometry (in Angstrom), charge = -1, multiplicity = 1:

       Center              X                  Y                   Z               Mass
    ------------   -----------------  -----------------  -----------------  -----------------
         O           -1.620721831076     1.545108550509    -0.138659913408    15.994914619570
         O            2.161776168924    -1.444399449491    -0.040974913408    15.994914619570
         O            3.429621168924     0.433812550509     0.199709086592    15.994914619570
         N           -0.098102831076    -0.144420449491    -0.110443913408    14.003074004430
         C           -2.440614831076    -0.710328449491    -0.410284913408    12.000000000000
         C           -1.352977831076     0.329084550509    -0.205489913408    12.000000000000
         C            1.073367168924     0.690034550509     0.045075086592    12.000000000000
         C           -3.607641831076    -0.485022449491     0.547826086592    12.000000000000
         C            2.344443168924    -0.194154449491     0.070233086592    12.000000000000
         H           -2.789433831076    -0.617718449491    -1.445763913408     1.007825032230
         H           -2.034109831076    -1.720520449491    -0.297313913408     1.007825032230
         H            1.149522168924     1.413069550509    -0.775985913408     1.007825032230
         H            1.019043168924     1.271983550509     0.973090086592     1.007825032230
         H            0.128813168924    -1.134583449491    -0.170875913408     1.007825032230
         H           -3.288228831076    -0.617104449491     1.585605086592     1.007825032230
         H           -3.992668831076     0.530069550509     0.435434086592     1.007825032230
         H           -4.417414831076    -1.191688449491     0.347863086592     1.007825032230

  Basis Set: AUG-CC-PVTZ
    Blend: AUG-CC-PVTZ
  Basis Set: (AUG-CC-PVTZ AUX)
    Blend: AUG-CC-PVTZ-JKFIT
	 Reference Energy          =    -473.2880015701397269 [Eh]
	 Singles Energy            =      -0.0000000000000000 [Eh]
	 Same-Spin Energy          =      -0.4758322787638928 [Eh]
	 Opposite-Spin Energy      =      -1.4647862888432277 [Eh]
	 Correlation Energy        =      -1.9406185676071206 [Eh]
	 Total Energy              =    -475.2286201377468728 [Eh]

	 ================> DF-SCS-MP2 Energies <==================
	-----------------------------------------------------------
	 SCS Same-Spin Scale       =       0.3333333333333333 [-]
	 SCS Opposite-Spin Scale   =       1.2000000000000000 [-]
	 SCS Same-Spin Energy      =      -0.1586107595879643 [Eh]
	 SCS Opposite-Spin Energy  =      -1.7577435466118732 [Eh]
	 SCS Correlation Energy    =      -1.9163543061998374 [Eh]
	 SCS Total Energy          =    -475.2043558763395481 [Eh]
	-----------------------------------------------------------

  Dipole Moment: [D]
     X:    -9.3782      Y:    -1.1390      Z:    -0.4117     Total:     9.4561

*** Psi4 exiting successfully. Buy a developer a beer!
