                               Psi4 1.3.2 release

  ==> Input File <==

--------------------------------------------------------------------------
#psi4
#
memory 32 gb

molecule  {
0 1
  O       -2.3098380     0.0000000     0.0000530
  O        3.0303810     0.0000000    -0.0000560
  C       -0.3206930     1.2871930     0.0000000
  C       -0.3206930    -1.2871930     0.0000010
  C       -1.0703170     0.0000000     0.0000210
  C        1.0315930     1.2651910    -0.0000170
  C        1.0315930    -1.2651910    -0.0000160
  C        1.7909690     0.0000000    -0.0000320
  C       -1.1413434     2.5387143     0.1000150
  C       -1.1413450    -2.5387140     0.0000190
  H        1.6245090     2.1778770    -0.0000300
  H        1.6245090    -2.1778770    -0.0000270
  H       -1.7933300     2.5679320     0.8776520
  H       -1.7934040     2.5679060    -0.8775670
  H       -0.4992340     3.4225460    -0.0000240
  H       -0.4992350    -3.4225460    -0.0000280
  H       -1.7934120    -2.5679030    -0.8775580
  H       -1.7933230    -2.5679350     0.8776610
units angstrom
no_reorient  #important for SAPT in psi4, default
symmetry c1  #important for SAPT in psi4, default
}

set PROPERTIES_ORIGIN ["COM"]
properties('MP2/aug-cc-pvtz', properties = ['dipole'])
--------------------------------------------------------------------------

    Molecular point group: c1
  Charge       = 0
  Multiplicity = 1
  Basis Set: AUG-CC-PVTZ
    Blend: AUG-CC-PVTZ
  Basis Set: (AUG-CC-PVTZ AUX)
    Blend: AUG-CC-PVTZ-JKFIT

    Orbital Energies [Eh]
    ---------------------

    Doubly Occupied:

       1A    -20.578091     2A    -20.566905     3A    -11.360646
       4A    -11.353300     5A    -11.288450     6A    -11.287626
       7A    -11.270404     8A    -11.270381     9A    -11.244975
      10A    -11.243452    11A     -1.402184    12A     -1.389100
      13A     -1.160892    14A     -1.102303    15A     -1.007520
      16A     -0.965531    17A     -0.930077    18A     -0.823698
      19A     -0.808456    20A     -0.722287    21A     -0.697414
      22A     -0.656498    23A     -0.624695    24A     -0.612640
      25A     -0.608717    26A     -0.594239    27A     -0.592644
      28A     -0.572156    29A     -0.558819    30A     -0.549558
      31A     -0.543162    32A     -0.526980    33A     -0.458630
      34A     -0.435954    35A     -0.399315    36A     -0.383983

  @DF-RHF Final Energy:  -457.46132064310063

   => Energetics <=

    Nuclear Repulsion Energy =            490.4907771532102174
    One-Electron Energy =               -1594.7208322998808399
    Two-Electron Energy =                 646.7687345035699309
    Total Energy =                       -457.4613206431006347
  Basis Set: (AUG-CC-PVTZ AUX)
    Blend: AUG-CC-PVTZ-RI
    Molecular point group: c1

    Geometry (in Angstrom), charge = 0, multiplicity = 1:

       Center              X                  Y                   Z               Mass
    ------------   -----------------  -----------------  -----------------  -----------------
         O           -2.345712000744    -0.000000026460    -0.008766567852    15.994914619570
         O            2.994506999256    -0.000000026460    -0.008875567852    15.994914619570
         C           -0.356567000744     1.287192973540    -0.008819567852    12.000000000000
         C           -0.356567000744    -1.287193026460    -0.008818567852    12.000000000000
         C           -1.106191000744    -0.000000026460    -0.008798567852    12.000000000000
         C            0.995718999256     1.265190973540    -0.008836567852    12.000000000000
         C            0.995718999256    -1.265191026460    -0.008835567852    12.000000000000
         C            1.755094999256    -0.000000026460    -0.008851567852    12.000000000000
         C           -1.177217400744     2.538714273540     0.091195432148    12.000000000000
         C           -1.177219000744    -2.538714026460    -0.008800567852    12.000000000000
         H            1.588634999256     2.177876973540    -0.008849567852     1.007825032230
         H            1.588634999256    -2.177877026460    -0.008846567852     1.007825032230
         H           -1.829204000744     2.567931973540     0.868832432148     1.007825032230
         H           -1.829278000744     2.567905973540    -0.886386567852     1.007825032230
         H           -0.535108000744     3.422545973540    -0.008843567852     1.007825032230
         H           -0.535109000744    -3.422546026460    -0.008847567852     1.007825032230
         H           -1.829286000744    -2.567903026460    -0.886377567852     1.007825032230
         H           -1.829197000744    -2.567935026460     0.868841432148     1.007825032230

  Basis Set: AUG-CC-PVTZ
    Blend: AUG-CC-PVTZ
  Basis Set: (AUG-CC-PVTZ AUX)
    Blend: AUG-CC-PVTZ-JKFIT
	 Reference Energy          =    -457.4613206431006347 [Eh]
	 Singles Energy            =      -0.0000000000000000 [Eh]
	 Same-Spin Energy          =      -0.4669644782816038 [Eh]
	 Opposite-Spin Energy      =      -1.4773554651333711 [Eh]
	 Correlation Energy        =      -1.9443199434149749 [Eh]
	 Total Energy              =    -459.4056405865156307 [Eh]

	 ================> DF-SCS-MP2 Energies <==================
	-----------------------------------------------------------
	 SCS Same-Spin Scale       =       0.3333333333333333 [-]
	 SCS Opposite-Spin Scale   =       1.2000000000000000 [-]
	 SCS Same-Spin Energy      =      -0.1556548260938679 [Eh]
	 SCS Opposite-Spin Energy  =      -1.7728265581600453 [Eh]
	 SCS Correlation Energy    =      -1.9284813842539132 [Eh]
	 SCS Total Energy          =    -459.3898020273545626 [Eh]
	-----------------------------------------------------------

  Dipole Moment: [D]
     X:    -1.1272      Y:    -0.0046      Z:     0.0261     Total:     1.1276

*** Psi4 exiting successfully. Buy a developer a beer!
