                               Psi4 1.3.2 release

  ==> Input File <==

--------------------------------------------------------------------------
#psi4
#
memory 32 gb

molecule  {
0 1
  O       -2.3098380     0.0000000     0.0000530
  O        3.0303810     0.0000000    -0.0000560
  C       -0.3206930     1.2871930     0.0000000
  C       -0.3206996    -1.2871931    -0.2499990
  C       -1.0703170     0.0000000     0.0000210
  C        1.0315930     1.2651910    -0.0000170
  C        1.0315930    -1.2651910    -0.0000160
  C        1.7909690     0.0000000    -0.0000320
  C       -1.1413450     2.5387140     0.0000150
  C       -1.1413450    -2.5387140     0.0000190
  H        1.6245090     2.1778770    -0.0000300
  H        1.6245090    -2.1778770    -0.0000270
  H       -1.7933300     2.5679320     0.8776520
  H       -1.7934040     2.5679060    -0.8775670
  H       -0.4992340     3.4225460    -0.0000240
  H       -0.4992350    -3.4225460    -0.0000280
  H       -1.7934120    -2.5679030    -0.8775580
  H       -1.7933230    -2.5679350     0.8776610
units angstrom
no_reorient  #important for SAPT in psi4, default
symmetry c1  #important for SAPT in psi4, default
}

set PROPERTIES_ORIGIN ["COM"]
properties('MP2/aug-cc-pvtz', properties = ['dipole'])
--------------------------------------------------------------------------

    Molecular point group: c1
  Charge       = 0
  Multiplicity = 1
  Basis Set: AUG-CC-PVTZ
    Blend: AUG-CC-PVTZ
  Basis Set: (AUG-CC-PVTZ AUX)
    Blend: AUG-CC-PVTZ-JKFIT

    Orbital Energies [Eh]
    ---------------------

    Doubly Occupied:

       1A    -20.576769     2A    -20.568746     3A    -11.362128
       4A    -11.354405     5A    -11.291464     6A    -11.288357
       7A    -11.277821     8A    -11.270474     9A    -11.243728
      10A    -11.243512    11A     -1.400789    12A     -1.390661
      13A     -1.158170    14A     -1.099038    15A     -1.005928
      16A     -0.963281    17A     -0.926730    18A     -0.821913
      19A     -0.805899    20A     -0.718502    21A     -0.696874
      22A     -0.656891    23A     -0.617169    24A     -0.612047
      25A     -0.607663    26A     -0.597912    27A     -0.583865
      28A     -0.570766    29A     -0.557457    30A     -0.549978
      31A     -0.542774    32A     -0.528136    33A     -0.457114
      34A     -0.435224    35A     -0.398440    36A     -0.383202

  @DF-RHF Final Energy:  -457.44929398234302

   => Energetics <=

    Nuclear Repulsion Energy =            489.7290682455883370
    One-Electron Energy =               -1593.2290713612146646
    Two-Electron Energy =                 646.0507091332833625
    Total Energy =                       -457.4492939823430788
  Basis Set: (AUG-CC-PVTZ AUX)
    Blend: AUG-CC-PVTZ-RI
    Molecular point group: c1

    Geometry (in Angstrom), charge = 0, multiplicity = 1:

       Center              X                  Y                   Z               Mass
    ------------   -----------------  -----------------  -----------------  -----------------
         O           -2.345711277494     0.000000008820     0.022103884190    15.994914619570
         O            2.994507722506     0.000000008820     0.021994884190    15.994914619570
         C           -0.356566277494     1.287193008820     0.022050884190    12.000000000000
         C           -0.356572877494    -1.287193091180    -0.227948115810    12.000000000000
         C           -1.106190277494     0.000000008820     0.022071884190    12.000000000000
         C            0.995719722506     1.265191008820     0.022033884190    12.000000000000
         C            0.995719722506    -1.265190991180     0.022034884190    12.000000000000
         C            1.755095722506     0.000000008820     0.022018884190    12.000000000000
         C           -1.177218277494     2.538714008820     0.022065884190    12.000000000000
         C           -1.177218277494    -2.538713991180     0.022069884190    12.000000000000
         H            1.588635722506     2.177877008820     0.022020884190     1.007825032230
         H            1.588635722506    -2.177876991180     0.022023884190     1.007825032230
         H           -1.829203277494     2.567932008820     0.899702884190     1.007825032230
         H           -1.829277277494     2.567906008820    -0.855516115810     1.007825032230
         H           -0.535107277494     3.422546008820     0.022026884190     1.007825032230
         H           -0.535108277494    -3.422545991180     0.022022884190     1.007825032230
         H           -1.829285277494    -2.567902991180    -0.855507115810     1.007825032230
         H           -1.829196277494    -2.567934991180     0.899711884190     1.007825032230

  Basis Set: AUG-CC-PVTZ
    Blend: AUG-CC-PVTZ
  Basis Set: (AUG-CC-PVTZ AUX)
    Blend: AUG-CC-PVTZ-JKFIT
	 Reference Energy          =    -457.4492939823430220 [Eh]
	 Singles Energy            =      -0.0000000000000000 [Eh]
	 Same-Spin Energy          =      -0.4678907745591230 [Eh]
	 Opposite-Spin Energy      =      -1.4798142316149492 [Eh]
	 Correlation Energy        =      -1.9477050061740722 [Eh]
	 Total Energy              =    -459.3969989885171117 [Eh]

	 ================> DF-SCS-MP2 Energies <==================
	-----------------------------------------------------------
	 SCS Same-Spin Scale       =       0.3333333333333333 [-]
	 SCS Opposite-Spin Scale   =       1.2000000000000000 [-]
	 SCS Same-Spin Energy      =      -0.1559635915197077 [Eh]
	 SCS Opposite-Spin Energy  =      -1.7757770779379389 [Eh]
	 SCS Correlation Energy    =      -1.9317406694576467 [Eh]
	 SCS Total Energy          =    -459.3810346518006895 [Eh]
	-----------------------------------------------------------

  Dipole Moment: [D]
     X:    -1.0480      Y:     0.0857      Z:     0.0862     Total:     1.0551

*** Psi4 exiting successfully. Buy a developer a beer!
