                               Psi4 1.3.2 release

  ==> Input File <==

--------------------------------------------------------------------------
#psi4
#
memory 32 gb

molecule  {
0 1
  O       -2.3098380     0.0000000     0.0000530
  O        3.0303810     0.0000000    -0.0000560
  C       -0.3206930     1.2871930     0.0000000
  C       -0.3206970    -1.2871931    -0.1499990
  C       -1.0703170     0.0000000     0.0000210
  C        1.0315930     1.2651910    -0.0000170
  C        1.0315930    -1.2651910    -0.0000160
  C        1.7909690     0.0000000    -0.0000320
  C       -1.1413450     2.5387140     0.0000150
  C       -1.1413450    -2.5387140     0.0000190
  H        1.6245090     2.1778770    -0.0000300
  H        1.6245090    -2.1778770    -0.0000270
  H       -1.7933300     2.5679320     0.8776520
  H       -1.7934040     2.5679060    -0.8775670
  H       -0.4992340     3.4225460    -0.0000240
  H       -0.4992350    -3.4225460    -0.0000280
  H       -1.7934120    -2.5679030    -0.8775580
  H       -1.7933230    -2.5679350     0.8776610
units angstrom
no_reorient  #important for SAPT in psi4, default
symmetry c1  #important for SAPT in psi4, default
}

set PROPERTIES_ORIGIN ["COM"]
properties('MP2/aug-cc-pvtz', properties = ['dipole'])
--------------------------------------------------------------------------

    Molecular point group: c1
  Charge       = 0
  Multiplicity = 1
  Basis Set: AUG-CC-PVTZ
    Blend: AUG-CC-PVTZ
  Basis Set: (AUG-CC-PVTZ AUX)
    Blend: AUG-CC-PVTZ-JKFIT

    Orbital Energies [Eh]
    ---------------------

    Doubly Occupied:

       1A    -20.577542     2A    -20.567546     3A    -11.361138
       4A    -11.353629     5A    -11.289037     6A    -11.287834
       7A    -11.273035     8A    -11.270361     9A    -11.243519
      10A    -11.243469    11A     -1.401627    12A     -1.389634
      13A     -1.159815    14A     -1.101146    15A     -1.006750
      16A     -0.964353    17A     -0.928612    18A     -0.822686
      19A     -0.807157    20A     -0.720760    21A     -0.697076
      22A     -0.656079    23A     -0.617968    24A     -0.612685
      25A     -0.607554    26A     -0.596112    27A     -0.586055
      28A     -0.573049    29A     -0.556290    30A     -0.549853
      31A     -0.547300    32A     -0.531537    33A     -0.458001
      34A     -0.435583    35A     -0.399223    36A     -0.384152

  @DF-RHF Final Energy:  -457.46358039973796

   => Energetics <=

    Nuclear Repulsion Energy =            490.2405431804463660
    One-Electron Energy =               -1594.2519112661771032
    Two-Electron Energy =                 646.5477876859928301
    Total Energy =                       -457.4635803997379071
  Basis Set: (AUG-CC-PVTZ AUX)
    Blend: AUG-CC-PVTZ-RI
    Molecular point group: c1

    Geometry (in Angstrom), charge = 0, multiplicity = 1:

       Center              X                  Y                   Z               Mass
    ------------   -----------------  -----------------  -----------------  -----------------
         O           -2.345711506817     0.000000008820     0.013283755035    15.994914619570
         O            2.994507493183     0.000000008820     0.013174755035    15.994914619570
         C           -0.356566506817     1.287193008820     0.013230755035    12.000000000000
         C           -0.356570506817    -1.287193091180    -0.136768244965    12.000000000000
         C           -1.106190506817     0.000000008820     0.013251755035    12.000000000000
         C            0.995719493183     1.265191008820     0.013213755035    12.000000000000
         C            0.995719493183    -1.265190991180     0.013214755035    12.000000000000
         C            1.755095493183     0.000000008820     0.013198755035    12.000000000000
         C           -1.177218506817     2.538714008820     0.013245755035    12.000000000000
         C           -1.177218506817    -2.538713991180     0.013249755035    12.000000000000
         H            1.588635493183     2.177877008820     0.013200755035     1.007825032230
         H            1.588635493183    -2.177876991180     0.013203755035     1.007825032230
         H           -1.829203506817     2.567932008820     0.890882755035     1.007825032230
         H           -1.829277506817     2.567906008820    -0.864336244965     1.007825032230
         H           -0.535107506817     3.422546008820     0.013206755035     1.007825032230
         H           -0.535108506817    -3.422545991180     0.013202755035     1.007825032230
         H           -1.829285506817    -2.567902991180    -0.864327244965     1.007825032230
         H           -1.829196506817    -2.567934991180     0.890891755035     1.007825032230

  Basis Set: AUG-CC-PVTZ
    Blend: AUG-CC-PVTZ
  Basis Set: (AUG-CC-PVTZ AUX)
    Blend: AUG-CC-PVTZ-JKFIT
	 Reference Energy          =    -457.4635803997379639 [Eh]
	 Singles Energy            =      -0.0000000000000000 [Eh]
	 Same-Spin Energy          =      -0.4672009138870341 [Eh]
	 Opposite-Spin Energy      =      -1.4779015631229400 [Eh]
	 Correlation Energy        =      -1.9451024770099741 [Eh]
	 Total Energy              =    -459.4086828767479460 [Eh]

	 ================> DF-SCS-MP2 Energies <==================
	-----------------------------------------------------------
	 SCS Same-Spin Scale       =       0.3333333333333333 [-]
	 SCS Opposite-Spin Scale   =       1.2000000000000000 [-]
	 SCS Same-Spin Energy      =      -0.1557336379623447 [Eh]
	 SCS Opposite-Spin Energy  =      -1.7734818757475279 [Eh]
	 SCS Correlation Energy    =      -1.9292155137098725 [Eh]
	 SCS Total Energy          =    -459.3927959134478556 [Eh]
	-----------------------------------------------------------

  Dipole Moment: [D]
     X:    -1.1004      Y:     0.0306      Z:     0.0488     Total:     1.1019

*** Psi4 exiting successfully. Buy a developer a beer!
