                               Psi4 1.3.2 release

  ==> Input File <==

--------------------------------------------------------------------------
#psi4
#
memory 32 gb

molecule  {
0 1
  O       -2.3098380     0.0000000     0.0000530
  O        3.0303810     0.0000000    -0.0000560
  C       -0.3206930     1.2871930     0.0000000
  C       -0.3206930    -1.2871930     0.0000010
  C       -1.0703170     0.0000000     0.0000210
  C        1.0315930     1.2651910    -0.0000170
  C        1.0315930    -1.2651910    -0.0000160
  C        1.7909690     0.0000000    -0.0000320
  C       -1.1413409     2.5387147     0.2500150
  C       -1.1413450    -2.5387140     0.0000190
  H        1.6245090     2.1778770    -0.0000300
  H        1.6245090    -2.1778770    -0.0000270
  H       -1.7933300     2.5679320     0.8776520
  H       -1.7934040     2.5679060    -0.8775670
  H       -0.4992340     3.4225460    -0.0000240
  H       -0.4992350    -3.4225460    -0.0000280
  H       -1.7934120    -2.5679030    -0.8775580
  H       -1.7933230    -2.5679350     0.8776610
units angstrom
no_reorient  #important for SAPT in psi4, default
symmetry c1  #important for SAPT in psi4, default
}

set PROPERTIES_ORIGIN ["COM"]
properties('MP2/aug-cc-pvtz', properties = ['dipole'])
--------------------------------------------------------------------------

    Molecular point group: c1
  Charge       = 0
  Multiplicity = 1
  Basis Set: AUG-CC-PVTZ
    Blend: AUG-CC-PVTZ
  Basis Set: (AUG-CC-PVTZ AUX)
    Blend: AUG-CC-PVTZ-JKFIT

    Orbital Energies [Eh]
    ---------------------

    Doubly Occupied:

       1A    -20.578449     2A    -20.566932     3A    -11.361097
       4A    -11.353720     5A    -11.292963     6A    -11.287948
       7A    -11.270761     8A    -11.270719     9A    -11.253117
      10A    -11.243658    11A     -1.402465    12A     -1.389220
      13A     -1.161227    14A     -1.102338    15A     -1.009168
      16A     -0.968557    17A     -0.931867    18A     -0.827184
      19A     -0.810713    20A     -0.723650    21A     -0.698625
      22A     -0.666291    23A     -0.642418    24A     -0.612776
      25A     -0.610617    26A     -0.597546    27A     -0.590172
      28A     -0.570396    29A     -0.560720    30A     -0.548525
      31A     -0.539105    32A     -0.498863    33A     -0.458801
      34A     -0.437164    35A     -0.397811    36A     -0.379534

  @DF-RHF Final Energy:  -457.40615405430395

   => Energetics <=

    Nuclear Repulsion Energy =            490.2691554084648828
    One-Electron Energy =               -1594.1203825336342561
    Two-Electron Energy =                 646.4450730708654191
    Total Energy =                       -457.4061540543038973
  Basis Set: (AUG-CC-PVTZ AUX)
    Blend: AUG-CC-PVTZ-RI
    Molecular point group: c1

    Geometry (in Angstrom), charge = 0, multiplicity = 1:

       Center              X                  Y                   Z               Mass
    ------------   -----------------  -----------------  -----------------  -----------------
         O           -2.345712221248    -0.000000061741    -0.021996761585    15.994914619570
         O            2.994506778752    -0.000000061741    -0.022105761585    15.994914619570
         C           -0.356567221248     1.287192938259    -0.022049761585    12.000000000000
         C           -0.356567221248    -1.287193061741    -0.022048761585    12.000000000000
         C           -1.106191221248    -0.000000061741    -0.022028761585    12.000000000000
         C            0.995718778752     1.265190938259    -0.022066761585    12.000000000000
         C            0.995718778752    -1.265191061741    -0.022065761585    12.000000000000
         C            1.755094778752    -0.000000061741    -0.022081761585    12.000000000000
         C           -1.177215121248     2.538714638259     0.227965238415    12.000000000000
         C           -1.177219221248    -2.538714061741    -0.022030761585    12.000000000000
         H            1.588634778752     2.177876938259    -0.022079761585     1.007825032230
         H            1.588634778752    -2.177877061741    -0.022076761585     1.007825032230
         H           -1.829204221248     2.567931938259     0.855602238415     1.007825032230
         H           -1.829278221248     2.567905938259    -0.899616761585     1.007825032230
         H           -0.535108221248     3.422545938259    -0.022073761585     1.007825032230
         H           -0.535109221248    -3.422546061741    -0.022077761585     1.007825032230
         H           -1.829286221248    -2.567903061741    -0.899607761585     1.007825032230
         H           -1.829197221248    -2.567935061741     0.855611238415     1.007825032230

  Basis Set: AUG-CC-PVTZ
    Blend: AUG-CC-PVTZ
  Basis Set: (AUG-CC-PVTZ AUX)
    Blend: AUG-CC-PVTZ-JKFIT
	 Reference Energy          =    -457.4061540543039541 [Eh]
	 Singles Energy            =      -0.0000000000000000 [Eh]
	 Same-Spin Energy          =      -0.4677468036293585 [Eh]
	 Opposite-Spin Energy      =      -1.4798482338481476 [Eh]
	 Correlation Energy        =      -1.9475950374775062 [Eh]
	 Total Energy              =    -459.3537490917814807 [Eh]

	 ================> DF-SCS-MP2 Energies <==================
	-----------------------------------------------------------
	 SCS Same-Spin Scale       =       0.3333333333333333 [-]
	 SCS Opposite-Spin Scale   =       1.2000000000000000 [-]
	 SCS Same-Spin Energy      =      -0.1559156012097861 [Eh]
	 SCS Opposite-Spin Energy  =      -1.7758178806177771 [Eh]
	 SCS Correlation Energy    =      -1.9317334818275633 [Eh]
	 SCS Total Energy          =    -459.3378875361315181 [Eh]
	-----------------------------------------------------------

  Dipole Moment: [D]
     X:    -1.1071      Y:    -0.0282      Z:     0.0533     Total:     1.1087

*** Psi4 exiting successfully. Buy a developer a beer!
