                               Psi4 1.3.2 release

  ==> Input File <==

--------------------------------------------------------------------------
#psi4
#
memory 32 gb

molecule  {
0 1
  O       -2.3098380     0.0000000     0.0000530
  O        3.0303810     0.0000000    -0.0000560
  C       -0.3206930     1.2871930     0.0000000
  C       -0.3206930    -1.2871930     0.0000010
  C       -1.0703170     0.0000000     0.0000210
  C        1.0315930     1.2651910    -0.0000170
  C        1.0315930    -1.2651910    -0.0000160
  C        1.7909690     0.0000000    -0.0000320
  C       -1.1413442     2.5387141     0.0500150
  C       -1.1413450    -2.5387140     0.0000190
  H        1.6245090     2.1778770    -0.0000300
  H        1.6245090    -2.1778770    -0.0000270
  H       -1.7933300     2.5679320     0.8776520
  H       -1.7934040     2.5679060    -0.8775670
  H       -0.4992340     3.4225460    -0.0000240
  H       -0.4992350    -3.4225460    -0.0000280
  H       -1.7934120    -2.5679030    -0.8775580
  H       -1.7933230    -2.5679350     0.8776610
units angstrom
no_reorient  #important for SAPT in psi4, default
symmetry c1  #important for SAPT in psi4, default
}

set PROPERTIES_ORIGIN ["COM"]
properties('MP2/aug-cc-pvtz', properties = ['dipole'])
--------------------------------------------------------------------------

    Molecular point group: c1
  Charge       = 0
  Multiplicity = 1
  Basis Set: AUG-CC-PVTZ
    Blend: AUG-CC-PVTZ
  Basis Set: (AUG-CC-PVTZ AUX)
    Blend: AUG-CC-PVTZ-JKFIT

    Orbital Energies [Eh]
    ---------------------

    Doubly Occupied:

       1A    -20.578039     2A    -20.566899     3A    -11.360581
       4A    -11.353237     5A    -11.287786     6A    -11.287578
       7A    -11.270351     8A    -11.270328     9A    -11.243803
      10A    -11.243421    11A     -1.402144    12A     -1.389081
      13A     -1.160841    14A     -1.102299    15A     -1.007321
      16A     -0.965128    17A     -0.929821    18A     -0.823289
      19A     -0.808059    20A     -0.722104    21A     -0.697270
      22A     -0.655811    23A     -0.620015    24A     -0.612882
      25A     -0.607844    26A     -0.593486    27A     -0.590899
      28A     -0.573516    29A     -0.556931    30A     -0.549875
      31A     -0.546952    32A     -0.532000    33A     -0.458601
      34A     -0.435758    35A     -0.399619    36A     -0.384532

  @DF-RHF Final Energy:  -457.46903744279979

   => Energetics <=

    Nuclear Repulsion Energy =            490.5228270839460833
    One-Electron Energy =               -1594.8075268607285579
    Two-Electron Energy =                 646.8156623339825728
    Total Energy =                       -457.4690374427998449
  Basis Set: (AUG-CC-PVTZ AUX)
    Blend: AUG-CC-PVTZ-RI
    Molecular point group: c1

    Geometry (in Angstrom), charge = 0, multiplicity = 1:

       Center              X                  Y                   Z               Mass
    ------------   -----------------  -----------------  -----------------  -----------------
         O           -2.345711930183    -0.000000008820    -0.004356503275    15.994914619570
         O            2.994507069817    -0.000000008820    -0.004465503275    15.994914619570
         C           -0.356566930183     1.287192991180    -0.004409503275    12.000000000000
         C           -0.356566930183    -1.287193008820    -0.004408503275    12.000000000000
         C           -1.106190930183    -0.000000008820    -0.004388503275    12.000000000000
         C            0.995719069817     1.265190991180    -0.004426503275    12.000000000000
         C            0.995719069817    -1.265191008820    -0.004425503275    12.000000000000
         C            1.755095069817    -0.000000008820    -0.004441503275    12.000000000000
         C           -1.177218130183     2.538714091180     0.045605496725    12.000000000000
         C           -1.177218930183    -2.538714008820    -0.004390503275    12.000000000000
         H            1.588635069817     2.177876991180    -0.004439503275     1.007825032230
         H            1.588635069817    -2.177877008820    -0.004436503275     1.007825032230
         H           -1.829203930183     2.567931991180     0.873242496725     1.007825032230
         H           -1.829277930183     2.567905991180    -0.881976503275     1.007825032230
         H           -0.535107930183     3.422545991180    -0.004433503275     1.007825032230
         H           -0.535108930183    -3.422546008820    -0.004437503275     1.007825032230
         H           -1.829285930183    -2.567903008820    -0.881967503275     1.007825032230
         H           -1.829196930183    -2.567935008820     0.873251496725     1.007825032230

  Basis Set: AUG-CC-PVTZ
    Blend: AUG-CC-PVTZ
  Basis Set: (AUG-CC-PVTZ AUX)
    Blend: AUG-CC-PVTZ-JKFIT
	 Reference Energy          =    -457.4690374427997881 [Eh]
	 Singles Energy            =      -0.0000000000000000 [Eh]
	 Same-Spin Energy          =      -0.4668550748974115 [Eh]
	 Opposite-Spin Energy      =      -1.4770185825870572 [Eh]
	 Correlation Energy        =      -1.9438736574844686 [Eh]
	 Total Energy              =    -459.4129111002842478 [Eh]

	 ================> DF-SCS-MP2 Energies <==================
	-----------------------------------------------------------
	 SCS Same-Spin Scale       =       0.3333333333333333 [-]
	 SCS Opposite-Spin Scale   =       1.2000000000000000 [-]
	 SCS Same-Spin Energy      =      -0.1556183582991371 [Eh]
	 SCS Opposite-Spin Energy  =      -1.7724222991044687 [Eh]
	 SCS Correlation Energy    =      -1.9280406574036058 [Eh]
	 SCS Total Energy          =    -459.3970781002033732 [Eh]
	-----------------------------------------------------------

  Dipole Moment: [D]
     X:    -1.1309      Y:    -0.0012      Z:     0.0134     Total:     1.1310

*** Psi4 exiting successfully. Buy a developer a beer!
