                               Psi4 1.3.2 release

  ==> Input File <==

--------------------------------------------------------------------------
#psi4
#
memory 32 gb

molecule  {
0 1
  O       -2.3098380     0.0000000     0.0000530
  O        3.0303810     0.0000000    -0.0000560
  C       -0.3206930     1.2871930     0.0000000
  C       -0.3206930    -1.2871930     0.0000010
  C       -1.0703170     0.0000000     0.0000210
  C        1.0315930     1.2651910    -0.0000170
  C        1.0315930    -1.2651910    -0.0000160
  C        1.7909690     0.0000000    -0.0000320
  C       -1.1413425     2.5387144     0.1500150
  C       -1.1413450    -2.5387140     0.0000190
  H        1.6245090     2.1778770    -0.0000300
  H        1.6245090    -2.1778770    -0.0000270
  H       -1.7933300     2.5679320     0.8776520
  H       -1.7934040     2.5679060    -0.8775670
  H       -0.4992340     3.4225460    -0.0000240
  H       -0.4992350    -3.4225460    -0.0000280
  H       -1.7934120    -2.5679030    -0.8775580
  H       -1.7933230    -2.5679350     0.8776610
units angstrom
no_reorient  #important for SAPT in psi4, default
symmetry c1  #important for SAPT in psi4, default
}

set PROPERTIES_ORIGIN ["COM"]
properties('MP2/aug-cc-pvtz', properties = ['dipole'])
--------------------------------------------------------------------------

    Molecular point group: c1
  Charge       = 0
  Multiplicity = 1
  Basis Set: AUG-CC-PVTZ
    Blend: AUG-CC-PVTZ
  Basis Set: (AUG-CC-PVTZ AUX)
    Blend: AUG-CC-PVTZ-JKFIT

    Orbital Energies [Eh]
    ---------------------

    Doubly Occupied:

       1A    -20.578178     2A    -20.566913     3A    -11.360754
       4A    -11.353403     5A    -11.289547     6A    -11.287705
       7A    -11.270490     8A    -11.270467     9A    -11.246926
      10A    -11.243502    11A     -1.402252    12A     -1.389130
      13A     -1.160975    14A     -1.102311    15A     -1.007870
      16A     -0.966220    17A     -0.930505    18A     -0.824433
      19A     -0.809078    20A     -0.722600    21A     -0.697670
      22A     -0.658048    23A     -0.631438    24A     -0.612536
      25A     -0.609565    26A     -0.595991    27A     -0.592185
      28A     -0.571212    29A     -0.559878    30A     -0.549290
      31A     -0.541099    32A     -0.518532    33A     -0.458677
      34A     -0.436268    35A     -0.398863    36A     -0.383011

  @DF-RHF Final Energy:  -457.44835675139910

   => Energetics <=

    Nuclear Repulsion Energy =            490.4376019394185846
    One-Electron Energy =               -1594.5768732628409907
    Two-Electron Energy =                 646.6909145720233028
    Total Energy =                       -457.4483567513991602
  Basis Set: (AUG-CC-PVTZ AUX)
    Blend: AUG-CC-PVTZ-RI
    Molecular point group: c1

    Geometry (in Angstrom), charge = 0, multiplicity = 1:

       Center              X                  Y                   Z               Mass
    ------------   -----------------  -----------------  -----------------  -----------------
         O           -2.345712080126    -0.000000035281    -0.013176632430    15.994914619570
         O            2.994506919874    -0.000000035281    -0.013285632430    15.994914619570
         C           -0.356567080126     1.287192964719    -0.013229632430    12.000000000000
         C           -0.356567080126    -1.287193035281    -0.013228632430    12.000000000000
         C           -1.106191080126    -0.000000035281    -0.013208632430    12.000000000000
         C            0.995718919874     1.265190964719    -0.013246632430    12.000000000000
         C            0.995718919874    -1.265191035281    -0.013245632430    12.000000000000
         C            1.755094919874    -0.000000035281    -0.013261632430    12.000000000000
         C           -1.177216580126     2.538714364719     0.136785367570    12.000000000000
         C           -1.177219080126    -2.538714035281    -0.013210632430    12.000000000000
         H            1.588634919874     2.177876964719    -0.013259632430     1.007825032230
         H            1.588634919874    -2.177877035281    -0.013256632430     1.007825032230
         H           -1.829204080126     2.567931964719     0.864422367570     1.007825032230
         H           -1.829278080126     2.567905964719    -0.890796632430     1.007825032230
         H           -0.535108080126     3.422545964719    -0.013253632430     1.007825032230
         H           -0.535109080126    -3.422546035281    -0.013257632430     1.007825032230
         H           -1.829286080126    -2.567903035281    -0.890787632430     1.007825032230
         H           -1.829197080126    -2.567935035281     0.864431367570     1.007825032230

  Basis Set: AUG-CC-PVTZ
    Blend: AUG-CC-PVTZ
  Basis Set: (AUG-CC-PVTZ AUX)
    Blend: AUG-CC-PVTZ-JKFIT
	 Reference Energy          =    -457.4483567513991034 [Eh]
	 Singles Energy            =      -0.0000000000000000 [Eh]
	 Same-Spin Energy          =      -0.4671482910510515 [Eh]
	 Opposite-Spin Energy      =      -1.4779302614715153 [Eh]
	 Correlation Energy        =      -1.9450785525225669 [Eh]
	 Total Energy              =    -459.3934353039216489 [Eh]

	 ================> DF-SCS-MP2 Energies <==================
	-----------------------------------------------------------
	 SCS Same-Spin Scale       =       0.3333333333333333 [-]
	 SCS Opposite-Spin Scale   =       1.2000000000000000 [-]
	 SCS Same-Spin Energy      =      -0.1557160970170172 [Eh]
	 SCS Opposite-Spin Energy  =      -1.7735163137658183 [Eh]
	 SCS Correlation Energy    =      -1.9292324107828356 [Eh]
	 SCS Total Energy          =    -459.3775891621819483 [Eh]
	-----------------------------------------------------------

  Dipole Moment: [D]
     X:    -1.1216      Y:    -0.0103      Z:     0.0375     Total:     1.1223

*** Psi4 exiting successfully. Buy a developer a beer!
