                               Psi4 1.3.2 release

  ==> Input File <==

--------------------------------------------------------------------------
#psi4
#
memory 32 gb

molecule  {
0 1
  O       -2.3098380     0.0000000     0.0000530
  O        3.0303810     0.0000000    -0.0000560
  C       -0.3206930     1.2871930     0.0000000
  C       -0.3206943    -1.2871930    -0.0499990
  C       -1.0703170     0.0000000     0.0000210
  C        1.0315930     1.2651910    -0.0000170
  C        1.0315930    -1.2651910    -0.0000160
  C        1.7909690     0.0000000    -0.0000320
  C       -1.1413450     2.5387140     0.0000150
  C       -1.1413450    -2.5387140     0.0000190
  H        1.6245090     2.1778770    -0.0000300
  H        1.6245090    -2.1778770    -0.0000270
  H       -1.7933300     2.5679320     0.8776520
  H       -1.7934040     2.5679060    -0.8775670
  H       -0.4992340     3.4225460    -0.0000240
  H       -0.4992350    -3.4225460    -0.0000280
  H       -1.7934120    -2.5679030    -0.8775580
  H       -1.7933230    -2.5679350     0.8776610
units angstrom
no_reorient  #important for SAPT in psi4, default
symmetry c1  #important for SAPT in psi4, default
}

set PROPERTIES_ORIGIN ["COM"]
properties('MP2/aug-cc-pvtz', properties = ['dipole'])
--------------------------------------------------------------------------

    Molecular point group: c1
  Charge       = 0
  Multiplicity = 1
  Basis Set: AUG-CC-PVTZ
    Blend: AUG-CC-PVTZ
  Basis Set: (AUG-CC-PVTZ AUX)
    Blend: AUG-CC-PVTZ-JKFIT

    Orbital Energies [Eh]
    ---------------------

    Doubly Occupied:

       1A    -20.577965     2A    -20.566967     3A    -11.360624
       4A    -11.353261     5A    -11.287731     6A    -11.287590
       7A    -11.270623     8A    -11.270323     9A    -11.243422
      10A    -11.243418    11A     -1.402072    12A     -1.389135
      13A     -1.160707    14A     -1.102169    15A     -1.007198
      16A     -0.964922    17A     -0.929608    18A     -0.823104
      19A     -0.807835    20A     -0.721900    21A     -0.697204
      22A     -0.655667    23A     -0.618362    24A     -0.613006
      25A     -0.607471    26A     -0.594038    27A     -0.588649
      28A     -0.574237    29A     -0.555147    30A     -0.550813
      31A     -0.549001    32A     -0.533185    33A     -0.458521
      34A     -0.435681    35A     -0.399668    36A     -0.384645

  @DF-RHF Final Energy:  -457.47070896618931

   => Energetics <=

    Nuclear Repulsion Energy =            490.5007826974062368
    One-Electron Energy =               -1594.7712414566640291
    Two-Electron Energy =                 646.7997497930683721
    Total Energy =                       -457.4707089661893633
  Basis Set: (AUG-CC-PVTZ AUX)
    Blend: AUG-CC-PVTZ-RI
    Molecular point group: c1

    Geometry (in Angstrom), charge = 0, multiplicity = 1:

       Center              X                  Y                   Z               Mass
    ------------   -----------------  -----------------  -----------------  -----------------
         O           -2.345711744961     0.000000000000     0.004463625880    15.994914619570
         O            2.994507255039     0.000000000000     0.004354625880    15.994914619570
         C           -0.356566744961     1.287193000000     0.004410625880    12.000000000000
         C           -0.356568044961    -1.287193000000    -0.045588374120    12.000000000000
         C           -1.106190744961     0.000000000000     0.004431625880    12.000000000000
         C            0.995719255039     1.265191000000     0.004393625880    12.000000000000
         C            0.995719255039    -1.265191000000     0.004394625880    12.000000000000
         C            1.755095255039     0.000000000000     0.004378625880    12.000000000000
         C           -1.177218744961     2.538714000000     0.004425625880    12.000000000000
         C           -1.177218744961    -2.538714000000     0.004429625880    12.000000000000
         H            1.588635255039     2.177877000000     0.004380625880     1.007825032230
         H            1.588635255039    -2.177877000000     0.004383625880     1.007825032230
         H           -1.829203744961     2.567932000000     0.882062625880     1.007825032230
         H           -1.829277744961     2.567906000000    -0.873156374120     1.007825032230
         H           -0.535107744961     3.422546000000     0.004386625880     1.007825032230
         H           -0.535108744961    -3.422546000000     0.004382625880     1.007825032230
         H           -1.829285744961    -2.567903000000    -0.873147374120     1.007825032230
         H           -1.829196744961    -2.567935000000     0.882071625880     1.007825032230

  Basis Set: AUG-CC-PVTZ
    Blend: AUG-CC-PVTZ
  Basis Set: (AUG-CC-PVTZ AUX)
    Blend: AUG-CC-PVTZ-JKFIT
	 Reference Energy          =    -457.4707089661893065 [Eh]
	 Singles Energy            =      -0.0000000000000000 [Eh]
	 Same-Spin Energy          =      -0.4668606512474128 [Eh]
	 Opposite-Spin Energy      =      -1.4770036250052869 [Eh]
	 Correlation Energy        =      -1.9438642762526996 [Eh]
	 Total Energy              =    -459.4145732424420316 [Eh]

	 ================> DF-SCS-MP2 Energies <==================
	-----------------------------------------------------------
	 SCS Same-Spin Scale       =       0.3333333333333333 [-]
	 SCS Opposite-Spin Scale   =       1.2000000000000000 [-]
	 SCS Same-Spin Energy      =      -0.1556202170824709 [Eh]
	 SCS Opposite-Spin Energy  =      -1.7724043500063442 [Eh]
	 SCS Correlation Energy    =      -1.9280245670888152 [Eh]
	 SCS Total Energy          =    -459.3987335332781186 [Eh]
	-----------------------------------------------------------

  Dipole Moment: [D]
     X:    -1.1285      Y:     0.0034      Z:     0.0157     Total:     1.1286

*** Psi4 exiting successfully. Buy a developer a beer!
