                               Psi4 1.3.2 release

  ==> Input File <==

--------------------------------------------------------------------------
#psi4
#
memory 32 gb

molecule  {
0 1
  O       -2.3098380     0.0000000     0.0000530
  O        3.0303810     0.0000000    -0.0000560
  C       -0.3206930     1.2871930     0.0000000
  C       -0.3206930    -1.2871930     0.0000010
  C       -1.0703170     0.0000000     0.0000210
  C        1.0315930     1.2651910    -0.0000170
  C        1.0315930    -1.2651910    -0.0000160
  C        1.7909690     0.0000000    -0.0000320
  C       -1.1413450     2.5387140     0.0000150
  C       -1.1413450    -2.5387140     0.0000190
  H        1.6245090     2.1778770    -0.0000300
  H        1.6245090    -2.1778770    -0.0000270
  H       -1.7933300     2.5679320     0.8776520
  H       -1.7934040     2.5679060    -0.8775670
  H       -0.4992340     3.4225460    -0.0000240
  H       -0.4992350    -3.4225460    -0.0000280
  H       -1.7934120    -2.5679030    -0.8775580
  H       -1.7933230    -2.5679350     0.8776610
units angstrom
no_reorient  #important for SAPT in psi4, default
symmetry c1  #important for SAPT in psi4, default
}

set PROPERTIES_ORIGIN ["COM"]
properties('MP2/aug-cc-pvtz', properties = ['dipole'])
--------------------------------------------------------------------------

    Molecular point group: c1
  Charge       = 0
  Multiplicity = 1
  Basis Set: AUG-CC-PVTZ
    Blend: AUG-CC-PVTZ
  Basis Set: (AUG-CC-PVTZ AUX)
    Blend: AUG-CC-PVTZ-JKFIT

    Orbital Energies [Eh]
    ---------------------

    Doubly Occupied:

       1A    -20.578021     2A    -20.566898     3A    -11.360559
       4A    -11.353216     5A    -11.287575     6A    -11.287551
       7A    -11.270333     8A    -11.270310     9A    -11.243412
      10A    -11.243411    11A     -1.402130    12A     -1.389075
      13A     -1.160823    14A     -1.102297    15A     -1.007257
      16A     -0.964996    17A     -0.929736    18A     -0.823159
      19A     -0.807923    20A     -0.722044    21A     -0.697223
      22A     -0.655616    23A     -0.618411    24A     -0.613047
      25A     -0.607460    26A     -0.593546    27A     -0.589232
      28A     -0.574382    29A     -0.554905    30A     -0.551189
      31A     -0.549049    32A     -0.533392    33A     -0.458591
      34A     -0.435691    35A     -0.399726    36A     -0.384709

  @DF-RHF Final Energy:  -457.47159880115191

   => Energetics <=

    Nuclear Repulsion Energy =            490.5335349323481182
    One-Electron Energy =               -1594.8364775781183198
    Two-Electron Energy =                 646.8313438446182317
    Total Energy =                       -457.4715988011519130
  Basis Set: (AUG-CC-PVTZ AUX)
    Blend: AUG-CC-PVTZ-RI
    Molecular point group: c1

    Geometry (in Angstrom), charge = 0, multiplicity = 1:

       Center              X                  Y                   Z               Mass
    ------------   -----------------  -----------------  -----------------  -----------------
         O           -2.345711859622     0.000000000000     0.000053561302    15.994914619570
         O            2.994507140378     0.000000000000    -0.000055438698    15.994914619570
         C           -0.356566859622     1.287193000000     0.000000561302    12.000000000000
         C           -0.356566859622    -1.287193000000     0.000001561302    12.000000000000
         C           -1.106190859622     0.000000000000     0.000021561302    12.000000000000
         C            0.995719140378     1.265191000000    -0.000016438698    12.000000000000
         C            0.995719140378    -1.265191000000    -0.000015438698    12.000000000000
         C            1.755095140378     0.000000000000    -0.000031438698    12.000000000000
         C           -1.177218859622     2.538714000000     0.000015561302    12.000000000000
         C           -1.177218859622    -2.538714000000     0.000019561302    12.000000000000
         H            1.588635140378     2.177877000000    -0.000029438698     1.007825032230
         H            1.588635140378    -2.177877000000    -0.000026438698     1.007825032230
         H           -1.829203859622     2.567932000000     0.877652561302     1.007825032230
         H           -1.829277859622     2.567906000000    -0.877566438698     1.007825032230
         H           -0.535107859622     3.422546000000    -0.000023438698     1.007825032230
         H           -0.535108859622    -3.422546000000    -0.000027438698     1.007825032230
         H           -1.829285859622    -2.567903000000    -0.877557438698     1.007825032230
         H           -1.829196859622    -2.567935000000     0.877661561302     1.007825032230

  Basis Set: AUG-CC-PVTZ
    Blend: AUG-CC-PVTZ
  Basis Set: (AUG-CC-PVTZ AUX)
    Blend: AUG-CC-PVTZ-JKFIT
	 Reference Energy          =    -457.4715988011519130 [Eh]
	 Singles Energy            =      -0.0000000000000000 [Eh]
	 Same-Spin Energy          =      -0.4668187732161717 [Eh]
	 Opposite-Spin Energy      =      -1.4769079061135884 [Eh]
	 Correlation Energy        =      -1.9437266793297601 [Eh]
	 Total Energy              =    -459.4153254804816697 [Eh]

	 ================> DF-SCS-MP2 Energies <==================
	-----------------------------------------------------------
	 SCS Same-Spin Scale       =       0.3333333333333333 [-]
	 SCS Opposite-Spin Scale   =       1.2000000000000000 [-]
	 SCS Same-Spin Energy      =      -0.1556062577387239 [Eh]
	 SCS Opposite-Spin Energy  =      -1.7722894873363060 [Eh]
	 SCS Correlation Energy    =      -1.9278957450750298 [Eh]
	 SCS Total Energy          =    -459.3994945462269470 [Eh]
	-----------------------------------------------------------

  Dipole Moment: [D]
     X:    -1.1321      Y:    -0.0000      Z:     0.0000     Total:     1.1321

*** Psi4 exiting successfully. Buy a developer a beer!
