                               Psi4 1.3.2 release

  ==> Input File <==

--------------------------------------------------------------------------
#psi4
#
memory 32 gb

molecule  {
0 1
  O       -2.3098380     0.0000000     0.0000530
  O        3.0303810     0.0000000    -0.0000560
  C       -0.3206930     1.2871930     0.0000000
  C       -0.3206930    -1.2871930     0.0000010
  C       -1.0703170     0.0000000     0.0000210
  C        1.0315930     1.2651910    -0.0000170
  C        1.0315930    -1.2651910    -0.0000160
  C        1.7909690     0.0000000    -0.0000320
  C       -1.1413417     2.5387146     0.2000150
  C       -1.1413450    -2.5387140     0.0000190
  H        1.6245090     2.1778770    -0.0000300
  H        1.6245090    -2.1778770    -0.0000270
  H       -1.7933300     2.5679320     0.8776520
  H       -1.7934040     2.5679060    -0.8775670
  H       -0.4992340     3.4225460    -0.0000240
  H       -0.4992350    -3.4225460    -0.0000280
  H       -1.7934120    -2.5679030    -0.8775580
  H       -1.7933230    -2.5679350     0.8776610
units angstrom
no_reorient  #important for SAPT in psi4, default
symmetry c1  #important for SAPT in psi4, default
}

set PROPERTIES_ORIGIN ["COM"]
properties('MP2/aug-cc-pvtz', properties = ['dipole'])
--------------------------------------------------------------------------

    Molecular point group: c1
  Charge       = 0
  Multiplicity = 1
  Basis Set: AUG-CC-PVTZ
    Blend: AUG-CC-PVTZ
  Basis Set: (AUG-CC-PVTZ AUX)
    Blend: AUG-CC-PVTZ-JKFIT

    Orbital Energies [Eh]
    ---------------------

    Doubly Occupied:

       1A    -20.578298     2A    -20.566922     3A    -11.360904
       4A    -11.353544     5A    -11.291060     6A    -11.287812
       7A    -11.270610     8A    -11.270582     9A    -11.249645
      10A    -11.243571    11A     -1.402346    12A     -1.389171
      13A     -1.161088    14A     -1.102323    15A     -1.008404
      16A     -0.967221    17A     -0.931104    18A     -0.825570
      19A     -0.809861    20A     -0.723052    21A     -0.698060
      22A     -0.661168    23A     -0.637977    24A     -0.612593
      25A     -0.610184    26A     -0.596996    27A     -0.591307
      28A     -0.570673    29A     -0.560441    30A     -0.548948
      31A     -0.539981    32A     -0.508710    33A     -0.458736
      34A     -0.436680    35A     -0.398336    36A     -0.381550

  @DF-RHF Final Energy:  -457.43001429172210

   => Energetics <=

    Nuclear Repulsion Energy =            490.3636093929103481
    One-Electron Energy =               -1594.3763925737482623
    Two-Electron Energy =                 646.5827688891157550
    Total Energy =                       -457.4300142917221592
  Basis Set: (AUG-CC-PVTZ AUX)
    Blend: AUG-CC-PVTZ-RI
    Molecular point group: c1

    Geometry (in Angstrom), charge = 0, multiplicity = 1:

       Center              X                  Y                   Z               Mass
    ------------   -----------------  -----------------  -----------------  -----------------
         O           -2.345712150687    -0.000000052921    -0.017586697007    15.994914619570
         O            2.994506849313    -0.000000052921    -0.017695697007    15.994914619570
         C           -0.356567150687     1.287192947079    -0.017639697007    12.000000000000
         C           -0.356567150687    -1.287193052921    -0.017638697007    12.000000000000
         C           -1.106191150687    -0.000000052921    -0.017618697007    12.000000000000
         C            0.995718849313     1.265190947079    -0.017656697007    12.000000000000
         C            0.995718849313    -1.265191052921    -0.017655697007    12.000000000000
         C            1.755094849313    -0.000000052921    -0.017671697007    12.000000000000
         C           -1.177215850687     2.538714547079     0.182375302993    12.000000000000
         C           -1.177219150687    -2.538714052921    -0.017620697007    12.000000000000
         H            1.588634849313     2.177876947079    -0.017669697007     1.007825032230
         H            1.588634849313    -2.177877052921    -0.017666697007     1.007825032230
         H           -1.829204150687     2.567931947079     0.860012302993     1.007825032230
         H           -1.829278150687     2.567905947079    -0.895206697007     1.007825032230
         H           -0.535108150687     3.422545947079    -0.017663697007     1.007825032230
         H           -0.535109150687    -3.422546052921    -0.017667697007     1.007825032230
         H           -1.829286150687    -2.567903052921    -0.895197697007     1.007825032230
         H           -1.829197150687    -2.567935052921     0.860021302993     1.007825032230

  Basis Set: AUG-CC-PVTZ
    Blend: AUG-CC-PVTZ
  Basis Set: (AUG-CC-PVTZ AUX)
    Blend: AUG-CC-PVTZ-JKFIT
	 Reference Energy          =    -457.4300142917221024 [Eh]
	 Singles Energy            =      -0.0000000000000000 [Eh]
	 Same-Spin Energy          =      -0.4674083313845527 [Eh]
	 Opposite-Spin Energy      =      -1.4787567346735524 [Eh]
	 Correlation Energy        =      -1.9461650660581051 [Eh]
	 Total Energy              =    -459.3761793577801882 [Eh]

	 ================> DF-SCS-MP2 Energies <==================
	-----------------------------------------------------------
	 SCS Same-Spin Scale       =       0.3333333333333333 [-]
	 SCS Opposite-Spin Scale   =       1.2000000000000000 [-]
	 SCS Same-Spin Energy      =      -0.1558027771281842 [Eh]
	 SCS Opposite-Spin Energy  =      -1.7745080816082628 [Eh]
	 SCS Correlation Energy    =      -1.9303108587364470 [Eh]
	 SCS Total Energy          =    -459.3603251504585501 [Eh]
	-----------------------------------------------------------

  Dipole Moment: [D]
     X:    -1.1146      Y:    -0.0182      Z:     0.0469     Total:     1.1157

*** Psi4 exiting successfully. Buy a developer a beer!
