                               Psi4 1.3.2 release

  ==> Input File <==

--------------------------------------------------------------------------
#psi4
#
memory 32 gb

molecule  {
0 1
  O       -2.3098380     0.0000000     0.0000530
  O        3.0303810     0.0000000    -0.0000560
  C       -0.3206930     1.2871930     0.0000000
  C       -0.3206956    -1.2871930    -0.0999990
  C       -1.0703170     0.0000000     0.0000210
  C        1.0315930     1.2651910    -0.0000170
  C        1.0315930    -1.2651910    -0.0000160
  C        1.7909690     0.0000000    -0.0000320
  C       -1.1413450     2.5387140     0.0000150
  C       -1.1413450    -2.5387140     0.0000190
  H        1.6245090     2.1778770    -0.0000300
  H        1.6245090    -2.1778770    -0.0000270
  H       -1.7933300     2.5679320     0.8776520
  H       -1.7934040     2.5679060    -0.8775670
  H       -0.4992340     3.4225460    -0.0000240
  H       -0.4992350    -3.4225460    -0.0000280
  H       -1.7934120    -2.5679030    -0.8775580
  H       -1.7933230    -2.5679350     0.8776610
units angstrom
no_reorient  #important for SAPT in psi4, default
symmetry c1  #important for SAPT in psi4, default
}

set PROPERTIES_ORIGIN ["COM"]
properties('MP2/aug-cc-pvtz', properties = ['dipole'])
--------------------------------------------------------------------------

    Molecular point group: c1
  Charge       = 0
  Multiplicity = 1
  Basis Set: AUG-CC-PVTZ
    Blend: AUG-CC-PVTZ
  Basis Set: (AUG-CC-PVTZ AUX)
    Blend: AUG-CC-PVTZ-JKFIT

    Orbital Energies [Eh]
    ---------------------

    Doubly Occupied:

       1A    -20.577803     2A    -20.567181     3A    -11.360817
       4A    -11.353396     5A    -11.288227     6A    -11.287679
       7A    -11.271527     8A    -11.270335     9A    -11.243457
      10A    -11.243439    11A     -1.401902    12A     -1.389320
      13A     -1.160366    14A     -1.101787    15A     -1.007026
      16A     -0.964706    17A     -0.929229    18A     -0.822944
      19A     -0.807576    20A     -0.721471    21A     -0.697153
      22A     -0.655821    23A     -0.618214    24A     -0.612885
      25A     -0.607504    26A     -0.595047    27A     -0.587407
      28A     -0.573795    29A     -0.555682    30A     -0.550107
      31A     -0.548614    32A     -0.532566    33A     -0.458319
      34A     -0.435650    35A     -0.399496    36A     -0.384458

  @DF-RHF Final Energy:  -457.46803771976363

   => Energetics <=

    Nuclear Repulsion Energy =            490.4028331401796663
    One-Electron Energy =               -1594.5759247304335986
    Two-Electron Energy =                 646.7050538704903602
    Total Energy =                       -457.4680377197636290
  Basis Set: (AUG-CC-PVTZ AUX)
    Blend: AUG-CC-PVTZ-RI
    Molecular point group: c1

    Geometry (in Angstrom), charge = 0, multiplicity = 1:

       Center              X                  Y                   Z               Mass
    ------------   -----------------  -----------------  -----------------  -----------------
         O           -2.345711630299     0.000000000000     0.008873690457    15.994914619570
         O            2.994507369701     0.000000000000     0.008764690457    15.994914619570
         C           -0.356566630299     1.287193000000     0.008820690457    12.000000000000
         C           -0.356569230299    -1.287193000000    -0.091178309543    12.000000000000
         C           -1.106190630299     0.000000000000     0.008841690457    12.000000000000
         C            0.995719369701     1.265191000000     0.008803690457    12.000000000000
         C            0.995719369701    -1.265191000000     0.008804690457    12.000000000000
         C            1.755095369701     0.000000000000     0.008788690457    12.000000000000
         C           -1.177218630299     2.538714000000     0.008835690457    12.000000000000
         C           -1.177218630299    -2.538714000000     0.008839690457    12.000000000000
         H            1.588635369701     2.177877000000     0.008790690457     1.007825032230
         H            1.588635369701    -2.177877000000     0.008793690457     1.007825032230
         H           -1.829203630299     2.567932000000     0.886472690457     1.007825032230
         H           -1.829277630299     2.567906000000    -0.868746309543     1.007825032230
         H           -0.535107630299     3.422546000000     0.008796690457     1.007825032230
         H           -0.535108630299    -3.422546000000     0.008792690457     1.007825032230
         H           -1.829285630299    -2.567903000000    -0.868737309543     1.007825032230
         H           -1.829196630299    -2.567935000000     0.886481690457     1.007825032230

  Basis Set: AUG-CC-PVTZ
    Blend: AUG-CC-PVTZ
  Basis Set: (AUG-CC-PVTZ AUX)
    Blend: AUG-CC-PVTZ-JKFIT
	 Reference Energy          =    -457.4680377197636290 [Eh]
	 Singles Energy            =      -0.0000000000000000 [Eh]
	 Same-Spin Energy          =      -0.4669875232598896 [Eh]
	 Opposite-Spin Energy      =      -1.4773254408368077 [Eh]
	 Correlation Energy        =      -1.9443129640966974 [Eh]
	 Total Energy              =    -459.4123506838603248 [Eh]

	 ================> DF-SCS-MP2 Energies <==================
	-----------------------------------------------------------
	 SCS Same-Spin Scale       =       0.3333333333333333 [-]
	 SCS Opposite-Spin Scale   =       1.2000000000000000 [-]
	 SCS Same-Spin Energy      =      -0.1556625077532965 [Eh]
	 SCS Opposite-Spin Energy  =      -1.7727905290041692 [Eh]
	 SCS Correlation Energy    =      -1.9284530367574657 [Eh]
	 SCS Total Energy          =    -459.3964907565210751 [Eh]
	-----------------------------------------------------------

  Dipole Moment: [D]
     X:    -1.1178      Y:     0.0135      Z:     0.0319     Total:     1.1183

*** Psi4 exiting successfully. Buy a developer a beer!
