                               Psi4 1.3.2 release

  ==> Input File <==

--------------------------------------------------------------------------
#psi4
#
memory 32 gb

molecule  {
0 1
  O       -2.3098380     0.0000000     0.0000530
  O        3.0303810     0.0000000    -0.0000560
  C       -0.3206930     1.2871930     0.0000000
  C       -0.3206983    -1.2871931    -0.1999990
  C       -1.0703170     0.0000000     0.0000210
  C        1.0315930     1.2651910    -0.0000170
  C        1.0315930    -1.2651910    -0.0000160
  C        1.7909690     0.0000000    -0.0000320
  C       -1.1413450     2.5387140     0.0000150
  C       -1.1413450    -2.5387140     0.0000190
  H        1.6245090     2.1778770    -0.0000300
  H        1.6245090    -2.1778770    -0.0000270
  H       -1.7933300     2.5679320     0.8776520
  H       -1.7934040     2.5679060    -0.8775670
  H       -0.4992340     3.4225460    -0.0000240
  H       -0.4992350    -3.4225460    -0.0000280
  H       -1.7934120    -2.5679030    -0.8775580
  H       -1.7933230    -2.5679350     0.8776610
units angstrom
no_reorient  #important for SAPT in psi4, default
symmetry c1  #important for SAPT in psi4, default
}

set PROPERTIES_ORIGIN ["COM"]
properties('MP2/aug-cc-pvtz', properties = ['dipole'])
--------------------------------------------------------------------------

    Molecular point group: c1
  Charge       = 0
  Multiplicity = 1
  Basis Set: AUG-CC-PVTZ
    Blend: AUG-CC-PVTZ
  Basis Set: (AUG-CC-PVTZ AUX)
    Blend: AUG-CC-PVTZ-JKFIT

    Orbital Energies [Eh]
    ---------------------

    Doubly Occupied:

       1A    -20.577194     2A    -20.568066     3A    -11.361579
       4A    -11.353964     5A    -11.290131     6A    -11.288059
       7A    -11.275137     8A    -11.270406     9A    -11.243608
      10A    -11.243499    11A     -1.401252    12A     -1.390080
      13A     -1.159074    14A     -1.100234    15A     -1.006380
      16A     -0.963874    17A     -0.927773    18A     -0.822341
      19A     -0.806590    20A     -0.719769    21A     -0.696980
      22A     -0.656436    23A     -0.617620    24A     -0.612407
      25A     -0.607610    26A     -0.597081    27A     -0.584840
      28A     -0.572017    29A     -0.556889    30A     -0.549890
      31A     -0.545268    32A     -0.530077    33A     -0.457589
      34A     -0.435455    35A     -0.398865    36A     -0.383731

  @DF-RHF Final Energy:  -457.45733259641258

   => Energetics <=

    Nuclear Repulsion Energy =            490.0153187004267465
    One-Electron Energy =               -1593.8017713930651098
    Two-Electron Energy =                 646.3291200962256653
    Total Energy =                       -457.4573325964125843
  Basis Set: (AUG-CC-PVTZ AUX)
    Blend: AUG-CC-PVTZ-RI
    Molecular point group: c1

    Geometry (in Angstrom), charge = 0, multiplicity = 1:

       Center              X                  Y                   Z               Mass
    ------------   -----------------  -----------------  -----------------  -----------------
         O           -2.345711392156     0.000000008820     0.017693819612    15.994914619570
         O            2.994507607844     0.000000008820     0.017584819612    15.994914619570
         C           -0.356566392156     1.287193008820     0.017640819612    12.000000000000
         C           -0.356571692156    -1.287193091180    -0.182358180388    12.000000000000
         C           -1.106190392156     0.000000008820     0.017661819612    12.000000000000
         C            0.995719607844     1.265191008820     0.017623819612    12.000000000000
         C            0.995719607844    -1.265190991180     0.017624819612    12.000000000000
         C            1.755095607844     0.000000008820     0.017608819612    12.000000000000
         C           -1.177218392156     2.538714008820     0.017655819612    12.000000000000
         C           -1.177218392156    -2.538713991180     0.017659819612    12.000000000000
         H            1.588635607844     2.177877008820     0.017610819612     1.007825032230
         H            1.588635607844    -2.177876991180     0.017613819612     1.007825032230
         H           -1.829203392156     2.567932008820     0.895292819612     1.007825032230
         H           -1.829277392156     2.567906008820    -0.859926180388     1.007825032230
         H           -0.535107392156     3.422546008820     0.017616819612     1.007825032230
         H           -0.535108392156    -3.422545991180     0.017612819612     1.007825032230
         H           -1.829285392156    -2.567902991180    -0.859917180388     1.007825032230
         H           -1.829196392156    -2.567934991180     0.895301819612     1.007825032230

  Basis Set: AUG-CC-PVTZ
    Blend: AUG-CC-PVTZ
  Basis Set: (AUG-CC-PVTZ AUX)
    Blend: AUG-CC-PVTZ-JKFIT
	 Reference Energy          =    -457.4573325964125843 [Eh]
	 Singles Energy            =      -0.0000000000000000 [Eh]
	 Same-Spin Energy          =      -0.4675017308490511 [Eh]
	 Opposite-Spin Energy      =      -1.4787307809163104 [Eh]
	 Correlation Energy        =      -1.9462325117653614 [Eh]
	 Total Energy              =    -459.4035651081779292 [Eh]

	 ================> DF-SCS-MP2 Energies <==================
	-----------------------------------------------------------
	 SCS Same-Spin Scale       =       0.3333333333333333 [-]
	 SCS Opposite-Spin Scale   =       1.2000000000000000 [-]
	 SCS Same-Spin Energy      =      -0.1558339102830170 [Eh]
	 SCS Opposite-Spin Energy  =      -1.7744769370995723 [Eh]
	 SCS Correlation Energy    =      -1.9303108473825894 [Eh]
	 SCS Total Energy          =    -459.3876434437951843 [Eh]
	-----------------------------------------------------------

  Dipole Moment: [D]
     X:    -1.0768      Y:     0.0546      Z:     0.0669     Total:     1.0803

*** Psi4 exiting successfully. Buy a developer a beer!
