                               Psi4 1.4a2.dev612

  ==> Input File <==

--------------------------------------------------------------------------
#psi4
#
memory 32 gb

molecule  {
0 1
  O        0.1371160     2.1442200    -0.7498900
  N       -0.9079200     0.2138270    -0.0832910
  C       -2.2101840     0.8219870    -0.4048790
  C       -3.1715160    -0.2856370    -0.8447810
  C       -3.2543810    -1.4343410     0.1597440
  C       -1.8582660    -1.9851710     0.4427670
  C       -0.9333470    -0.8668740     0.9054230
  C       -2.7330240     1.6830710     0.7442420
  C        0.2088310     0.9821600    -0.3252730
  C        1.5472583     0.4016258     0.0562206
  C        1.8387470    -0.9259720    -0.6670270
  C        2.5575830     1.0808050     0.4866160
  C        3.1278360    -1.4488340    -0.5554450
  C        3.8398480     0.5472150     0.6113220
  C        4.1275660    -0.7178550     0.0911790
  H       -2.0189590     1.4850890    -1.2525130
  H       -2.8205670    -0.6804150    -1.8065990
  H       -4.1624350     0.1514200    -1.0190010
  H       -3.9082830    -2.2246930    -0.2264870
  H       -3.7050990    -1.0869340     1.0980480
  H       -1.8940300    -2.7681710     1.2100160
  H       -1.4444710    -2.4355870    -0.4683360
  H       -1.2866520    -0.4768830     1.8722860
  H        0.0828400    -1.2295020     1.0584050
  H       -3.6731810     2.1637340     0.4547800
  H       -2.9192060     1.1010660     1.6506870
  H       -2.0023200     2.4636420     0.9693550
  H        1.0609540    -1.4829580    -1.1859370
  H        2.3266460     2.0767070     0.8563740
  H        3.3548360    -2.4238320    -0.9804540
  H        4.6199280     1.1225680     1.1042590
  H        5.1302370    -1.1288490     0.1814620
units angstrom
no_reorient  #important for SAPT in psi4, default
symmetry c1  #important for SAPT in psi4, default
}

set PROPERTIES_ORIGIN ["COM"]
properties('MP2/aug-cc-pvtz', properties = ['dipole'])
--------------------------------------------------------------------------

    Molecular point group: c1
  Charge       = 0
  Multiplicity = 1
  Basis Set: AUG-CC-PVTZ
    Blend: AUG-CC-PVTZ
  Basis Set: (AUG-CC-PVTZ AUX)
    Blend: AUG-CC-PVTZ-JKFIT

    Orbital Energies [Eh]
    ---------------------

    Doubly Occupied:

       1A    -20.513680     2A    -15.579011     3A    -11.350584
       4A    -11.264686     5A    -11.261789     6A    -11.257719
       7A    -11.249557     8A    -11.248777     9A    -11.245127
      10A    -11.243848    11A    -11.233407    12A    -11.229305
      13A    -11.226055    14A    -11.222642    15A    -11.210989
      16A     -1.367873    17A     -1.246081    18A     -1.161813
      19A     -1.084350    20A     -1.053074    21A     -1.042542
      22A     -1.011939    23A     -0.959187    24A     -0.897051
      25A     -0.865432    26A     -0.843852    27A     -0.828287
      28A     -0.781135    29A     -0.728528    30A     -0.717473
      31A     -0.682992    32A     -0.657189    33A     -0.637784
      34A     -0.627142    35A     -0.620959    36A     -0.613500
      37A     -0.600163    38A     -0.587096    39A     -0.586163
      40A     -0.575622    41A     -0.564515    42A     -0.542003
      43A     -0.528895    44A     -0.520711    45A     -0.508016
      46A     -0.499034    47A     -0.493568    48A     -0.486722
      49A     -0.469541    50A     -0.462293    51A     -0.451580
      52A     -0.418225    53A     -0.367008    54A     -0.360512
      55A     -0.328918

  @DF-RHF Final Energy:  -631.69918255383027

   => Energetics <=

    Nuclear Repulsion Energy =            998.3901118916837731
    One-Electron Energy =               -2839.9467015832351535
    Two-Electron Energy =                1209.8574071377211112
    Total Energy =                       -631.6991825538302692
  Basis Set: (AUG-CC-PVTZ AUX)
    Blend: AUG-CC-PVTZ-RI
    Molecular point group: c1

    Geometry (in Angstrom), charge = 0, multiplicity = 1:

       Center              X                  Y                   Z               Mass
    ------------   -----------------  -----------------  -----------------  -----------------
         O            0.072333261867     2.114183414115    -0.743905720086    15.994914619570
         N           -0.972702738133     0.183790414115    -0.077306720086    14.003074004430
         C           -2.274966738133     0.791950414115    -0.398894720086    12.000000000000
         C           -3.236298738133    -0.315673585885    -0.838796720086    12.000000000000
         C           -3.319163738133    -1.464377585885     0.165728279914    12.000000000000
         C           -1.923048738133    -2.015207585885     0.448751279914    12.000000000000
         C           -0.998129738133    -0.896910585885     0.911407279914    12.000000000000
         C           -2.797806738133     1.653034414115     0.750226279914    12.000000000000
         C            0.144048261867     0.952123414115    -0.319288720086    12.000000000000
         C            1.482475561867     0.371589214115     0.062204879914    12.000000000000
         C            1.773964261867    -0.956008585885    -0.661042720086    12.000000000000
         C            2.492800261867     1.050768414115     0.492600279914    12.000000000000
         C            3.063053261867    -1.478870585885    -0.549460720086    12.000000000000
         C            3.775065261867     0.517178414115     0.617306279914    12.000000000000
         C            4.062783261867    -0.747891585885     0.097163279914    12.000000000000
         H           -2.083741738133     1.455052414115    -1.246528720086     1.007825032230
         H           -2.885349738133    -0.710451585885    -1.800614720086     1.007825032230
         H           -4.227217738133     0.121383414115    -1.013016720086     1.007825032230
         H           -3.973065738133    -2.254729585885    -0.220502720086     1.007825032230
         H           -3.769881738133    -1.116970585885     1.104032279914     1.007825032230
         H           -1.958812738133    -2.798207585885     1.216000279914     1.007825032230
         H           -1.509253738133    -2.465623585885    -0.462351720086     1.007825032230
         H           -1.351434738133    -0.506919585885     1.878270279914     1.007825032230
         H            0.018057261867    -1.259538585885     1.064389279914     1.007825032230
         H           -3.737963738133     2.133697414115     0.460764279914     1.007825032230
         H           -2.983988738133     1.071029414115     1.656671279914     1.007825032230
         H           -2.067102738133     2.433605414115     0.975339279914     1.007825032230
         H            0.996171261867    -1.512994585885    -1.179952720086     1.007825032230
         H            2.261863261867     2.046670414115     0.862358279914     1.007825032230
         H            3.290053261867    -2.453868585885    -0.974469720086     1.007825032230
         H            4.555145261867     1.092531414115     1.110243279914     1.007825032230
         H            5.065454261867    -1.158885585885     0.187446279914     1.007825032230

  Basis Set: AUG-CC-PVTZ
    Blend: AUG-CC-PVTZ
  Basis Set: (AUG-CC-PVTZ AUX)
    Blend: AUG-CC-PVTZ-JKFIT
	 Reference Energy          =    -631.6991825538302692 [Eh]
	 Singles Energy            =      -0.0000000000000000 [Eh]
	 Same-Spin Energy          =      -0.6884299090627320 [Eh]
	 Opposite-Spin Energy      =      -2.2134836783424485 [Eh]
	 Correlation Energy        =      -2.9019135874051805 [Eh]
	 Total Energy              =    -634.6010961412354163 [Eh]

	 ================> DF-SCS-MP2 Energies <==================
	-----------------------------------------------------------
	 SCS Same-Spin Scale       =       0.3333333333333333 [-]
	 SCS Opposite-Spin Scale   =       1.2000000000000000 [-]
	 SCS Same-Spin Energy      =      -0.2294766363542440 [Eh]
	 SCS Opposite-Spin Energy  =      -2.6561804140109380 [Eh]
	 SCS Correlation Energy    =      -2.8856570503651819 [Eh]
	 SCS Total Energy          =    -634.5848396041953947 [Eh]
	-----------------------------------------------------------

  Dipole Moment: [D]
     X:    -0.7961      Y:    -3.1285      Z:     1.4704     Total:     3.5473

*** Psi4 exiting successfully. Buy a developer a beer!
