                               Psi4 1.4a2.dev612

  ==> Input File <==

--------------------------------------------------------------------------
#psi4
#
memory 32 gb

molecule  {
0 1
  O        0.1371160     2.1442200    -0.7498900
  N       -0.9079200     0.2138270    -0.0832910
  C       -2.2101840     0.8219870    -0.4048790
  C       -3.1715160    -0.2856370    -0.8447810
  C       -3.2543810    -1.4343410     0.1597440
  C       -1.8582660    -1.9851710     0.4427670
  C       -0.9333470    -0.8668740     0.9054230
  C       -2.7330240     1.6830710     0.7442420
  C        0.2088310     0.9821600    -0.3252730
  C        1.5474013     0.4178768     0.1035058
  C        1.8387470    -0.9259720    -0.6670270
  C        2.5575830     1.0808050     0.4866160
  C        3.1278360    -1.4488340    -0.5554450
  C        3.8398480     0.5472150     0.6113220
  C        4.1275660    -0.7178550     0.0911790
  H       -2.0189590     1.4850890    -1.2525130
  H       -2.8205670    -0.6804150    -1.8065990
  H       -4.1624350     0.1514200    -1.0190010
  H       -3.9082830    -2.2246930    -0.2264870
  H       -3.7050990    -1.0869340     1.0980480
  H       -1.8940300    -2.7681710     1.2100160
  H       -1.4444710    -2.4355870    -0.4683360
  H       -1.2866520    -0.4768830     1.8722860
  H        0.0828400    -1.2295020     1.0584050
  H       -3.6731810     2.1637340     0.4547800
  H       -2.9192060     1.1010660     1.6506870
  H       -2.0023200     2.4636420     0.9693550
  H        1.0609540    -1.4829580    -1.1859370
  H        2.3266460     2.0767070     0.8563740
  H        3.3548360    -2.4238320    -0.9804540
  H        4.6199280     1.1225680     1.1042590
  H        5.1302370    -1.1288490     0.1814620
units angstrom
no_reorient  #important for SAPT in psi4, default
symmetry c1  #important for SAPT in psi4, default
}

set PROPERTIES_ORIGIN ["COM"]
properties('MP2/aug-cc-pvtz', properties = ['dipole'])
--------------------------------------------------------------------------

    Molecular point group: c1
  Charge       = 0
  Multiplicity = 1
  Basis Set: AUG-CC-PVTZ
    Blend: AUG-CC-PVTZ
  Basis Set: (AUG-CC-PVTZ AUX)
    Blend: AUG-CC-PVTZ-JKFIT

    Orbital Energies [Eh]
    ---------------------

    Doubly Occupied:

       1A    -20.513780     2A    -15.579016     3A    -11.351601
       4A    -11.264567     5A    -11.263888     6A    -11.257788
       7A    -11.249335     8A    -11.249283     9A    -11.244985
      10A    -11.243889    11A    -11.230702    12A    -11.229223
      13A    -11.225999    14A    -11.222580    15A    -11.211076
      16A     -1.367810    17A     -1.246027    18A     -1.162683
      19A     -1.084220    20A     -1.054067    21A     -1.045257
      22A     -1.008818    23A     -0.959197    24A     -0.896864
      25A     -0.865091    26A     -0.845414    27A     -0.827101
      28A     -0.779350    29A     -0.728255    30A     -0.717267
      31A     -0.683862    32A     -0.657558    33A     -0.637721
      34A     -0.627337    35A     -0.619679    36A     -0.614346
      37A     -0.600394    38A     -0.586301    39A     -0.585363
      40A     -0.574709    41A     -0.564470    42A     -0.541852
      43A     -0.529924    44A     -0.520996    45A     -0.508723
      46A     -0.498971    47A     -0.493445    48A     -0.481725
      49A     -0.469478    50A     -0.462183    51A     -0.451593
      52A     -0.416559    53A     -0.366740    54A     -0.364954
      55A     -0.326073

  @DF-RHF Final Energy:  -631.68322006729534

   => Energetics <=

    Nuclear Repulsion Energy =            998.2458023488850358
    One-Electron Energy =               -2839.6378596778731662
    Two-Electron Energy =                1209.7088372616929064
    Total Energy =                       -631.6832200672952240
  Basis Set: (AUG-CC-PVTZ AUX)
    Blend: AUG-CC-PVTZ-RI
    Molecular point group: c1

    Geometry (in Angstrom), charge = 0, multiplicity = 1:

       Center              X                  Y                   Z               Mass
    ------------   -----------------  -----------------  -----------------  -----------------
         O            0.072324814117     2.113223383462    -0.746699101502    15.994914619570
         N           -0.972711185883     0.182830383462    -0.080100101502    14.003074004430
         C           -2.274975185883     0.790990383462    -0.401688101502    12.000000000000
         C           -3.236307185883    -0.316633616538    -0.841590101502    12.000000000000
         C           -3.319172185883    -1.465337616538     0.162934898498    12.000000000000
         C           -1.923057185883    -2.016167616538     0.445957898498    12.000000000000
         C           -0.998138185883    -0.897870616538     0.908613898498    12.000000000000
         C           -2.797815185883     1.652074383462     0.747432898498    12.000000000000
         C            0.144039814117     0.951163383462    -0.322082101502    12.000000000000
         C            1.482610114117     0.386880183462     0.106696698498    12.000000000000
         C            1.773955814117    -0.956968616538    -0.663836101502    12.000000000000
         C            2.492791814117     1.049808383462     0.489806898498    12.000000000000
         C            3.063044814117    -1.479830616538    -0.552254101502    12.000000000000
         C            3.775056814117     0.516218383462     0.614512898498    12.000000000000
         C            4.062774814117    -0.748851616538     0.094369898498    12.000000000000
         H           -2.083750185883     1.454092383462    -1.249322101502     1.007825032230
         H           -2.885358185883    -0.711411616538    -1.803408101502     1.007825032230
         H           -4.227226185883     0.120423383462    -1.015810101502     1.007825032230
         H           -3.973074185883    -2.255689616538    -0.223296101502     1.007825032230
         H           -3.769890185883    -1.117930616538     1.101238898498     1.007825032230
         H           -1.958821185883    -2.799167616538     1.213206898498     1.007825032230
         H           -1.509262185883    -2.466583616538    -0.465145101502     1.007825032230
         H           -1.351443185883    -0.507879616538     1.875476898498     1.007825032230
         H            0.018048814117    -1.260498616538     1.061595898498     1.007825032230
         H           -3.737972185883     2.132737383462     0.457970898498     1.007825032230
         H           -2.983997185883     1.070069383462     1.653877898498     1.007825032230
         H           -2.067111185883     2.432645383462     0.972545898498     1.007825032230
         H            0.996162814117    -1.513954616538    -1.182746101502     1.007825032230
         H            2.261854814117     2.045710383462     0.859564898498     1.007825032230
         H            3.290044814117    -2.454828616538    -0.977263101502     1.007825032230
         H            4.555136814117     1.091571383462     1.107449898498     1.007825032230
         H            5.065445814117    -1.159845616538     0.184652898498     1.007825032230

  Basis Set: AUG-CC-PVTZ
    Blend: AUG-CC-PVTZ
  Basis Set: (AUG-CC-PVTZ AUX)
    Blend: AUG-CC-PVTZ-JKFIT
	 Reference Energy          =    -631.6832200672953377 [Eh]
	 Singles Energy            =      -0.0000000000000000 [Eh]
	 Same-Spin Energy          =      -0.6883770216665982 [Eh]
	 Opposite-Spin Energy      =      -2.2144336197034571 [Eh]
	 Correlation Energy        =      -2.9028106413700554 [Eh]
	 Total Energy              =    -634.5860307086653620 [Eh]

	 ================> DF-SCS-MP2 Energies <==================
	-----------------------------------------------------------
	 SCS Same-Spin Scale       =       0.3333333333333333 [-]
	 SCS Opposite-Spin Scale   =       1.2000000000000000 [-]
	 SCS Same-Spin Energy      =      -0.2294590072221994 [Eh]
	 SCS Opposite-Spin Energy  =      -2.6573203436441486 [Eh]
	 SCS Correlation Energy    =      -2.8867793508663482 [Eh]
	 SCS Total Energy          =    -634.5699994181617285 [Eh]
	-----------------------------------------------------------

  Dipole Moment: [D]
     X:    -0.7864      Y:    -3.1217      Z:     1.4727     Total:     3.5401

*** Psi4 exiting successfully. Buy a developer a beer!
