                               Psi4 1.4a2.dev612

  ==> Input File <==

--------------------------------------------------------------------------
#psi4
#
memory 32 gb

molecule  {
0 1
  O        0.1371160     2.1442200    -0.7498900
  N       -0.9079200     0.2138270    -0.0832910
  C       -2.2101840     0.8219870    -0.4048790
  C       -3.1715160    -0.2856370    -0.8447810
  C       -3.2543810    -1.4343410     0.1597440
  C       -1.8582660    -1.9851710     0.4427670
  C       -0.9333470    -0.8668740     0.9054230
  C       -2.7330240     1.6830710     0.7442420
  C        0.2088310     0.9821600    -0.3252730
  C        1.5466860     0.3366220    -0.1329200
  C        1.8387470    -0.9259720    -0.6670270
  C        2.4864511     0.9810169     0.7045210
  C        3.1278360    -1.4488340    -0.5554450
  C        3.8398480     0.5472150     0.6113220
  C        4.1275660    -0.7178550     0.0911790
  H       -2.0189590     1.4850890    -1.2525130
  H       -2.8205670    -0.6804150    -1.8065990
  H       -4.1624350     0.1514200    -1.0190010
  H       -3.9082830    -2.2246930    -0.2264870
  H       -3.7050990    -1.0869340     1.0980480
  H       -1.8940300    -2.7681710     1.2100160
  H       -1.4444710    -2.4355870    -0.4683360
  H       -1.2866520    -0.4768830     1.8722860
  H        0.0828400    -1.2295020     1.0584050
  H       -3.6731810     2.1637340     0.4547800
  H       -2.9192060     1.1010660     1.6506870
  H       -2.0023200     2.4636420     0.9693550
  H        1.0609540    -1.4829580    -1.1859370
  H        2.3266460     2.0767070     0.8563740
  H        3.3548360    -2.4238320    -0.9804540
  H        4.6199280     1.1225680     1.1042590
  H        5.1302370    -1.1288490     0.1814620
units angstrom
no_reorient  #important for SAPT in psi4, default
symmetry c1  #important for SAPT in psi4, default
}

set PROPERTIES_ORIGIN ["COM"]
properties('MP2/aug-cc-pvtz', properties = ['dipole'])
--------------------------------------------------------------------------

    Molecular point group: c1
  Charge       = 0
  Multiplicity = 1
  Basis Set: AUG-CC-PVTZ
    Blend: AUG-CC-PVTZ
  Basis Set: (AUG-CC-PVTZ AUX)
    Blend: AUG-CC-PVTZ-JKFIT

    Orbital Energies [Eh]
    ---------------------

    Doubly Occupied:

       1A    -20.516375     2A    -15.579905     3A    -11.350161
       4A    -11.265051     5A    -11.258037     6A    -11.256230
       7A    -11.250727     8A    -11.249739     9A    -11.249155
      10A    -11.247930    11A    -11.245436    12A    -11.229636
      13A    -11.226401    14A    -11.223221    15A    -11.210919
      16A     -1.369798    17A     -1.247099    18A     -1.158815
      19A     -1.085094    20A     -1.052697    21A     -1.030769
      22A     -1.019728    23A     -0.959349    24A     -0.897389
      25A     -0.864890    26A     -0.836004    27A     -0.833246
      28A     -0.785362    29A     -0.728735    30A     -0.717600
      31A     -0.680436    32A     -0.654055    33A     -0.637157
      34A     -0.628051    35A     -0.626797    36A     -0.604639
      37A     -0.598433    38A     -0.589634    39A     -0.586842
      40A     -0.576687    41A     -0.565004    42A     -0.542920
      43A     -0.524770    44A     -0.519303    45A     -0.509462
      46A     -0.495567    47A     -0.492452    48A     -0.492250
      49A     -0.469973    50A     -0.462496    51A     -0.451640
      52A     -0.420934    53A     -0.368500    54A     -0.344491
      55A     -0.341052

  @DF-RHF Final Energy:  -631.70919360287928

   => Energetics <=

    Nuclear Repulsion Energy =            998.2876025329555887
    One-Electron Energy =               -2839.7355107639864400
    Two-Electron Energy =                1209.7387146281516834
    Total Energy =                       -631.7091936028791679
  Basis Set: (AUG-CC-PVTZ AUX)
    Blend: AUG-CC-PVTZ-RI
    Molecular point group: c1

    Geometry (in Angstrom), charge = 0, multiplicity = 1:

       Center              X                  Y                   Z               Mass
    ------------   -----------------  -----------------  -----------------  -----------------
         O            0.076569199956     2.123918524275    -0.745604982020    15.994914619570
         N           -0.968466800044     0.193525524275    -0.079005982020    14.003074004430
         C           -2.270730800044     0.801685524275    -0.400593982020    12.000000000000
         C           -3.232062800044    -0.305938475725    -0.840495982020    12.000000000000
         C           -3.314927800044    -1.454642475725     0.164029017980    12.000000000000
         C           -1.918812800044    -2.005472475725     0.447052017980    12.000000000000
         C           -0.993893800044    -0.887175475725     0.909708017980    12.000000000000
         C           -2.793570800044     1.662769524275     0.748527017980    12.000000000000
         C            0.148284199956     0.961858524275    -0.320987982020    12.000000000000
         C            1.486139199956     0.316320524275    -0.128634982020    12.000000000000
         C            1.778200199956    -0.946273475725    -0.662741982020    12.000000000000
         C            2.425904299956     0.960715424275     0.708806017980    12.000000000000
         C            3.067289199956    -1.469135475725    -0.551159982020    12.000000000000
         C            3.779301199956     0.526913524275     0.615607017980    12.000000000000
         C            4.067019199956    -0.738156475725     0.095464017980    12.000000000000
         H           -2.079505800044     1.464787524275    -1.248227982020     1.007825032230
         H           -2.881113800044    -0.700716475725    -1.802313982020     1.007825032230
         H           -4.222981800044     0.131118524275    -1.014715982020     1.007825032230
         H           -3.968829800044    -2.244994475725    -0.222201982020     1.007825032230
         H           -3.765645800044    -1.107235475725     1.102333017980     1.007825032230
         H           -1.954576800044    -2.788472475725     1.214301017980     1.007825032230
         H           -1.505017800044    -2.455888475725    -0.464050982020     1.007825032230
         H           -1.347198800044    -0.497184475725     1.876571017980     1.007825032230
         H            0.022293199956    -1.249803475725     1.062690017980     1.007825032230
         H           -3.733727800044     2.143432524275     0.459065017980     1.007825032230
         H           -2.979752800044     1.080764524275     1.654972017980     1.007825032230
         H           -2.062866800044     2.443340524275     0.973640017980     1.007825032230
         H            1.000407199956    -1.503259475725    -1.181651982020     1.007825032230
         H            2.266099199956     2.056405524275     0.860659017980     1.007825032230
         H            3.294289199956    -2.444133475725    -0.976168982020     1.007825032230
         H            4.559381199956     1.102266524275     1.108544017980     1.007825032230
         H            5.069690199956    -1.149150475725     0.185747017980     1.007825032230

  Basis Set: AUG-CC-PVTZ
    Blend: AUG-CC-PVTZ
  Basis Set: (AUG-CC-PVTZ AUX)
    Blend: AUG-CC-PVTZ-JKFIT
	 Reference Energy          =    -631.7091936028792816 [Eh]
	 Singles Energy            =      -0.0000000000000000 [Eh]
	 Same-Spin Energy          =      -0.6896794839417928 [Eh]
	 Opposite-Spin Energy      =      -2.2147819120943977 [Eh]
	 Correlation Energy        =      -2.9044613960361905 [Eh]
	 Total Energy              =    -634.6136549989154219 [Eh]

	 ================> DF-SCS-MP2 Energies <==================
	-----------------------------------------------------------
	 SCS Same-Spin Scale       =       0.3333333333333333 [-]
	 SCS Opposite-Spin Scale   =       1.2000000000000000 [-]
	 SCS Same-Spin Energy      =      -0.2298931613139309 [Eh]
	 SCS Opposite-Spin Energy  =      -2.6577382945132770 [Eh]
	 SCS Correlation Energy    =      -2.8876314558272078 [Eh]
	 SCS Total Energy          =    -634.5968250587064858 [Eh]
	-----------------------------------------------------------

  Dipole Moment: [D]
     X:    -0.8235      Y:    -3.1899      Z:     1.2922     Total:     3.5388

*** Psi4 exiting successfully. Buy a developer a beer!
