                               Psi4 1.4a2.dev612

  ==> Input File <==

--------------------------------------------------------------------------
#psi4
#
memory 32 gb

molecule  {
0 1
  O        0.1371160     2.1442200    -0.7498900
  N       -0.9079200     0.2138270    -0.0832910
  C       -2.2101840     0.8219870    -0.4048790
  C       -3.1715160    -0.2856370    -0.8447810
  C       -3.2543810    -1.4343410     0.1597440
  C       -1.8582660    -1.9851710     0.4427670
  C       -0.9333470    -0.8668740     0.9054230
  C       -2.7330240     1.6830710     0.7442420
  C        0.2088310     0.9821600    -0.3252730
  C        1.5475444     0.4341277     0.1507909
  C        1.8387470    -0.9259720    -0.6670270
  C        2.5575830     1.0808050     0.4866160
  C        3.1278360    -1.4488340    -0.5554450
  C        3.8398480     0.5472150     0.6113220
  C        4.1275660    -0.7178550     0.0911790
  H       -2.0189590     1.4850890    -1.2525130
  H       -2.8205670    -0.6804150    -1.8065990
  H       -4.1624350     0.1514200    -1.0190010
  H       -3.9082830    -2.2246930    -0.2264870
  H       -3.7050990    -1.0869340     1.0980480
  H       -1.8940300    -2.7681710     1.2100160
  H       -1.4444710    -2.4355870    -0.4683360
  H       -1.2866520    -0.4768830     1.8722860
  H        0.0828400    -1.2295020     1.0584050
  H       -3.6731810     2.1637340     0.4547800
  H       -2.9192060     1.1010660     1.6506870
  H       -2.0023200     2.4636420     0.9693550
  H        1.0609540    -1.4829580    -1.1859370
  H        2.3266460     2.0767070     0.8563740
  H        3.3548360    -2.4238320    -0.9804540
  H        4.6199280     1.1225680     1.1042590
  H        5.1302370    -1.1288490     0.1814620
units angstrom
no_reorient  #important for SAPT in psi4, default
symmetry c1  #important for SAPT in psi4, default
}

set PROPERTIES_ORIGIN ["COM"]
properties('MP2/aug-cc-pvtz', properties = ['dipole'])
--------------------------------------------------------------------------

    Molecular point group: c1
  Charge       = 0
  Multiplicity = 1
  Basis Set: AUG-CC-PVTZ
    Blend: AUG-CC-PVTZ
  Basis Set: (AUG-CC-PVTZ AUX)
    Blend: AUG-CC-PVTZ-JKFIT

    Orbital Energies [Eh]
    ---------------------

    Doubly Occupied:

       1A    -20.514011     2A    -15.579039     3A    -11.352892
       4A    -11.265566     5A    -11.264417     6A    -11.257881
       7A    -11.249863     8A    -11.249222     9A    -11.244777
      10A    -11.243911    11A    -11.229123    12A    -11.228262
      13A    -11.225936    14A    -11.222523    15A    -11.211176
      16A     -1.367813    17A     -1.245989    18A     -1.163783
      19A     -1.084081    20A     -1.055831    21A     -1.047129
      22A     -1.005845    23A     -0.959205    24A     -0.896622
      25A     -0.864640    26A     -0.846878    27A     -0.825893
      28A     -0.777538    29A     -0.727931    30A     -0.717010
      31A     -0.684817    32A     -0.657789    33A     -0.637681
      34A     -0.627532    35A     -0.619259    36A     -0.614292
      37A     -0.600632    38A     -0.586137    39A     -0.584156
      40A     -0.573576    41A     -0.564412    42A     -0.541740
      43A     -0.530968    44A     -0.521255    45A     -0.509376
      46A     -0.498969    47A     -0.493349    48A     -0.476424
      49A     -0.469421    50A     -0.461995    51A     -0.451586
      52A     -0.414411    53A     -0.369142    54A     -0.366447
      55A     -0.323514

  @DF-RHF Final Energy:  -631.66427695853497

   => Energetics <=

    Nuclear Repulsion Energy =            998.0685132279344316
    One-Electron Energy =               -2839.2582444627687437
    Two-Electron Energy =                1209.5254542762991150
    Total Energy =                       -631.6642769585350834
  Basis Set: (AUG-CC-PVTZ AUX)
    Blend: AUG-CC-PVTZ-RI
    Molecular point group: c1

    Geometry (in Angstrom), charge = 0, multiplicity = 1:

       Center              X                  Y                   Z               Mass
    ------------   -----------------  -----------------  -----------------  -----------------
         O            0.072316360459     2.112263358718    -0.749492477010    15.994914619570
         N           -0.972719639541     0.181870358718    -0.082893477010    14.003074004430
         C           -2.274983639541     0.790030358718    -0.404481477010    12.000000000000
         C           -3.236315639541    -0.317593641282    -0.844383477010    12.000000000000
         C           -3.319180639541    -1.466297641282     0.160141522990    12.000000000000
         C           -1.923065639541    -2.017127641282     0.443164522990    12.000000000000
         C           -0.998146639541    -0.898830641282     0.905820522990    12.000000000000
         C           -2.797823639541     1.651114358718     0.744639522990    12.000000000000
         C            0.144031360459     0.950203358718    -0.324875477010    12.000000000000
         C            1.482744760459     0.402171058718     0.151188422990    12.000000000000
         C            1.773947360459    -0.957928641282    -0.666629477010    12.000000000000
         C            2.492783360459     1.048848358718     0.487013522990    12.000000000000
         C            3.063036360459    -1.480790641282    -0.555047477010    12.000000000000
         C            3.775048360459     0.515258358718     0.611719522990    12.000000000000
         C            4.062766360459    -0.749811641282     0.091576522990    12.000000000000
         H           -2.083758639541     1.453132358718    -1.252115477010     1.007825032230
         H           -2.885366639541    -0.712371641282    -1.806201477010     1.007825032230
         H           -4.227234639541     0.119463358718    -1.018603477010     1.007825032230
         H           -3.973082639541    -2.256649641282    -0.226089477010     1.007825032230
         H           -3.769898639541    -1.118890641282     1.098445522990     1.007825032230
         H           -1.958829639541    -2.800127641282     1.210413522990     1.007825032230
         H           -1.509270639541    -2.467543641282    -0.467938477010     1.007825032230
         H           -1.351451639541    -0.508839641282     1.872683522990     1.007825032230
         H            0.018040360459    -1.261458641282     1.058802522990     1.007825032230
         H           -3.737980639541     2.131777358718     0.455177522990     1.007825032230
         H           -2.984005639541     1.069109358718     1.651084522990     1.007825032230
         H           -2.067119639541     2.431685358718     0.969752522990     1.007825032230
         H            0.996154360459    -1.514914641282    -1.185539477010     1.007825032230
         H            2.261846360459     2.044750358718     0.856771522990     1.007825032230
         H            3.290036360459    -2.455788641282    -0.980056477010     1.007825032230
         H            4.555128360459     1.090611358718     1.104656522990     1.007825032230
         H            5.065437360459    -1.160805641282     0.181859522990     1.007825032230

  Basis Set: AUG-CC-PVTZ
    Blend: AUG-CC-PVTZ
  Basis Set: (AUG-CC-PVTZ AUX)
    Blend: AUG-CC-PVTZ-JKFIT
	 Reference Energy          =    -631.6642769585349697 [Eh]
	 Singles Energy            =      -0.0000000000000000 [Eh]
	 Same-Spin Energy          =      -0.6883868652932482 [Eh]
	 Opposite-Spin Energy      =      -2.2155850713491976 [Eh]
	 Correlation Energy        =      -2.9039719366424457 [Eh]
	 Total Energy              =    -634.5682488951773621 [Eh]

	 ================> DF-SCS-MP2 Energies <==================
	-----------------------------------------------------------
	 SCS Same-Spin Scale       =       0.3333333333333333 [-]
	 SCS Opposite-Spin Scale   =       1.2000000000000000 [-]
	 SCS Same-Spin Energy      =      -0.2294622884310827 [Eh]
	 SCS Opposite-Spin Energy  =      -2.6587020856190371 [Eh]
	 SCS Correlation Energy    =      -2.8881643740501199 [Eh]
	 SCS Total Energy          =    -634.5524413325850901 [Eh]
	-----------------------------------------------------------

  Dipole Moment: [D]
     X:    -0.7768      Y:    -3.1105      Z:     1.4755     Total:     3.5293

*** Psi4 exiting successfully. Buy a developer a beer!
