                               Psi4 1.4a2.dev612

  ==> Input File <==

--------------------------------------------------------------------------
#psi4
#
memory 32 gb

molecule  {
0 1
  O        0.1371160     2.1442200    -0.7498900
  N       -0.9079200     0.2138270    -0.0832910
  C       -2.2101840     0.8219870    -0.4048790
  C       -3.1715160    -0.2856370    -0.8447810
  C       -3.2543810    -1.4343410     0.1597440
  C       -1.8582660    -1.9851710     0.4427670
  C       -0.9333470    -0.8668740     0.9054230
  C       -2.7330240     1.6830710     0.7442420
  C        0.2088310     0.9821600    -0.3252730
  C        1.5466860     0.3366220    -0.1329200
  C        1.8387470    -0.9259720    -0.6670270
  C        2.5433566     1.0608474     0.5301970
  C        3.1278360    -1.4488340    -0.5554450
  C        3.8398480     0.5472150     0.6113220
  C        4.1275660    -0.7178550     0.0911790
  H       -2.0189590     1.4850890    -1.2525130
  H       -2.8205670    -0.6804150    -1.8065990
  H       -4.1624350     0.1514200    -1.0190010
  H       -3.9082830    -2.2246930    -0.2264870
  H       -3.7050990    -1.0869340     1.0980480
  H       -1.8940300    -2.7681710     1.2100160
  H       -1.4444710    -2.4355870    -0.4683360
  H       -1.2866520    -0.4768830     1.8722860
  H        0.0828400    -1.2295020     1.0584050
  H       -3.6731810     2.1637340     0.4547800
  H       -2.9192060     1.1010660     1.6506870
  H       -2.0023200     2.4636420     0.9693550
  H        1.0609540    -1.4829580    -1.1859370
  H        2.3266460     2.0767070     0.8563740
  H        3.3548360    -2.4238320    -0.9804540
  H        4.6199280     1.1225680     1.1042590
  H        5.1302370    -1.1288490     0.1814620
units angstrom
no_reorient  #important for SAPT in psi4, default
symmetry c1  #important for SAPT in psi4, default
}

set PROPERTIES_ORIGIN ["COM"]
properties('MP2/aug-cc-pvtz', properties = ['dipole'])
--------------------------------------------------------------------------

    Molecular point group: c1
  Charge       = 0
  Multiplicity = 1
  Basis Set: AUG-CC-PVTZ
    Blend: AUG-CC-PVTZ
  Basis Set: (AUG-CC-PVTZ AUX)
    Blend: AUG-CC-PVTZ-JKFIT

    Orbital Energies [Eh]
    ---------------------

    Doubly Occupied:

       1A    -20.514718     2A    -15.579256     3A    -11.349207
       4A    -11.265064     5A    -11.257727     6A    -11.250852
       7A    -11.249322     8A    -11.247330     9A    -11.245511
      10A    -11.245360    11A    -11.243637    12A    -11.229549
      13A    -11.226289    14A    -11.223006    15A    -11.210810
      16A     -1.368752    17A     -1.246529    18A     -1.160721
      19A     -1.084824    20A     -1.052494    21A     -1.030927
      22A     -1.022743    23A     -0.959224    24A     -0.897321
      25A     -0.865497    26A     -0.837405    27A     -0.833361
      28A     -0.786713    29A     -0.729058    30A     -0.717920
      31A     -0.681825    32A     -0.654812    33A     -0.638645
      34A     -0.627901    35A     -0.626378    36A     -0.606168
      37A     -0.598966    38A     -0.593157    39A     -0.586702
      40A     -0.577455    41A     -0.564687    42A     -0.543008
      43A     -0.525891    44A     -0.519519    45A     -0.508322
      46A     -0.501885    47A     -0.493800    48A     -0.492828
      49A     -0.469903    50A     -0.462413    51A     -0.451476
      52A     -0.420946    53A     -0.368113    54A     -0.344353
      55A     -0.342110

  @DF-RHF Final Energy:  -631.72841919279142

   => Energetics <=

    Nuclear Repulsion Energy =            998.7025334370270002
    One-Electron Energy =               -2840.5971309042352004
    Two-Electron Energy =                1210.1661782744167795
    Total Energy =                       -631.7284191927915344
  Basis Set: (AUG-CC-PVTZ AUX)
    Blend: AUG-CC-PVTZ-RI
    Molecular point group: c1

    Geometry (in Angstrom), charge = 0, multiplicity = 1:

       Center              X                  Y                   Z               Mass
    ------------   -----------------  -----------------  -----------------  -----------------
         O            0.073207497644     2.119202523600    -0.735306761394    15.994914619570
         N           -0.971828502356     0.188809523600    -0.068707761394    14.003074004430
         C           -2.274092502356     0.796969523600    -0.390295761394    12.000000000000
         C           -3.235424502356    -0.310654476400    -0.830197761394    12.000000000000
         C           -3.318289502356    -1.459358476400     0.174327238606    12.000000000000
         C           -1.922174502356    -2.010188476400     0.457350238606    12.000000000000
         C           -0.997255502356    -0.891891476400     0.920006238606    12.000000000000
         C           -2.796932502356     1.658053523600     0.758825238606    12.000000000000
         C            0.144922497644     0.957142523600    -0.310689761394    12.000000000000
         C            1.482777497644     0.311604523600    -0.118336761394    12.000000000000
         C            1.774838497644    -0.950989476400    -0.652443761394    12.000000000000
         C            2.479448097644     1.035829923600     0.544780238606    12.000000000000
         C            3.063927497644    -1.473851476400    -0.540861761394    12.000000000000
         C            3.775939497644     0.522197523600     0.625905238606    12.000000000000
         C            4.063657497644    -0.742872476400     0.105762238606    12.000000000000
         H           -2.082867502356     1.460071523600    -1.237929761394     1.007825032230
         H           -2.884475502356    -0.705432476400    -1.792015761394     1.007825032230
         H           -4.226343502356     0.126402523600    -1.004417761394     1.007825032230
         H           -3.972191502356    -2.249710476400    -0.211903761394     1.007825032230
         H           -3.769007502356    -1.111951476400     1.112631238606     1.007825032230
         H           -1.957938502356    -2.793188476400     1.224599238606     1.007825032230
         H           -1.508379502356    -2.460604476400    -0.453752761394     1.007825032230
         H           -1.350560502356    -0.501900476400     1.886869238606     1.007825032230
         H            0.018931497644    -1.254519476400     1.072988238606     1.007825032230
         H           -3.737089502356     2.138716523600     0.469363238606     1.007825032230
         H           -2.983114502356     1.076048523600     1.665270238606     1.007825032230
         H           -2.066228502356     2.438624523600     0.983938238606     1.007825032230
         H            0.997045497644    -1.507975476400    -1.171353761394     1.007825032230
         H            2.262737497644     2.051689523600     0.870957238606     1.007825032230
         H            3.290927497644    -2.448849476400    -0.965870761394     1.007825032230
         H            4.556019497644     1.097550523600     1.118842238606     1.007825032230
         H            5.066328497644    -1.153866476400     0.196045238606     1.007825032230

  Basis Set: AUG-CC-PVTZ
    Blend: AUG-CC-PVTZ
  Basis Set: (AUG-CC-PVTZ AUX)
    Blend: AUG-CC-PVTZ-JKFIT
	 Reference Energy          =    -631.7284191927914208 [Eh]
	 Singles Energy            =      -0.0000000000000000 [Eh]
	 Same-Spin Energy          =      -0.6886803780825812 [Eh]
	 Opposite-Spin Energy      =      -2.2117551923354202 [Eh]
	 Correlation Energy        =      -2.9004355704180016 [Eh]
	 Total Energy              =    -634.6288547632094605 [Eh]

	 ================> DF-SCS-MP2 Energies <==================
	-----------------------------------------------------------
	 SCS Same-Spin Scale       =       0.3333333333333333 [-]
	 SCS Opposite-Spin Scale   =       1.2000000000000000 [-]
	 SCS Same-Spin Energy      =      -0.2295601260275271 [Eh]
	 SCS Opposite-Spin Energy  =      -2.6541062308025043 [Eh]
	 SCS Correlation Energy    =      -2.8836663568300311 [Eh]
	 SCS Total Energy          =    -634.6120855496214972 [Eh]
	-----------------------------------------------------------

  Dipole Moment: [D]
     X:    -0.8339      Y:    -3.1264      Z:     1.4387     Total:     3.5412

*** Psi4 exiting successfully. Buy a developer a beer!
