                               Psi4 1.4a2.dev612

  ==> Input File <==

--------------------------------------------------------------------------
#psi4
#
memory 32 gb

molecule  {
0 1
  O        0.1371160     2.1442200    -0.7498900
  N       -0.9079200     0.2138270    -0.0832910
  C       -2.2101840     0.8219870    -0.4048790
  C       -3.1715160    -0.2856370    -0.8447810
  C       -3.2543810    -1.4343410     0.1597440
  C       -1.8582660    -1.9851710     0.4427670
  C       -0.9333470    -0.8668740     0.9054230
  C       -2.7330240     1.6830710     0.7442420
  C        0.2088310     0.9821600    -0.3252730
  C        1.5469721     0.3691239    -0.0383497
  C        1.8387470    -0.9259720    -0.6670270
  C        2.5575830     1.0808050     0.4866160
  C        3.1278360    -1.4488340    -0.5554450
  C        3.8398480     0.5472150     0.6113220
  C        4.1275660    -0.7178550     0.0911790
  H       -2.0189590     1.4850890    -1.2525130
  H       -2.8205670    -0.6804150    -1.8065990
  H       -4.1624350     0.1514200    -1.0190010
  H       -3.9082830    -2.2246930    -0.2264870
  H       -3.7050990    -1.0869340     1.0980480
  H       -1.8940300    -2.7681710     1.2100160
  H       -1.4444710    -2.4355870    -0.4683360
  H       -1.2866520    -0.4768830     1.8722860
  H        0.0828400    -1.2295020     1.0584050
  H       -3.6731810     2.1637340     0.4547800
  H       -2.9192060     1.1010660     1.6506870
  H       -2.0023200     2.4636420     0.9693550
  H        1.0609540    -1.4829580    -1.1859370
  H        2.3266460     2.0767070     0.8563740
  H        3.3548360    -2.4238320    -0.9804540
  H        4.6199280     1.1225680     1.1042590
  H        5.1302370    -1.1288490     0.1814620
units angstrom
no_reorient  #important for SAPT in psi4, default
symmetry c1  #important for SAPT in psi4, default
}

set PROPERTIES_ORIGIN ["COM"]
properties('MP2/aug-cc-pvtz', properties = ['dipole'])
--------------------------------------------------------------------------

    Molecular point group: c1
  Charge       = 0
  Multiplicity = 1
  Basis Set: AUG-CC-PVTZ
    Blend: AUG-CC-PVTZ
  Basis Set: (AUG-CC-PVTZ AUX)
    Blend: AUG-CC-PVTZ-JKFIT

    Orbital Energies [Eh]
    ---------------------

    Doubly Occupied:

       1A    -20.513829     2A    -15.579045     3A    -11.349326
       4A    -11.264875     5A    -11.257648     6A    -11.256452
       7A    -11.250035     8A    -11.247990     9A    -11.245239
      10A    -11.243709    11A    -11.239243    12A    -11.229429
      13A    -11.226157    14A    -11.222786    15A    -11.210855
      16A     -1.368147    17A     -1.246228    18A     -1.160801
      19A     -1.084583    20A     -1.052389    21A     -1.035894
      22A     -1.018395    23A     -0.959173    24A     -0.897266
      25A     -0.865747    26A     -0.840580    27A     -0.830702
      28A     -0.784400    29A     -0.728897    30A     -0.717757
      31A     -0.681844    32A     -0.656077    33A     -0.638041
      34A     -0.626751    35A     -0.624504    36A     -0.610267
      37A     -0.599688    38A     -0.590369    39A     -0.586431
      40A     -0.576838    41A     -0.564575    42A     -0.542415
      43A     -0.527107    44A     -0.520061    45A     -0.506647
      46A     -0.500547    47A     -0.494267    48A     -0.492796
      49A     -0.469691    50A     -0.462390    51A     -0.451520
      52A     -0.420315    53A     -0.367522    54A     -0.351435
      55A     -0.335557

  @DF-RHF Final Energy:  -631.72127220519758

   => Energetics <=

    Nuclear Repulsion Energy =            998.5853873072895794
    One-Electron Energy =               -2840.3628548808901542
    Two-Electron Energy =                1210.0561953684027685
    Total Energy =                       -631.7212722051976925
  Basis Set: (AUG-CC-PVTZ AUX)
    Blend: AUG-CC-PVTZ-RI
    Molecular point group: c1

    Geometry (in Angstrom), charge = 0, multiplicity = 1:

       Center              X                  Y                   Z               Mass
    ------------   -----------------  -----------------  -----------------  -----------------
         O            0.072350169181     2.116103469511    -0.738318963162    15.994914619570
         N           -0.972685830819     0.185710469511    -0.071719963162    14.003074004430
         C           -2.274949830819     0.793870469511    -0.393307963162    12.000000000000
         C           -3.236281830819    -0.313753530489    -0.833209963162    12.000000000000
         C           -3.319146830819    -1.462457530489     0.171315036838    12.000000000000
         C           -1.923031830819    -2.013287530489     0.454338036838    12.000000000000
         C           -0.998112830819    -0.894990530489     0.916994036838    12.000000000000
         C           -2.797789830819     1.654954469511     0.755813036838    12.000000000000
         C            0.144065169181     0.954043469511    -0.313701963162    12.000000000000
         C            1.482206269181     0.341007369511    -0.026778663162    12.000000000000
         C            1.773981169181    -0.954088530489    -0.655455963162    12.000000000000
         C            2.492817169181     1.052688469511     0.498187036838    12.000000000000
         C            3.063070169181    -1.476950530489    -0.543873963162    12.000000000000
         C            3.775082169181     0.519098469511     0.622893036838    12.000000000000
         C            4.062800169181    -0.745971530489     0.102750036838    12.000000000000
         H           -2.083724830819     1.456972469511    -1.240941963162     1.007825032230
         H           -2.885332830819    -0.708531530489    -1.795027963162     1.007825032230
         H           -4.227200830819     0.123303469511    -1.007429963162     1.007825032230
         H           -3.973048830819    -2.252809530489    -0.214915963162     1.007825032230
         H           -3.769864830819    -1.115050530489     1.109619036838     1.007825032230
         H           -1.958795830819    -2.796287530489     1.221587036838     1.007825032230
         H           -1.509236830819    -2.463703530489    -0.456764963162     1.007825032230
         H           -1.351417830819    -0.504999530489     1.883857036838     1.007825032230
         H            0.018074169181    -1.257618530489     1.069976036838     1.007825032230
         H           -3.737946830819     2.135617469511     0.466351036838     1.007825032230
         H           -2.983971830819     1.072949469511     1.662258036838     1.007825032230
         H           -2.067085830819     2.435525469511     0.980926036838     1.007825032230
         H            0.996188169181    -1.511074530489    -1.174365963162     1.007825032230
         H            2.261880169181     2.048590469511     0.867945036838     1.007825032230
         H            3.290070169181    -2.451948530489    -0.968882963162     1.007825032230
         H            4.555162169181     1.094451469511     1.115830036838     1.007825032230
         H            5.065471169181    -1.156965530489     0.193033036838     1.007825032230

  Basis Set: AUG-CC-PVTZ
    Blend: AUG-CC-PVTZ
  Basis Set: (AUG-CC-PVTZ AUX)
    Blend: AUG-CC-PVTZ-JKFIT
	 Reference Energy          =    -631.7212722051975788 [Eh]
	 Singles Energy            =      -0.0000000000000000 [Eh]
	 Same-Spin Energy          =      -0.6885929280668532 [Eh]
	 Opposite-Spin Energy      =      -2.2121581270276334 [Eh]
	 Correlation Energy        =      -2.9007510550944868 [Eh]
	 Total Energy              =    -634.6220232602920532 [Eh]

	 ================> DF-SCS-MP2 Energies <==================
	-----------------------------------------------------------
	 SCS Same-Spin Scale       =       0.3333333333333333 [-]
	 SCS Opposite-Spin Scale   =       1.2000000000000000 [-]
	 SCS Same-Spin Energy      =      -0.2295309760222844 [Eh]
	 SCS Opposite-Spin Energy  =      -2.6545897524331599 [Eh]
	 SCS Correlation Energy    =      -2.8841207284554442 [Eh]
	 SCS Total Energy          =    -634.6053929336529791 [Eh]
	-----------------------------------------------------------

  Dipole Moment: [D]
     X:    -0.8154      Y:    -3.1324      Z:     1.4668     Total:     3.5536

*** Psi4 exiting successfully. Buy a developer a beer!
