                               Psi4 1.4a2.dev612

  ==> Input File <==

--------------------------------------------------------------------------
#psi4
#
memory 32 gb

molecule  {
0 1
  O        0.1371160     2.1442200    -0.7498900
  N       -0.9079200     0.2138270    -0.0832910
  C       -2.2101840     0.8219870    -0.4048790
  C       -3.1715160    -0.2856370    -0.8447810
  C       -3.2543810    -1.4343410     0.1597440
  C       -1.8582660    -1.9851710     0.4427670
  C       -0.9333470    -0.8668740     0.9054230
  C       -2.7330240     1.6830710     0.7442420
  C        0.2088310     0.9821600    -0.3252730
  C        1.5466860     0.3366220    -0.1329200
  C        1.8387470    -0.9259720    -0.6670270
  C        2.4722248     0.9610593     0.7481020
  C        3.1278360    -1.4488340    -0.5554450
  C        3.8398480     0.5472150     0.6113220
  C        4.1275660    -0.7178550     0.0911790
  H       -2.0189590     1.4850890    -1.2525130
  H       -2.8205670    -0.6804150    -1.8065990
  H       -4.1624350     0.1514200    -1.0190010
  H       -3.9082830    -2.2246930    -0.2264870
  H       -3.7050990    -1.0869340     1.0980480
  H       -1.8940300    -2.7681710     1.2100160
  H       -1.4444710    -2.4355870    -0.4683360
  H       -1.2866520    -0.4768830     1.8722860
  H        0.0828400    -1.2295020     1.0584050
  H       -3.6731810     2.1637340     0.4547800
  H       -2.9192060     1.1010660     1.6506870
  H       -2.0023200     2.4636420     0.9693550
  H        1.0609540    -1.4829580    -1.1859370
  H        2.3266460     2.0767070     0.8563740
  H        3.3548360    -2.4238320    -0.9804540
  H        4.6199280     1.1225680     1.1042590
  H        5.1302370    -1.1288490     0.1814620
units angstrom
no_reorient  #important for SAPT in psi4, default
symmetry c1  #important for SAPT in psi4, default
}

set PROPERTIES_ORIGIN ["COM"]
properties('MP2/aug-cc-pvtz', properties = ['dipole'])
--------------------------------------------------------------------------

    Molecular point group: c1
  Charge       = 0
  Multiplicity = 1
  Basis Set: AUG-CC-PVTZ
    Blend: AUG-CC-PVTZ
  Basis Set: (AUG-CC-PVTZ AUX)
    Blend: AUG-CC-PVTZ-JKFIT

    Orbital Energies [Eh]
    ---------------------

    Doubly Occupied:

       1A    -20.516856     2A    -15.580103     3A    -11.350471
       4A    -11.265050     5A    -11.258581     6A    -11.258127
       7A    -11.253158     8A    -11.251175     9A    -11.251101
      10A    -11.247701    11A    -11.245091    12A    -11.229665
      13A    -11.226436    14A    -11.223286    15A    -11.210932
      16A     -1.370115    17A     -1.247274    18A     -1.158036
      19A     -1.085182    20A     -1.052754    21A     -1.030623
      22A     -1.018481    23A     -0.959371    24A     -0.897388
      25A     -0.864654    26A     -0.835377    27A     -0.833163
      28A     -0.784843    29A     -0.728623    30A     -0.717499
      31A     -0.679963    32A     -0.653760    33A     -0.636462
      34A     -0.628154    35A     -0.626718    36A     -0.603880
      37A     -0.598285    38A     -0.588236    39A     -0.586817
      40A     -0.576209    41A     -0.565066    42A     -0.542842
      43A     -0.524465    44A     -0.519141    45A     -0.509316
      46A     -0.494841    47A     -0.491803    48A     -0.490119
      49A     -0.469975    50A     -0.462511    51A     -0.451684
      52A     -0.420992    53A     -0.368616    54A     -0.344862
      55A     -0.340247

  @DF-RHF Final Energy:  -631.70024876464265

   => Energetics <=

    Nuclear Repulsion Energy =            998.0492475153864689
    One-Electron Energy =               -2839.2468332807357001
    Two-Electron Energy =                1209.4973370007064659
    Total Energy =                       -631.7002487646427653
  Basis Set: (AUG-CC-PVTZ AUX)
    Blend: AUG-CC-PVTZ-RI
    Molecular point group: c1

    Geometry (in Angstrom), charge = 0, multiplicity = 1:

       Center              X                  Y                   Z               Mass
    ------------   -----------------  -----------------  -----------------  -----------------
         O            0.077409621103     2.125097522967    -0.748179537177    15.994914619570
         N           -0.967626378897     0.194704522967    -0.081580537177    14.003074004430
         C           -2.269890378897     0.802864522967    -0.403168537177    12.000000000000
         C           -3.231222378897    -0.304759477033    -0.843070537177    12.000000000000
         C           -3.314087378897    -1.453463477033     0.161454462823    12.000000000000
         C           -1.917972378897    -2.004293477033     0.444477462823    12.000000000000
         C           -0.993053378897    -0.885996477033     0.907133462823    12.000000000000
         C           -2.792730378897     1.663948522967     0.745952462823    12.000000000000
         C            0.149124621103     0.963037522967    -0.323562537177    12.000000000000
         C            1.486979621103     0.317499522967    -0.131209537177    12.000000000000
         C            1.779040621103    -0.945094477033    -0.665316537177    12.000000000000
         C            2.412518421103     0.941936822967     0.749812462823    12.000000000000
         C            3.068129621103    -1.467956477033    -0.553734537177    12.000000000000
         C            3.780141621103     0.528092522967     0.613032462823    12.000000000000
         C            4.067859621103    -0.736977477033     0.092889462823    12.000000000000
         H           -2.078665378897     1.465966522967    -1.250802537177     1.007825032230
         H           -2.880273378897    -0.699537477033    -1.804888537177     1.007825032230
         H           -4.222141378897     0.132297522967    -1.017290537177     1.007825032230
         H           -3.967989378897    -2.243815477033    -0.224776537177     1.007825032230
         H           -3.764805378897    -1.106056477033     1.099758462823     1.007825032230
         H           -1.953736378897    -2.787293477033     1.211726462823     1.007825032230
         H           -1.504177378897    -2.454709477033    -0.466625537177     1.007825032230
         H           -1.346358378897    -0.496005477033     1.873996462823     1.007825032230
         H            0.023133621103    -1.248624477033     1.060115462823     1.007825032230
         H           -3.732887378897     2.144611522967     0.456490462823     1.007825032230
         H           -2.978912378897     1.081943522967     1.652397462823     1.007825032230
         H           -2.062026378897     2.444519522967     0.971065462823     1.007825032230
         H            1.001247621103    -1.502080477033    -1.184226537177     1.007825032230
         H            2.266939621103     2.057584522967     0.858084462823     1.007825032230
         H            3.295129621103    -2.442954477033    -0.978743537177     1.007825032230
         H            4.560221621103     1.103445522967     1.105969462823     1.007825032230
         H            5.070530621103    -1.147971477033     0.183172462823     1.007825032230

  Basis Set: AUG-CC-PVTZ
    Blend: AUG-CC-PVTZ
  Basis Set: (AUG-CC-PVTZ AUX)
    Blend: AUG-CC-PVTZ-JKFIT
	 Reference Energy          =    -631.7002487646426516 [Eh]
	 Singles Energy            =      -0.0000000000000000 [Eh]
	 Same-Spin Energy          =      -0.6900983704448505 [Eh]
	 Opposite-Spin Energy      =      -2.2161131796003781 [Eh]
	 Correlation Energy        =      -2.9062115500452288 [Eh]
	 Total Energy              =    -634.6064603146878653 [Eh]

	 ================> DF-SCS-MP2 Energies <==================
	-----------------------------------------------------------
	 SCS Same-Spin Scale       =       0.3333333333333333 [-]
	 SCS Opposite-Spin Scale   =       1.2000000000000000 [-]
	 SCS Same-Spin Energy      =      -0.2300327901482835 [Eh]
	 SCS Opposite-Spin Energy  =      -2.6593358155204538 [Eh]
	 SCS Correlation Energy    =      -2.8893686056687375 [Eh]
	 SCS Total Energy          =    -634.5896173703114300 [Eh]
	-----------------------------------------------------------

  Dipole Moment: [D]
     X:    -0.8172      Y:    -3.2227      Z:     1.2440     Total:     3.5498

*** Psi4 exiting successfully. Buy a developer a beer!
