                               Psi4 1.4a2.dev612

  ==> Input File <==

--------------------------------------------------------------------------
#psi4
#
memory 32 gb

molecule  {
0 1
  O        0.1371160     2.1442200    -0.7498900
  N       -0.9079200     0.2138270    -0.0832910
  C       -2.2101840     0.8219870    -0.4048790
  C       -3.1715160    -0.2856370    -0.8447810
  C       -3.2543810    -1.4343410     0.1597440
  C       -1.8582660    -1.9851710     0.4427670
  C       -0.9333470    -0.8668740     0.9054230
  C       -2.7330240     1.6830710     0.7442420
  C        0.2088310     0.9821600    -0.3252730
  C        1.5466860     0.3366220    -0.1329200
  C        1.8387470    -0.9259720    -0.6670270
  C        2.5006775     1.0009745     0.6609400
  C        3.1278360    -1.4488340    -0.5554450
  C        3.8398480     0.5472150     0.6113220
  C        4.1275660    -0.7178550     0.0911790
  H       -2.0189590     1.4850890    -1.2525130
  H       -2.8205670    -0.6804150    -1.8065990
  H       -4.1624350     0.1514200    -1.0190010
  H       -3.9082830    -2.2246930    -0.2264870
  H       -3.7050990    -1.0869340     1.0980480
  H       -1.8940300    -2.7681710     1.2100160
  H       -1.4444710    -2.4355870    -0.4683360
  H       -1.2866520    -0.4768830     1.8722860
  H        0.0828400    -1.2295020     1.0584050
  H       -3.6731810     2.1637340     0.4547800
  H       -2.9192060     1.1010660     1.6506870
  H       -2.0023200     2.4636420     0.9693550
  H        1.0609540    -1.4829580    -1.1859370
  H        2.3266460     2.0767070     0.8563740
  H        3.3548360    -2.4238320    -0.9804540
  H        4.6199280     1.1225680     1.1042590
  H        5.1302370    -1.1288490     0.1814620
units angstrom
no_reorient  #important for SAPT in psi4, default
symmetry c1  #important for SAPT in psi4, default
}

set PROPERTIES_ORIGIN ["COM"]
properties('MP2/aug-cc-pvtz', properties = ['dipole'])
--------------------------------------------------------------------------

    Molecular point group: c1
  Charge       = 0
  Multiplicity = 1
  Basis Set: AUG-CC-PVTZ
    Blend: AUG-CC-PVTZ
  Basis Set: (AUG-CC-PVTZ AUX)
    Blend: AUG-CC-PVTZ-JKFIT

    Orbital Energies [Eh]
    ---------------------

    Doubly Occupied:

       1A    -20.515920     2A    -15.579720     3A    -11.349882
       4A    -11.265051     5A    -11.257951     6A    -11.254250
       7A    -11.248988     8A    -11.248720     9A    -11.247779
      10A    -11.247462    11A    -11.245692    12A    -11.229609
      13A    -11.226369    14A    -11.223160    15A    -11.210899
      16A     -1.369504    17A     -1.246936    18A     -1.159494
      19A     -1.085015    20A     -1.052643    21A     -1.030888
      22A     -1.020771    23A     -0.959322    24A     -0.897381
      25A     -0.865096    26A     -0.836544    27A     -0.833309
      28A     -0.785826    29A     -0.728856    30A     -0.717711
      31A     -0.680899    32A     -0.654326    33A     -0.637764
      34A     -0.627989    35A     -0.626785    36A     -0.605255
      37A     -0.598596    38A     -0.590875    39A     -0.586843
      40A     -0.577012    41A     -0.564932    42A     -0.542979
      43A     -0.525071    44A     -0.519412    45A     -0.509430
      46A     -0.497169    47A     -0.493411    48A     -0.492569
      49A     -0.469962    50A     -0.462477    51A     -0.451596
      52A     -0.420897    53A     -0.368392    54A     -0.344235
      55A     -0.341702

  @DF-RHF Final Energy:  -631.71646360769012

   => Energetics <=

    Nuclear Repulsion Energy =            998.4741983521214479
    One-Electron Energy =               -2840.1186694593311586
    Two-Electron Energy =                1209.9280074995194809
    Total Energy =                       -631.7164636076902298
  Basis Set: (AUG-CC-PVTZ AUX)
    Blend: AUG-CC-PVTZ-RI
    Molecular point group: c1

    Geometry (in Angstrom), charge = 0, multiplicity = 1:

       Center              X                  Y                   Z               Mass
    ------------   -----------------  -----------------  -----------------  -----------------
         O            0.075728772901     2.122739525583    -0.743030426863    15.994914619570
         N           -0.969307227099     0.192346525583    -0.076431426863    14.003074004430
         C           -2.271571227099     0.800506525583    -0.398019426863    12.000000000000
         C           -3.232903227099    -0.307117474417    -0.837921426863    12.000000000000
         C           -3.315768227099    -1.455821474417     0.166603573137    12.000000000000
         C           -1.919653227099    -2.006651474417     0.449626573137    12.000000000000
         C           -0.994734227099    -0.888354474417     0.912282573137    12.000000000000
         C           -2.794411227099     1.661590525583     0.751101573137    12.000000000000
         C            0.147443772901     0.960679525583    -0.318413426863    12.000000000000
         C            1.485298772901     0.315141525583    -0.126060426863    12.000000000000
         C            1.777359772901    -0.947452474417    -0.660167426863    12.000000000000
         C            2.439290272901     0.979494025583     0.667799573137    12.000000000000
         C            3.066448772901    -1.470314474417    -0.548585426863    12.000000000000
         C            3.778460772901     0.525734525583     0.618181573137    12.000000000000
         C            4.066178772901    -0.739335474417     0.098038573137    12.000000000000
         H           -2.080346227099     1.463608525583    -1.245653426863     1.007825032230
         H           -2.881954227099    -0.701895474417    -1.799739426863     1.007825032230
         H           -4.223822227099     0.129939525583    -1.012141426863     1.007825032230
         H           -3.969670227099    -2.246173474417    -0.219627426863     1.007825032230
         H           -3.766486227099    -1.108414474417     1.104907573137     1.007825032230
         H           -1.955417227099    -2.789651474417     1.216875573137     1.007825032230
         H           -1.505858227099    -2.457067474417    -0.461476426863     1.007825032230
         H           -1.348039227099    -0.498363474417     1.879145573137     1.007825032230
         H            0.021452772901    -1.250982474417     1.065264573137     1.007825032230
         H           -3.734568227099     2.142253525583     0.461639573137     1.007825032230
         H           -2.980593227099     1.079585525583     1.657546573137     1.007825032230
         H           -2.063707227099     2.442161525583     0.976214573137     1.007825032230
         H            0.999566772901    -1.504438474417    -1.179077426863     1.007825032230
         H            2.265258772901     2.055226525583     0.863233573137     1.007825032230
         H            3.293448772901    -2.445312474417    -0.973594426863     1.007825032230
         H            4.558540772901     1.101087525583     1.111118573137     1.007825032230
         H            5.068849772901    -1.150329474417     0.188321573137     1.007825032230

  Basis Set: AUG-CC-PVTZ
    Blend: AUG-CC-PVTZ
  Basis Set: (AUG-CC-PVTZ AUX)
    Blend: AUG-CC-PVTZ-JKFIT
	 Reference Energy          =    -631.7164636076901161 [Eh]
	 Singles Energy            =      -0.0000000000000000 [Eh]
	 Same-Spin Energy          =      -0.6893211971796460 [Eh]
	 Opposite-Spin Energy      =      -2.2136657897438159 [Eh]
	 Correlation Energy        =      -2.9029869869234619 [Eh]
	 Total Energy              =    -634.6194505946135678 [Eh]

	 ================> DF-SCS-MP2 Energies <==================
	-----------------------------------------------------------
	 SCS Same-Spin Scale       =       0.3333333333333333 [-]
	 SCS Opposite-Spin Scale   =       1.2000000000000000 [-]
	 SCS Same-Spin Energy      =      -0.2297737323932153 [Eh]
	 SCS Opposite-Spin Energy  =      -2.6563989476925789 [Eh]
	 SCS Correlation Energy    =      -2.8861726800857941 [Eh]
	 SCS Total Energy          =    -634.6026362877759084 [Eh]
	-----------------------------------------------------------

  Dipole Moment: [D]
     X:    -0.8283      Y:    -3.1636      Z:     1.3360     Total:     3.5326

*** Psi4 exiting successfully. Buy a developer a beer!
