                               Psi4 1.4a2.dev612

  ==> Input File <==

--------------------------------------------------------------------------
#psi4
#
memory 32 gb

molecule  {
0 1
  O        0.1371160     2.1442200    -0.7498900
  N       -0.9079200     0.2138270    -0.0832910
  C       -2.2101840     0.8219870    -0.4048790
  C       -3.1715160    -0.2856370    -0.8447810
  C       -3.2543810    -1.4343410     0.1597440
  C       -1.8582660    -1.9851710     0.4427670
  C       -0.9333470    -0.8668740     0.9054230
  C       -2.7330240     1.6830710     0.7442420
  C        0.2088310     0.9821600    -0.3252730
  C        1.5468291     0.3528730    -0.0856348
  C        1.8387470    -0.9259720    -0.6670270
  C        2.5575830     1.0808050     0.4866160
  C        3.1278360    -1.4488340    -0.5554450
  C        3.8398480     0.5472150     0.6113220
  C        4.1275660    -0.7178550     0.0911790
  H       -2.0189590     1.4850890    -1.2525130
  H       -2.8205670    -0.6804150    -1.8065990
  H       -4.1624350     0.1514200    -1.0190010
  H       -3.9082830    -2.2246930    -0.2264870
  H       -3.7050990    -1.0869340     1.0980480
  H       -1.8940300    -2.7681710     1.2100160
  H       -1.4444710    -2.4355870    -0.4683360
  H       -1.2866520    -0.4768830     1.8722860
  H        0.0828400    -1.2295020     1.0584050
  H       -3.6731810     2.1637340     0.4547800
  H       -2.9192060     1.1010660     1.6506870
  H       -2.0023200     2.4636420     0.9693550
  H        1.0609540    -1.4829580    -1.1859370
  H        2.3266460     2.0767070     0.8563740
  H        3.3548360    -2.4238320    -0.9804540
  H        4.6199280     1.1225680     1.1042590
  H        5.1302370    -1.1288490     0.1814620
units angstrom
no_reorient  #important for SAPT in psi4, default
symmetry c1  #important for SAPT in psi4, default
}

set PROPERTIES_ORIGIN ["COM"]
properties('MP2/aug-cc-pvtz', properties = ['dipole'])
--------------------------------------------------------------------------

    Molecular point group: c1
  Charge       = 0
  Multiplicity = 1
  Basis Set: AUG-CC-PVTZ
    Blend: AUG-CC-PVTZ
  Basis Set: (AUG-CC-PVTZ AUX)
    Blend: AUG-CC-PVTZ-JKFIT

    Orbital Energies [Eh]
    ---------------------

    Doubly Occupied:

       1A    -20.514055     2A    -15.579083     3A    -11.349063
       4A    -11.264970     5A    -11.257645     6A    -11.253320
       7A    -11.250126     8A    -11.247711     9A    -11.245214
      10A    -11.243731    11A    -11.242068    12A    -11.229483
      13A    -11.226211    14A    -11.222871    15A    -11.210808
      16A     -1.368333    17A     -1.246319    18A     -1.160675
      19A     -1.084684    20A     -1.052356    21A     -1.032689
      22A     -1.021367    23A     -0.959176    24A     -0.897300
      25A     -0.865712    26A     -0.838950    27A     -0.831983
      28A     -0.785742    29A     -0.728984    30A     -0.717842
      31A     -0.681697    32A     -0.655424    33A     -0.638271
      34A     -0.626725    35A     -0.626048    36A     -0.608225
      37A     -0.599376    38A     -0.592013    39A     -0.586519
      40A     -0.577220    41A     -0.564591    42A     -0.542671
      43A     -0.526482    44A     -0.519739    45A     -0.506515
      46A     -0.502244    47A     -0.494267    48A     -0.493194
      49A     -0.469780    50A     -0.462401    51A     -0.451482
      52A     -0.420829    53A     -0.367777    54A     -0.347083
      55A     -0.339315

  @DF-RHF Final Energy:  -631.72706257312166

   => Energetics <=

    Nuclear Repulsion Energy =            998.6386550250805385
    One-Electron Energy =               -2840.4747121098589560
    Two-Electron Energy =                1210.1089945116568742
    Total Energy =                       -631.7270625731216569
  Basis Set: (AUG-CC-PVTZ AUX)
    Blend: AUG-CC-PVTZ-RI
    Molecular point group: c1

    Geometry (in Angstrom), charge = 0, multiplicity = 1:

       Center              X                  Y                   Z               Mass
    ------------   -----------------  -----------------  -----------------  -----------------
         O            0.072358616931     2.117063494256    -0.735525587653    15.994914619570
         N           -0.972677383069     0.186670494256    -0.068926587653    14.003074004430
         C           -2.274941383069     0.794830494256    -0.390514587653    12.000000000000
         C           -3.236273383069    -0.312793505744    -0.830416587653    12.000000000000
         C           -3.319138383069    -1.461497505744     0.174108412347    12.000000000000
         C           -1.923023383069    -2.012327505744     0.457131412347    12.000000000000
         C           -0.998104383069    -0.894030505744     0.919787412347    12.000000000000
         C           -2.797781383069     1.655914494256     0.758606412347    12.000000000000
         C            0.144073616931     0.955003494256    -0.310908587653    12.000000000000
         C            1.482071716931     0.325716494256    -0.071270387653    12.000000000000
         C            1.773989616931    -0.953128505744    -0.652662587653    12.000000000000
         C            2.492825616931     1.053648494256     0.500980412347    12.000000000000
         C            3.063078616931    -1.475990505744    -0.541080587653    12.000000000000
         C            3.775090616931     0.520058494256     0.625686412347    12.000000000000
         C            4.062808616931    -0.745011505744     0.105543412347    12.000000000000
         H           -2.083716383069     1.457932494256    -1.238148587653     1.007825032230
         H           -2.885324383069    -0.707571505744    -1.792234587653     1.007825032230
         H           -4.227192383069     0.124263494256    -1.004636587653     1.007825032230
         H           -3.973040383069    -2.251849505744    -0.212122587653     1.007825032230
         H           -3.769856383069    -1.114090505744     1.112412412347     1.007825032230
         H           -1.958787383069    -2.795327505744     1.224380412347     1.007825032230
         H           -1.509228383069    -2.462743505744    -0.453971587653     1.007825032230
         H           -1.351409383069    -0.504039505744     1.886650412347     1.007825032230
         H            0.018082616931    -1.256658505744     1.072769412347     1.007825032230
         H           -3.737938383069     2.136577494256     0.469144412347     1.007825032230
         H           -2.983963383069     1.073909494256     1.665051412347     1.007825032230
         H           -2.067077383069     2.436485494256     0.983719412347     1.007825032230
         H            0.996196616931    -1.510114505744    -1.171572587653     1.007825032230
         H            2.261888616931     2.049550494256     0.870738412347     1.007825032230
         H            3.290078616931    -2.450988505744    -0.966089587653     1.007825032230
         H            4.555170616931     1.095411494256     1.118623412347     1.007825032230
         H            5.065479616931    -1.156005505744     0.195826412347     1.007825032230

  Basis Set: AUG-CC-PVTZ
    Blend: AUG-CC-PVTZ
  Basis Set: (AUG-CC-PVTZ AUX)
    Blend: AUG-CC-PVTZ-JKFIT
	 Reference Energy          =    -631.7270625731216569 [Eh]
	 Singles Energy            =      -0.0000000000000000 [Eh]
	 Same-Spin Energy          =      -0.6886387569825496 [Eh]
	 Opposite-Spin Energy      =      -2.2117810533489513 [Eh]
	 Correlation Energy        =      -2.9004198103315009 [Eh]
	 Total Energy              =    -634.6274823834531844 [Eh]

	 ================> DF-SCS-MP2 Energies <==================
	-----------------------------------------------------------
	 SCS Same-Spin Scale       =       0.3333333333333333 [-]
	 SCS Opposite-Spin Scale   =       1.2000000000000000 [-]
	 SCS Same-Spin Energy      =      -0.2295462523275165 [Eh]
	 SCS Opposite-Spin Energy  =      -2.6541372640187415 [Eh]
	 SCS Correlation Energy    =      -2.8836835163462582 [Eh]
	 SCS Total Energy          =    -634.6107460894679662 [Eh]
	-----------------------------------------------------------

  Dipole Moment: [D]
     X:    -0.8245      Y:    -3.1311      Z:     1.4652     Total:     3.5540

*** Psi4 exiting successfully. Buy a developer a beer!
