                               Psi4 1.4a2.dev612

  ==> Input File <==

--------------------------------------------------------------------------
#psi4
#
memory 32 gb

molecule  {
0 1
  O        0.1371160     2.1442200    -0.7498900
  N       -0.9079200     0.2138270    -0.0832910
  C       -2.2101840     0.8219870    -0.4048790
  C       -3.1715160    -0.2856370    -0.8447810
  C       -3.2543810    -1.4343410     0.1597440
  C       -1.8582660    -1.9851710     0.4427670
  C       -0.9333470    -0.8668740     0.9054230
  C       -2.7330240     1.6830710     0.7442420
  C        0.2088310     0.9821600    -0.3252730
  C        1.5466860     0.3366220    -0.1329200
  C        1.8387470    -0.9259720    -0.6670270
  C        2.5291303     1.0408898     0.5737780
  C        3.1278360    -1.4488340    -0.5554450
  C        3.8398480     0.5472150     0.6113220
  C        4.1275660    -0.7178550     0.0911790
  H       -2.0189590     1.4850890    -1.2525130
  H       -2.8205670    -0.6804150    -1.8065990
  H       -4.1624350     0.1514200    -1.0190010
  H       -3.9082830    -2.2246930    -0.2264870
  H       -3.7050990    -1.0869340     1.0980480
  H       -1.8940300    -2.7681710     1.2100160
  H       -1.4444710    -2.4355870    -0.4683360
  H       -1.2866520    -0.4768830     1.8722860
  H        0.0828400    -1.2295020     1.0584050
  H       -3.6731810     2.1637340     0.4547800
  H       -2.9192060     1.1010660     1.6506870
  H       -2.0023200     2.4636420     0.9693550
  H        1.0609540    -1.4829580    -1.1859370
  H        2.3266460     2.0767070     0.8563740
  H        3.3548360    -2.4238320    -0.9804540
  H        4.6199280     1.1225680     1.1042590
  H        5.1302370    -1.1288490     0.1814620
units angstrom
no_reorient  #important for SAPT in psi4, default
symmetry c1  #important for SAPT in psi4, default
}

set PROPERTIES_ORIGIN ["COM"]
properties('MP2/aug-cc-pvtz', properties = ['dipole'])
--------------------------------------------------------------------------

    Molecular point group: c1
  Charge       = 0
  Multiplicity = 1
  Basis Set: AUG-CC-PVTZ
    Blend: AUG-CC-PVTZ
  Basis Set: (AUG-CC-PVTZ AUX)
    Blend: AUG-CC-PVTZ-JKFIT

    Orbital Energies [Eh]
    ---------------------

    Doubly Occupied:

       1A    -20.515093     2A    -15.579394     3A    -11.349406
       4A    -11.265056     5A    -11.257795     6A    -11.251528
       7A    -11.249188     8A    -11.247218     9A    -11.246052
      10A    -11.245752    11A    -11.244517    12A    -11.229564
      13A    -11.226312    14A    -11.223052    15A    -11.210843
      16A     -1.368982    17A     -1.246651    18A     -1.160463
      19A     -1.084879    20A     -1.052542    21A     -1.030979
      22A     -1.022275    23A     -0.959258    24A     -0.897346
      25A     -0.865403    26A     -0.837264    27A     -0.833369
      28A     -0.786515    29A     -0.729040    30A     -0.717889
      31A     -0.681629    32A     -0.654720    33A     -0.638533
      34A     -0.627927    35A     -0.626564    36A     -0.606025
      37A     -0.598905    38A     -0.592637    39A     -0.586774
      40A     -0.577369    41A     -0.564772    42A     -0.543026
      43A     -0.525638    44A     -0.519513    45A     -0.508857
      46A     -0.500601    47A     -0.493779    48A     -0.492856
      49A     -0.469925    50A     -0.462433    51A     -0.451513
      52A     -0.420902    53A     -0.368198    54A     -0.344188
      55A     -0.342243

  @DF-RHF Final Energy:  -631.72605543367160

   => Energetics <=

    Nuclear Repulsion Energy =            998.6833112953902400
    One-Electron Energy =               -2840.5524313846431141
    Two-Electron Energy =                1210.1430646555813837
    Total Energy =                       -631.7260554336714904
  Basis Set: (AUG-CC-PVTZ AUX)
    Blend: AUG-CC-PVTZ-RI
    Molecular point group: c1

    Geometry (in Angstrom), charge = 0, multiplicity = 1:

       Center              X                  Y                   Z               Mass
    ------------   -----------------  -----------------  -----------------  -----------------
         O            0.074047918791     2.120381522292    -0.737881316550    15.994914619570
         N           -0.970988081209     0.189988522292    -0.071282316550    14.003074004430
         C           -2.273252081209     0.798148522292    -0.392870316550    12.000000000000
         C           -3.234584081209    -0.309475477708    -0.832772316550    12.000000000000
         C           -3.317449081209    -1.458179477708     0.171752683450    12.000000000000
         C           -1.921334081209    -2.009009477708     0.454775683450    12.000000000000
         C           -0.996415081209    -0.890712477708     0.917431683450    12.000000000000
         C           -2.796092081209     1.659232522292     0.756250683450    12.000000000000
         C            0.145762918791     0.958321522292    -0.313264316550    12.000000000000
         C            1.483617918791     0.312783522292    -0.120911316550    12.000000000000
         C            1.775678918791    -0.949810477708    -0.655018316550    12.000000000000
         C            2.466062218791     1.017051322292     0.585786683450    12.000000000000
         C            3.064767918791    -1.472672477708    -0.543436316550    12.000000000000
         C            3.776779918791     0.523376522292     0.623330683450    12.000000000000
         C            4.064497918791    -0.741693477708     0.103187683450    12.000000000000
         H           -2.082027081209     1.461250522292    -1.240504316550     1.007825032230
         H           -2.883635081209    -0.704253477708    -1.794590316550     1.007825032230
         H           -4.225503081209     0.127581522292    -1.006992316550     1.007825032230
         H           -3.971351081209    -2.248531477708    -0.214478316550     1.007825032230
         H           -3.768167081209    -1.110772477708     1.110056683450     1.007825032230
         H           -1.957098081209    -2.792009477708     1.222024683450     1.007825032230
         H           -1.507539081209    -2.459425477708    -0.456327316550     1.007825032230
         H           -1.349720081209    -0.500721477708     1.884294683450     1.007825032230
         H            0.019771918791    -1.253340477708     1.070413683450     1.007825032230
         H           -3.736249081209     2.139895522292     0.466788683450     1.007825032230
         H           -2.982274081209     1.077227522292     1.662695683450     1.007825032230
         H           -2.065388081209     2.439803522292     0.981363683450     1.007825032230
         H            0.997885918791    -1.506796477708    -1.173928316550     1.007825032230
         H            2.263577918791     2.052868522292     0.868382683450     1.007825032230
         H            3.291767918791    -2.447670477708    -0.968445316550     1.007825032230
         H            4.556859918791     1.098729522292     1.116267683450     1.007825032230
         H            5.067168918791    -1.152687477708     0.193470683450     1.007825032230

  Basis Set: AUG-CC-PVTZ
    Blend: AUG-CC-PVTZ
  Basis Set: (AUG-CC-PVTZ AUX)
    Blend: AUG-CC-PVTZ-JKFIT
	 Reference Energy          =    -631.7260554336716041 [Eh]
	 Singles Energy            =      -0.0000000000000000 [Eh]
	 Same-Spin Energy          =      -0.6888159392824726 [Eh]
	 Opposite-Spin Energy      =      -2.2121455359746669 [Eh]
	 Correlation Energy        =      -2.9009614752571395 [Eh]
	 Total Energy              =    -634.6270169089287947 [Eh]

	 ================> DF-SCS-MP2 Energies <==================
	-----------------------------------------------------------
	 SCS Same-Spin Scale       =       0.3333333333333333 [-]
	 SCS Opposite-Spin Scale   =       1.2000000000000000 [-]
	 SCS Same-Spin Energy      =      -0.2296053130941575 [Eh]
	 SCS Opposite-Spin Energy  =      -2.6545746431696000 [Eh]
	 SCS Correlation Energy    =      -2.8841799562637576 [Eh]
	 SCS Total Energy          =    -634.6102353899353830 [Eh]
	-----------------------------------------------------------

  Dipole Moment: [D]
     X:    -0.8334      Y:    -3.1316      Z:     1.4093     Total:     3.5338

*** Psi4 exiting successfully. Buy a developer a beer!
