                               Psi4 1.4a2.dev612

  ==> Input File <==

--------------------------------------------------------------------------
#psi4
#
memory 32 gb

molecule  {
0 1
  O        0.1371160     2.1442200    -0.7498900
  N       -0.9079200     0.2138270    -0.0832910
  C       -2.2101840     0.8219870    -0.4048790
  C       -3.1715160    -0.2856370    -0.8447810
  C       -3.2543810    -1.4343410     0.1597440
  C       -1.8582660    -1.9851710     0.4427670
  C       -0.9333470    -0.8668740     0.9054230
  C       -2.7330240     1.6830710     0.7442420
  C        0.2088310     0.9821600    -0.3252730
  C        1.5471152     0.3853749     0.0089355
  C        1.8387470    -0.9259720    -0.6670270
  C        2.5575830     1.0808050     0.4866160
  C        3.1278360    -1.4488340    -0.5554450
  C        3.8398480     0.5472150     0.6113220
  C        4.1275660    -0.7178550     0.0911790
  H       -2.0189590     1.4850890    -1.2525130
  H       -2.8205670    -0.6804150    -1.8065990
  H       -4.1624350     0.1514200    -1.0190010
  H       -3.9082830    -2.2246930    -0.2264870
  H       -3.7050990    -1.0869340     1.0980480
  H       -1.8940300    -2.7681710     1.2100160
  H       -1.4444710    -2.4355870    -0.4683360
  H       -1.2866520    -0.4768830     1.8722860
  H        0.0828400    -1.2295020     1.0584050
  H       -3.6731810     2.1637340     0.4547800
  H       -2.9192060     1.1010660     1.6506870
  H       -2.0023200     2.4636420     0.9693550
  H        1.0609540    -1.4829580    -1.1859370
  H        2.3266460     2.0767070     0.8563740
  H        3.3548360    -2.4238320    -0.9804540
  H        4.6199280     1.1225680     1.1042590
  H        5.1302370    -1.1288490     0.1814620
units angstrom
no_reorient  #important for SAPT in psi4, default
symmetry c1  #important for SAPT in psi4, default
}

set PROPERTIES_ORIGIN ["COM"]
properties('MP2/aug-cc-pvtz', properties = ['dipole'])
--------------------------------------------------------------------------

    Molecular point group: c1
  Charge       = 0
  Multiplicity = 1
  Basis Set: AUG-CC-PVTZ
    Blend: AUG-CC-PVTZ
  Basis Set: (AUG-CC-PVTZ AUX)
    Blend: AUG-CC-PVTZ-JKFIT

    Orbital Energies [Eh]
    ---------------------

    Doubly Occupied:

       1A    -20.513700     2A    -15.579021     3A    -11.349829
       4A    -11.264785     5A    -11.259299     6A    -11.257672
       7A    -11.249815     8A    -11.248345     9A    -11.245210
      10A    -11.243786    11A    -11.236287    12A    -11.229372
      13A    -11.226106    14A    -11.222710    15A    -11.210916
      16A     -1.367989    17A     -1.246149    18A     -1.161182
      19A     -1.084472    20A     -1.052591    21A     -1.039309
      22A     -1.015163    23A     -0.959178    24A     -0.897185
      25A     -0.865652    26A     -0.842227    27A     -0.829478
      28A     -0.782840    29A     -0.728744    30A     -0.717635
      31A     -0.682293    32A     -0.656686    33A     -0.637885
      34A     -0.626945    35A     -0.622679    36A     -0.612070
      37A     -0.599934    38A     -0.588677    39A     -0.586328
      40A     -0.576320    41A     -0.564550    42A     -0.542192
      43A     -0.527933    44A     -0.520398    45A     -0.507286
      46A     -0.499383    47A     -0.493787    48A     -0.490768
      49A     -0.469611    50A     -0.462357    51A     -0.451553
      52A     -0.419459    53A     -0.367266    54A     -0.355962
      55A     -0.332075

  @DF-RHF Final Energy:  -631.71192919820555

   => Energetics <=

    Nuclear Repulsion Energy =            998.5028877031313641
    One-Electron Energy =               -2840.1875445959362878
    Two-Electron Energy =                1209.9727276945993708
    Total Energy =                       -631.7119291982055529
  Basis Set: (AUG-CC-PVTZ AUX)
    Blend: AUG-CC-PVTZ-RI
    Molecular point group: c1

    Geometry (in Angstrom), charge = 0, multiplicity = 1:

       Center              X                  Y                   Z               Mass
    ------------   -----------------  -----------------  -----------------  -----------------
         O            0.072341715524     2.115143438859    -0.741112344578    15.994914619570
         N           -0.972694284476     0.184750438859    -0.074513344578    14.003074004430
         C           -2.274958284476     0.792910438859    -0.396101344578    12.000000000000
         C           -3.236290284476    -0.314713561141    -0.836003344578    12.000000000000
         C           -3.319155284476    -1.463417561141     0.168521655422    12.000000000000
         C           -1.923040284476    -2.014247561141     0.451544655422    12.000000000000
         C           -0.998121284476    -0.895950561141     0.914200655422    12.000000000000
         C           -2.797798284476     1.653994438859     0.753019655422    12.000000000000
         C            0.144056715524     0.953083438859    -0.316495344578    12.000000000000
         C            1.482340915524     0.356298338859     0.017713155422    12.000000000000
         C            1.773972715524    -0.955048561141    -0.658249344578    12.000000000000
         C            2.492808715524     1.051728438859     0.495393655422    12.000000000000
         C            3.063061715524    -1.477910561141    -0.546667344578    12.000000000000
         C            3.775073715524     0.518138438859     0.620099655422    12.000000000000
         C            4.062791715524    -0.746931561141     0.099956655422    12.000000000000
         H           -2.083733284476     1.456012438859    -1.243735344578     1.007825032230
         H           -2.885341284476    -0.709491561141    -1.797821344578     1.007825032230
         H           -4.227209284476     0.122343438859    -1.010223344578     1.007825032230
         H           -3.973057284476    -2.253769561141    -0.217709344578     1.007825032230
         H           -3.769873284476    -1.116010561141     1.106825655422     1.007825032230
         H           -1.958804284476    -2.797247561141     1.218793655422     1.007825032230
         H           -1.509245284476    -2.464663561141    -0.459558344578     1.007825032230
         H           -1.351426284476    -0.505959561141     1.881063655422     1.007825032230
         H            0.018065715524    -1.258578561141     1.067182655422     1.007825032230
         H           -3.737955284476     2.134657438859     0.463557655422     1.007825032230
         H           -2.983980284476     1.071989438859     1.659464655422     1.007825032230
         H           -2.067094284476     2.434565438859     0.978132655422     1.007825032230
         H            0.996179715524    -1.512034561141    -1.177159344578     1.007825032230
         H            2.261871715524     2.047630438859     0.865151655422     1.007825032230
         H            3.290061715524    -2.452908561141    -0.971676344578     1.007825032230
         H            4.555153715524     1.093491438859     1.113036655422     1.007825032230
         H            5.065462715524    -1.157925561141     0.190239655422     1.007825032230

  Basis Set: AUG-CC-PVTZ
    Blend: AUG-CC-PVTZ
  Basis Set: (AUG-CC-PVTZ AUX)
    Blend: AUG-CC-PVTZ-JKFIT
	 Reference Energy          =    -631.7119291982055529 [Eh]
	 Singles Energy            =      -0.0000000000000000 [Eh]
	 Same-Spin Energy          =      -0.6885131472524320 [Eh]
	 Opposite-Spin Energy      =      -2.2127263445714522 [Eh]
	 Correlation Energy        =      -2.9012394918238842 [Eh]
	 Total Energy              =    -634.6131686900293971 [Eh]

	 ================> DF-SCS-MP2 Energies <==================
	-----------------------------------------------------------
	 SCS Same-Spin Scale       =       0.3333333333333333 [-]
	 SCS Opposite-Spin Scale   =       1.2000000000000000 [-]
	 SCS Same-Spin Energy      =      -0.2295043824174773 [Eh]
	 SCS Opposite-Spin Energy  =      -2.6552716134857426 [Eh]
	 SCS Correlation Energy    =      -2.8847759959032198 [Eh]
	 SCS Total Energy          =    -634.5967051941087220 [Eh]
	-----------------------------------------------------------

  Dipole Moment: [D]
     X:    -0.8059      Y:    -3.1318      Z:     1.4685     Total:     3.5516

*** Psi4 exiting successfully. Buy a developer a beer!
