                               Psi4 1.4a2.dev612

  ==> Input File <==

--------------------------------------------------------------------------
#psi4
#
memory 32 gb

molecule  {
0 1
  O        0.1371160     2.1442200    -0.7498900
  N       -0.9079200     0.2138270    -0.0832910
  C       -2.2101840     0.8219870    -0.4048790
  C       -3.1715160    -0.2856370    -0.8447810
  C       -3.2543810    -1.4343410     0.1597440
  C       -1.8582660    -1.9851710     0.4427670
  C       -0.9333470    -0.8668740     0.9054230
  C       -2.7330240     1.6830710     0.7442420
  C        0.2088310     0.9821600    -0.3252730
  C        1.5466860     0.3366220    -0.1329200
  C        1.8387470    -0.9259720    -0.6670270
  C        2.5149039     1.0209321     0.6173590
  C        3.1278360    -1.4488340    -0.5554450
  C        3.8398480     0.5472150     0.6113220
  C        4.1275660    -0.7178550     0.0911790
  H       -2.0189590     1.4850890    -1.2525130
  H       -2.8205670    -0.6804150    -1.8065990
  H       -4.1624350     0.1514200    -1.0190010
  H       -3.9082830    -2.2246930    -0.2264870
  H       -3.7050990    -1.0869340     1.0980480
  H       -1.8940300    -2.7681710     1.2100160
  H       -1.4444710    -2.4355870    -0.4683360
  H       -1.2866520    -0.4768830     1.8722860
  H        0.0828400    -1.2295020     1.0584050
  H       -3.6731810     2.1637340     0.4547800
  H       -2.9192060     1.1010660     1.6506870
  H       -2.0023200     2.4636420     0.9693550
  H        1.0609540    -1.4829580    -1.1859370
  H        2.3266460     2.0767070     0.8563740
  H        3.3548360    -2.4238320    -0.9804540
  H        4.6199280     1.1225680     1.1042590
  H        5.1302370    -1.1288490     0.1814620
units angstrom
no_reorient  #important for SAPT in psi4, default
symmetry c1  #important for SAPT in psi4, default
}

set PROPERTIES_ORIGIN ["COM"]
properties('MP2/aug-cc-pvtz', properties = ['dipole'])
--------------------------------------------------------------------------

    Molecular point group: c1
  Charge       = 0
  Multiplicity = 1
  Basis Set: AUG-CC-PVTZ
    Blend: AUG-CC-PVTZ
  Basis Set: (AUG-CC-PVTZ AUX)
    Blend: AUG-CC-PVTZ-JKFIT

    Orbital Energies [Eh]
    ---------------------

    Doubly Occupied:

       1A    -20.515493     2A    -15.579549     3A    -11.349630
       4A    -11.265052     5A    -11.257870     6A    -11.252672
       7A    -11.249007     8A    -11.247465     9A    -11.246983
      10A    -11.246249    11A    -11.245513    12A    -11.229585
      13A    -11.226339    14A    -11.223103    15A    -11.210873
      16A     -1.369232    17A     -1.246786    18A     -1.160050
      19A     -1.084943    20A     -1.052592    21A     -1.030963
      22A     -1.021619    23A     -0.959291    24A     -0.897366
      25A     -0.865269    26A     -0.836971    27A     -0.833350
      28A     -0.786216    29A     -0.728966    30A     -0.717814
      31A     -0.681310    32A     -0.654554    33A     -0.638234
      34A     -0.627953    35A     -0.626703    36A     -0.605719
      37A     -0.598765    38A     -0.591883    39A     -0.586821
      40A     -0.577228    41A     -0.564854    42A     -0.543016
      43A     -0.525363    44A     -0.519479    45A     -0.509227
      46A     -0.498999    47A     -0.493689    48A     -0.492768
      49A     -0.469945    50A     -0.462455    51A     -0.451553
      52A     -0.420886    53A     -0.368291    54A     -0.344125
      55A     -0.342120

  @DF-RHF Final Energy:  -631.72207680890142

   => Energetics <=

    Nuclear Repulsion Energy =            998.6067307127657386
    One-Electron Energy =               -2840.3921118323664814
    Two-Electron Energy =                1210.0633043106993227
    Total Energy =                       -631.7220768089014200
  Basis Set: (AUG-CC-PVTZ AUX)
    Blend: AUG-CC-PVTZ-RI
    Molecular point group: c1

    Geometry (in Angstrom), charge = 0, multiplicity = 1:

       Center              X                  Y                   Z               Mass
    ------------   -----------------  -----------------  -----------------  -----------------
         O            0.074888345846     2.121560526891    -0.740455871707    15.994914619570
         N           -0.970147654154     0.191167526891    -0.073856871707    14.003074004430
         C           -2.272411654154     0.799327526891    -0.395444871707    12.000000000000
         C           -3.233743654154    -0.308296473109    -0.835346871707    12.000000000000
         C           -3.316608654154    -1.457000473109     0.169178128293    12.000000000000
         C           -1.920493654154    -2.007830473109     0.452201128293    12.000000000000
         C           -0.995574654154    -0.889533473109     0.914857128293    12.000000000000
         C           -2.795251654154     1.660411526891     0.753676128293    12.000000000000
         C            0.146603345846     0.959500526891    -0.315838871707    12.000000000000
         C            1.484458345846     0.313962526891    -0.123485871707    12.000000000000
         C            1.776519345846    -0.948631473109    -0.657592871707    12.000000000000
         C            2.452676245846     0.998272626891     0.626793128293    12.000000000000
         C            3.065608345846    -1.471493473109    -0.546010871707    12.000000000000
         C            3.777620345846     0.524555526891     0.620756128293    12.000000000000
         C            4.065338345846    -0.740514473109     0.100613128293    12.000000000000
         H           -2.081186654154     1.462429526891    -1.243078871707     1.007825032230
         H           -2.882794654154    -0.703074473109    -1.797164871707     1.007825032230
         H           -4.224662654154     0.128760526891    -1.009566871707     1.007825032230
         H           -3.970510654154    -2.247352473109    -0.217052871707     1.007825032230
         H           -3.767326654154    -1.109593473109     1.107482128293     1.007825032230
         H           -1.956257654154    -2.790830473109     1.219450128293     1.007825032230
         H           -1.506698654154    -2.458246473109    -0.458901871707     1.007825032230
         H           -1.348879654154    -0.499542473109     1.881720128293     1.007825032230
         H            0.020612345846    -1.252161473109     1.067839128293     1.007825032230
         H           -3.735408654154     2.141074526891     0.464214128293     1.007825032230
         H           -2.981433654154     1.078406526891     1.660121128293     1.007825032230
         H           -2.064547654154     2.440982526891     0.978789128293     1.007825032230
         H            0.998726345846    -1.505617473109    -1.176502871707     1.007825032230
         H            2.264418345846     2.054047526891     0.865808128293     1.007825032230
         H            3.292608345846    -2.446491473109    -0.971019871707     1.007825032230
         H            4.557700345846     1.099908526891     1.113693128293     1.007825032230
         H            5.068009345846    -1.151508473109     0.190896128293     1.007825032230

  Basis Set: AUG-CC-PVTZ
    Blend: AUG-CC-PVTZ
  Basis Set: (AUG-CC-PVTZ AUX)
    Blend: AUG-CC-PVTZ-JKFIT
	 Reference Energy          =    -631.7220768089014200 [Eh]
	 Singles Energy            =      -0.0000000000000000 [Eh]
	 Same-Spin Energy          =      -0.6890312271311282 [Eh]
	 Opposite-Spin Energy      =      -2.2127824061925869 [Eh]
	 Correlation Energy        =      -2.9018136333237150 [Eh]
	 Total Energy              =    -634.6238904422251608 [Eh]

	 ================> DF-SCS-MP2 Energies <==================
	-----------------------------------------------------------
	 SCS Same-Spin Scale       =       0.3333333333333333 [-]
	 SCS Opposite-Spin Scale   =       1.2000000000000000 [-]
	 SCS Same-Spin Energy      =      -0.2296770757103760 [Eh]
	 SCS Opposite-Spin Energy  =      -2.6553388874311041 [Eh]
	 SCS Correlation Energy    =      -2.8850159631414800 [Eh]
	 SCS Total Energy          =    -634.6070927720428472 [Eh]
	-----------------------------------------------------------

  Dipole Moment: [D]
     X:    -0.8315      Y:    -3.1441      Z:     1.3751     Total:     3.5309

*** Psi4 exiting successfully. Buy a developer a beer!
