                               Psi4 1.3.2 release

  ==> Input File <==

--------------------------------------------------------------------------
#psi4
#
memory 32 gb

molecule  {
0 1
  O       -0.7670850     1.7208920    -0.4354900
  N        1.6863020     0.4747470     0.1388600
  N       -1.9291830    -0.1915810     0.0453950
  N        0.7639310    -1.5088640    -0.3477740
  C        0.5235478    -0.1947893     0.0152793
  C       -0.7756170     0.5047820    -0.1623390
  C        2.7114570    -0.4276410     0.0208990
  C        1.8666300     1.8964630     0.4257140
  C       -3.1904980     0.5035560    -0.1598940
  C       -2.0503370    -1.5461500     0.5645390
  C        2.1210610    -1.6392390    -0.2794470
  H        3.7418240    -0.1353950     0.1686580
  H        1.1394670     2.2188990     1.1681400
  H        2.8785810     2.0278530     0.8121890
  H        1.7220340     2.4842350    -0.4794890
  H       -3.8467550    -0.1153850    -0.7799180
  H       -2.9915450     1.4520350    -0.6543500
  H       -3.6876690     0.6913720     0.7990550
  H       -1.0742680    -1.9474190     0.8155770
  H       -2.5092790    -2.1983750    -0.1864030
  H       -2.6938370    -1.5270200     1.4518100
  H        2.6051200    -2.5920870    -0.4498700
units angstrom
no_reorient  #important for SAPT in psi4, default
symmetry c1  #important for SAPT in psi4, default
}

set PROPERTIES_ORIGIN ["COM"]
properties('MP2/aug-cc-pvtz', properties = ['dipole'])
--------------------------------------------------------------------------

    Molecular point group: c1
  Charge       = 0
  Multiplicity = 1
  Basis Set: AUG-CC-PVTZ
    Blend: AUG-CC-PVTZ
  Basis Set: (AUG-CC-PVTZ AUX)
    Blend: AUG-CC-PVTZ-JKFIT

    Orbital Energies [Eh]
    ---------------------

    Doubly Occupied:

       1A    -20.516783     2A    -15.639063     3A    -15.591307
       4A    -15.562742     5A    -11.363183     6A    -11.305232
       7A    -11.273657     8A    -11.268552     9A    -11.254212
      10A    -11.253590    11A    -11.252281    12A     -1.380750
      13A     -1.344407    14A     -1.244593    15A     -1.183026
      16A     -1.031968    17A     -0.978529    18A     -0.966062
      19A     -0.940022    20A     -0.831076    21A     -0.810382
      22A     -0.741949    23A     -0.709587    24A     -0.664562
      25A     -0.655158    26A     -0.646552    27A     -0.640359
      28A     -0.604439    29A     -0.592764    30A     -0.573494
      31A     -0.564703    32A     -0.555303    33A     -0.554225
      34A     -0.552336    35A     -0.526347    36A     -0.522912
      37A     -0.447134    38A     -0.430205    39A     -0.389060
      40A     -0.372500    41A     -0.320311

  @DF-RHF Final Energy:  -509.85353516555381

   => Energetics <=

    Nuclear Repulsion Energy =            628.8700599817732382
    One-Electron Energy =               -1941.3365562683918597
    Two-Electron Energy =                 802.6129611210648136
    Total Energy =                       -509.8535351655538079
  Basis Set: (AUG-CC-PVTZ AUX)
    Blend: AUG-CC-PVTZ-RI
    Molecular point group: c1

    Geometry (in Angstrom), charge = 0, multiplicity = 1:

       Center              X                  Y                   Z               Mass
    ------------   -----------------  -----------------  -----------------  -----------------
         O           -0.798102893023     1.721628290383    -0.425873953529    15.994914619570
         N            1.655284106977     0.475483290383     0.148476046471    14.003074004430
         N           -1.960200893023    -0.190844709617     0.055011046471    14.003074004430
         N            0.732913106977    -1.508127709617    -0.338157953529    14.003074004430
         C            0.492529906977    -0.194053009617     0.024895346471    12.000000000000
         C           -0.806634893023     0.505518290383    -0.152722953529    12.000000000000
         C            2.680439106977    -0.426904709617     0.030515046471    12.000000000000
         C            1.835612106977     1.897199290383     0.435330046471    12.000000000000
         C           -3.221515893023     0.504292290383    -0.150277953529    12.000000000000
         C           -2.081354893023    -1.545413709617     0.574155046471    12.000000000000
         C            2.090043106977    -1.638502709617    -0.269830953529    12.000000000000
         H            3.710806106977    -0.134658709617     0.178274046471     1.007825032230
         H            1.108449106977     2.219635290383     1.177756046471     1.007825032230
         H            2.847563106977     2.028589290383     0.821805046471     1.007825032230
         H            1.691016106977     2.484971290383    -0.469872953529     1.007825032230
         H           -3.877772893023    -0.114648709617    -0.770301953529     1.007825032230
         H           -3.022562893023     1.452771290383    -0.644733953529     1.007825032230
         H           -3.718686893023     0.692108290383     0.808671046471     1.007825032230
         H           -1.105285893023    -1.946682709617     0.825193046471     1.007825032230
         H           -2.540296893023    -2.197638709617    -0.176786953529     1.007825032230
         H           -2.724854893023    -1.526283709617     1.461426046471     1.007825032230
         H            2.574102106977    -2.591350709617    -0.440253953529     1.007825032230

  Basis Set: AUG-CC-PVTZ
    Blend: AUG-CC-PVTZ
  Basis Set: (AUG-CC-PVTZ AUX)
    Blend: AUG-CC-PVTZ-JKFIT
	 Reference Energy          =    -509.8535351655538079 [Eh]
	 Singles Energy            =      -0.0000000000000000 [Eh]
	 Same-Spin Energy          =      -0.5448604342864127 [Eh]
	 Opposite-Spin Energy      =      -1.6971243020990070 [Eh]
	 Correlation Energy        =      -2.2419847363854197 [Eh]
	 Total Energy              =    -512.0955199019392694 [Eh]

	 ================> DF-SCS-MP2 Energies <==================
	-----------------------------------------------------------
	 SCS Same-Spin Scale       =       0.3333333333333333 [-]
	 SCS Opposite-Spin Scale   =       1.2000000000000000 [-]
	 SCS Same-Spin Energy      =      -0.1816201447621376 [Eh]
	 SCS Opposite-Spin Energy  =      -2.0365491625188081 [Eh]
	 SCS Correlation Energy    =      -2.2181693072809456 [Eh]
	 SCS Total Energy          =    -512.0717044728347673 [Eh]
	-----------------------------------------------------------

  Dipole Moment: [D]
     X:     0.8626      Y:     0.0420      Z:     1.7546     Total:     1.9556

*** Psi4 exiting successfully. Buy a developer a beer!
