                               Psi4 1.3.2 release

  ==> Input File <==

--------------------------------------------------------------------------
#psi4
#
memory 32 gb

molecule  {
0 1
  O       -0.7670850     1.7208920    -0.4354900
  N        1.6863020     0.4747470     0.1388600
  N       -1.9291830    -0.1915810     0.0453950
  N        0.7639310    -1.5088640    -0.3477740
  C        0.5182450    -0.2160980    -0.0822800
  C       -0.7512993     0.5413427    -0.3574594
  C        2.7114570    -0.4276410     0.0208990
  C        1.8666300     1.8964630     0.4257140
  C       -3.1904980     0.5035560    -0.1598940
  C       -2.0503370    -1.5461500     0.5645390
  C        2.1210610    -1.6392390    -0.2794470
  H        3.7418240    -0.1353950     0.1686580
  H        1.1394670     2.2188990     1.1681400
  H        2.8785810     2.0278530     0.8121890
  H        1.7220340     2.4842350    -0.4794890
  H       -3.8467550    -0.1153850    -0.7799180
  H       -2.9915450     1.4520350    -0.6543500
  H       -3.6876690     0.6913720     0.7990550
  H       -1.0742680    -1.9474190     0.8155770
  H       -2.5092790    -2.1983750    -0.1864030
  H       -2.6938370    -1.5270200     1.4518100
  H        2.6051200    -2.5920870    -0.4498700
units angstrom
no_reorient  #important for SAPT in psi4, default
symmetry c1  #important for SAPT in psi4, default
}

set PROPERTIES_ORIGIN ["COM"]
properties('MP2/aug-cc-pvtz', properties = ['dipole'])
--------------------------------------------------------------------------

    Molecular point group: c1
  Charge       = 0
  Multiplicity = 1
  Basis Set: AUG-CC-PVTZ
    Blend: AUG-CC-PVTZ
  Basis Set: (AUG-CC-PVTZ AUX)
    Blend: AUG-CC-PVTZ-JKFIT

    Orbital Energies [Eh]
    ---------------------

    Doubly Occupied:

       1A    -20.537787     2A    -15.635104     3A    -15.575251
       4A    -15.562251     5A    -11.368413     6A    -11.304951
       7A    -11.275888     8A    -11.271155     9A    -11.252596
      10A    -11.247218    11A    -11.244139    12A     -1.422414
      13A     -1.348077    14A     -1.224378    15A     -1.189500
      16A     -1.030336    17A     -0.976835    18A     -0.957207
      19A     -0.918730    20A     -0.827768    21A     -0.809389
      22A     -0.742866    23A     -0.705197    24A     -0.674377
      25A     -0.655792    26A     -0.642056    27A     -0.634258
      28A     -0.606253    29A     -0.595668    30A     -0.584129
      31A     -0.565002    32A     -0.560102    33A     -0.550718
      34A     -0.545919    35A     -0.537945    36A     -0.520682
      37A     -0.455622    38A     -0.429249    39A     -0.392562
      40A     -0.362517    41A     -0.321496

  @DF-RHF Final Energy:  -509.83989179211807

   => Energetics <=

    Nuclear Repulsion Energy =            628.3991723674432706
    One-Electron Energy =               -1940.3545350094800597
    Two-Electron Energy =                 802.1154708499187791
    Total Energy =                       -509.8398917921180100
  Basis Set: (AUG-CC-PVTZ AUX)
    Blend: AUG-CC-PVTZ-RI
    Molecular point group: c1

    Geometry (in Angstrom), charge = 0, multiplicity = 1:

       Center              X                  Y                   Z               Mass
    ------------   -----------------  -----------------  -----------------  -----------------
         O           -0.799593378907     1.720432759998    -0.402932209871    15.994914619570
         N            1.653793621093     0.474287759998     0.171417790129    14.003074004430
         N           -1.961691378907    -0.192040240002     0.077952790129    14.003074004430
         N            0.731422621093    -1.509323240002    -0.315216209871    14.003074004430
         C            0.485736621093    -0.216557240002    -0.049722209871    12.000000000000
         C           -0.783807678907     0.540883459998    -0.324901609871    12.000000000000
         C            2.678948621093    -0.428100240002     0.053456790129    12.000000000000
         C            1.834121621093     1.896003759998     0.458271790129    12.000000000000
         C           -3.223006378907     0.503096759998    -0.127336209871    12.000000000000
         C           -2.082845378907    -1.546609240002     0.597096790129    12.000000000000
         C            2.088552621093    -1.639698240002    -0.246889209871    12.000000000000
         H            3.709315621093    -0.135854240002     0.201215790129     1.007825032230
         H            1.106958621093     2.218439759998     1.200697790129     1.007825032230
         H            2.846072621093     2.027393759998     0.844746790129     1.007825032230
         H            1.689525621093     2.483775759998    -0.446931209871     1.007825032230
         H           -3.879263378907    -0.115844240002    -0.747360209871     1.007825032230
         H           -3.024053378907     1.451575759998    -0.621792209871     1.007825032230
         H           -3.720177378907     0.690912759998     0.831612790129     1.007825032230
         H           -1.106776378907    -1.947878240002     0.848134790129     1.007825032230
         H           -2.541787378907    -2.198834240002    -0.153845209871     1.007825032230
         H           -2.726345378907    -1.527479240002     1.484367790129     1.007825032230
         H            2.572611621093    -2.592546240002    -0.417312209871     1.007825032230

  Basis Set: AUG-CC-PVTZ
    Blend: AUG-CC-PVTZ
  Basis Set: (AUG-CC-PVTZ AUX)
    Blend: AUG-CC-PVTZ-JKFIT
	 Reference Energy          =    -509.8398917921180669 [Eh]
	 Singles Energy            =      -0.0000000000000000 [Eh]
	 Same-Spin Energy          =      -0.5436677591720256 [Eh]
	 Opposite-Spin Energy      =      -1.6954574510215408 [Eh]
	 Correlation Energy        =      -2.2391252101935661 [Eh]
	 Total Energy              =    -512.0790170023116161 [Eh]

	 ================> DF-SCS-MP2 Energies <==================
	-----------------------------------------------------------
	 SCS Same-Spin Scale       =       0.3333333333333333 [-]
	 SCS Opposite-Spin Scale   =       1.2000000000000000 [-]
	 SCS Same-Spin Energy      =      -0.1812225863906752 [Eh]
	 SCS Opposite-Spin Energy  =      -2.0345489412258488 [Eh]
	 SCS Correlation Energy    =      -2.2157715276165240 [Eh]
	 SCS Total Energy          =    -512.0556633197345491 [Eh]
	-----------------------------------------------------------

  Dipole Moment: [D]
     X:     1.3392      Y:     0.5313      Z:     1.3861     Total:     1.9992

*** Psi4 exiting successfully. Buy a developer a beer!
