                               Psi4 1.3.2 release

  ==> Input File <==

--------------------------------------------------------------------------
#psi4
#
memory 32 gb

molecule  {
0 1
  O       -0.7670850     1.7208920    -0.4354900
  N        1.6863020     0.4747470     0.1388600
  N       -1.9291830    -0.1915810     0.0453950
  N        0.7639310    -1.5088640    -0.3477740
  C        0.5182450    -0.2160980    -0.0822800
  C       -0.7634582     0.5230624    -0.2598992
  C        2.7114570    -0.4276410     0.0208990
  C        1.8666300     1.8964630     0.4257140
  C       -3.1904980     0.5035560    -0.1598940
  C       -2.0503370    -1.5461500     0.5645390
  C        2.1210610    -1.6392390    -0.2794470
  H        3.7418240    -0.1353950     0.1686580
  H        1.1394670     2.2188990     1.1681400
  H        2.8785810     2.0278530     0.8121890
  H        1.7220340     2.4842350    -0.4794890
  H       -3.8467550    -0.1153850    -0.7799180
  H       -2.9915450     1.4520350    -0.6543500
  H       -3.6876690     0.6913720     0.7990550
  H       -1.0742680    -1.9474190     0.8155770
  H       -2.5092790    -2.1983750    -0.1864030
  H       -2.6938370    -1.5270200     1.4518100
  H        2.6051200    -2.5920870    -0.4498700
units angstrom
no_reorient  #important for SAPT in psi4, default
symmetry c1  #important for SAPT in psi4, default
}

set PROPERTIES_ORIGIN ["COM"]
properties('MP2/aug-cc-pvtz', properties = ['dipole'])
--------------------------------------------------------------------------

    Molecular point group: c1
  Charge       = 0
  Multiplicity = 1
  Basis Set: AUG-CC-PVTZ
    Blend: AUG-CC-PVTZ
  Basis Set: (AUG-CC-PVTZ AUX)
    Blend: AUG-CC-PVTZ-JKFIT

    Orbital Energies [Eh]
    ---------------------

    Doubly Occupied:

       1A    -20.527296     2A    -15.634579     3A    -15.583382
       4A    -15.562071     5A    -11.364909     6A    -11.304696
       7A    -11.274031     8A    -11.270309     9A    -11.252023
      10A    -11.251361    11A    -11.248458    12A     -1.400829
      13A     -1.346030    14A     -1.236107    15A     -1.189313
      16A     -1.031501    17A     -0.976673    18A     -0.962011
      19A     -0.929343    20A     -0.830280    21A     -0.810452
      22A     -0.742180    23A     -0.707150    24A     -0.668015
      25A     -0.655283    26A     -0.643997    27A     -0.637538
      28A     -0.605936    29A     -0.594056    30A     -0.580999
      31A     -0.564317    32A     -0.556734    33A     -0.553112
      34A     -0.549430    35A     -0.532254    36A     -0.524355
      37A     -0.453728    38A     -0.430439    39A     -0.392083
      40A     -0.368533    41A     -0.321444

  @DF-RHF Final Energy:  -509.85622071513353

   => Energetics <=

    Nuclear Repulsion Energy =            628.8230742915602605
    One-Electron Energy =               -1941.2241203855660387
    Two-Electron Energy =                 802.5448253788722468
    Total Energy =                       -509.8562207151335315
  Basis Set: (AUG-CC-PVTZ AUX)
    Blend: AUG-CC-PVTZ-RI
    Molecular point group: c1

    Geometry (in Angstrom), charge = 0, multiplicity = 1:

       Center              X                  Y                   Z               Mass
    ------------   -----------------  -----------------  -----------------  -----------------
         O           -0.798640301646     1.721865664148    -0.410579481272    15.994914619570
         N            1.654746698354     0.475720664148     0.163770518728    14.003074004430
         N           -1.960738301646    -0.190607335852     0.070305518728    14.003074004430
         N            0.732375698354    -1.507890335852    -0.322863481272    14.003074004430
         C            0.486689698354    -0.215124335852    -0.057369481272    12.000000000000
         C           -0.795013501646     0.524036064148    -0.234988681272    12.000000000000
         C            2.679901698354    -0.426667335852     0.045809518728    12.000000000000
         C            1.835074698354     1.897436664148     0.450624518728    12.000000000000
         C           -3.222053301646     0.504529664148    -0.134983481272    12.000000000000
         C           -2.081892301646    -1.545176335852     0.589449518728    12.000000000000
         C            2.089505698354    -1.638265335852    -0.254536481272    12.000000000000
         H            3.710268698354    -0.134421335852     0.193568518728     1.007825032230
         H            1.107911698354     2.219872664148     1.193050518728     1.007825032230
         H            2.847025698354     2.028826664148     0.837099518728     1.007825032230
         H            1.690478698354     2.485208664148    -0.454578481272     1.007825032230
         H           -3.878310301646    -0.114411335852    -0.755007481272     1.007825032230
         H           -3.023100301646     1.453008664148    -0.629439481272     1.007825032230
         H           -3.719224301646     0.692345664148     0.823965518728     1.007825032230
         H           -1.105823301646    -1.946445335852     0.840487518728     1.007825032230
         H           -2.540834301646    -2.197401335852    -0.161492481272     1.007825032230
         H           -2.725392301646    -1.526046335852     1.476720518728     1.007825032230
         H            2.573564698354    -2.591113335852    -0.424959481272     1.007825032230

  Basis Set: AUG-CC-PVTZ
    Blend: AUG-CC-PVTZ
  Basis Set: (AUG-CC-PVTZ AUX)
    Blend: AUG-CC-PVTZ-JKFIT
	 Reference Energy          =    -509.8562207151335315 [Eh]
	 Singles Energy            =      -0.0000000000000000 [Eh]
	 Same-Spin Energy          =      -0.5435311800735885 [Eh]
	 Opposite-Spin Energy      =      -1.6947722813009929 [Eh]
	 Correlation Energy        =      -2.2383034613745814 [Eh]
	 Total Energy              =    -512.0945241765081164 [Eh]

	 ================> DF-SCS-MP2 Energies <==================
	-----------------------------------------------------------
	 SCS Same-Spin Scale       =       0.3333333333333333 [-]
	 SCS Opposite-Spin Scale   =       1.2000000000000000 [-]
	 SCS Same-Spin Energy      =      -0.1811770600245295 [Eh]
	 SCS Opposite-Spin Energy  =      -2.0337267375611914 [Eh]
	 SCS Correlation Energy    =      -2.2149037975857206 [Eh]
	 SCS Total Energy          =    -512.0711245127192797 [Eh]
	-----------------------------------------------------------

  Dipole Moment: [D]
     X:     1.0470      Y:     0.2600      Z:     1.5595     Total:     1.8963

*** Psi4 exiting successfully. Buy a developer a beer!
