                               Psi4 1.3.2 release

  ==> Input File <==

--------------------------------------------------------------------------
#psi4
#
memory 32 gb

molecule  {
0 1
  O       -0.7670850     1.7208920    -0.4354900
  N        1.6863020     0.4747470     0.1388600
  N       -1.9291830    -0.1915810     0.0453950
  N        0.7639310    -1.5088640    -0.3477740
  C        0.5182450    -0.2160980    -0.0822800
  C       -0.7756170     0.5047820    -0.1623390
  C        2.7114570    -0.4276410     0.0208990
  C        1.8666300     1.8964630     0.4257140
  C       -3.1904980     0.5035560    -0.1598940
  C       -2.0503370    -1.5461500     0.5645390
  C        2.1210610    -1.6392390    -0.2794470
  H        3.7266146    -0.1771105     0.3636669
  H        1.1394670     2.2188990     1.1681400
  H        2.8785810     2.0278530     0.8121890
  H        1.7220340     2.4842350    -0.4794890
  H       -3.8467550    -0.1153850    -0.7799180
  H       -2.9915450     1.4520350    -0.6543500
  H       -3.6876690     0.6913720     0.7990550
  H       -1.0742680    -1.9474190     0.8155770
  H       -2.5092790    -2.1983750    -0.1864030
  H       -2.6938370    -1.5270200     1.4518100
  H        2.6051200    -2.5920870    -0.4498700
units angstrom
no_reorient  #important for SAPT in psi4, default
symmetry c1  #important for SAPT in psi4, default
}

set PROPERTIES_ORIGIN ["COM"]
properties('MP2/aug-cc-pvtz', properties = ['dipole'])
--------------------------------------------------------------------------

    Molecular point group: c1
  Charge       = 0
  Multiplicity = 1
  Basis Set: AUG-CC-PVTZ
    Blend: AUG-CC-PVTZ
  Basis Set: (AUG-CC-PVTZ AUX)
    Blend: AUG-CC-PVTZ-JKFIT

    Orbital Energies [Eh]
    ---------------------

    Doubly Occupied:

       1A    -20.517816     2A    -15.633817     3A    -15.592232
       4A    -15.561997     5A    -11.363234     6A    -11.306081
       7A    -11.271901     8A    -11.270640     9A    -11.255681
      10A    -11.252978    11A    -11.252203    12A     -1.380737
      13A     -1.342262    14A     -1.245701    15A     -1.189029
      16A     -1.031831    17A     -0.976618    18A     -0.966884
      19A     -0.938809    20A     -0.832076    21A     -0.809109
      22A     -0.742102    23A     -0.708773    24A     -0.664036
      25A     -0.655397    26A     -0.645427    27A     -0.638078
      28A     -0.604365    29A     -0.591337    30A     -0.574544
      31A     -0.563186    32A     -0.556900    33A     -0.554851
      34A     -0.553142    35A     -0.527448    36A     -0.523519
      37A     -0.450925    38A     -0.428881    39A     -0.391709
      40A     -0.373374    41A     -0.320923

  @DF-RHF Final Energy:  -509.85817241029315

   => Energetics <=

    Nuclear Repulsion Energy =            628.9147138934667964
    One-Electron Energy =               -1941.4246640651360849
    Two-Electron Energy =                 802.6517777613761382
    Total Energy =                       -509.8581724102931503
  Basis Set: (AUG-CC-PVTZ AUX)
    Blend: AUG-CC-PVTZ-RI
    Molecular point group: c1

    Geometry (in Angstrom), charge = 0, multiplicity = 1:

       Center              X                  Y                   Z               Mass
    ------------   -----------------  -----------------  -----------------  -----------------
         O           -0.797587105547     1.723573198037    -0.419510537237    15.994914619570
         N            1.655799894453     0.477428198037     0.154839462763    14.003074004430
         N           -1.959685105547    -0.188899801963     0.061374462763    14.003074004430
         N            0.733428894453    -1.506182801963    -0.331794537237    14.003074004430
         C            0.487742894453    -0.213416801963    -0.066300537237    12.000000000000
         C           -0.806119105547     0.507463198037    -0.146359537237    12.000000000000
         C            2.680954894453    -0.424959801963     0.036878462763    12.000000000000
         C            1.836127894453     1.899144198037     0.441693462763    12.000000000000
         C           -3.221000105547     0.506237198037    -0.143914537237    12.000000000000
         C           -2.080839105547    -1.543468801963     0.580518462763    12.000000000000
         C            2.090558894453    -1.636557801963    -0.263467537237    12.000000000000
         H            3.696112494453    -0.174429301963     0.379646362763     1.007825032230
         H            1.108964894453     2.221580198037     1.184119462763     1.007825032230
         H            2.848078894453     2.030534198037     0.828168462763     1.007825032230
         H            1.691531894453     2.486916198037    -0.463509537237     1.007825032230
         H           -3.877257105547    -0.112703801963    -0.763938537237     1.007825032230
         H           -3.022047105547     1.454716198037    -0.638370537237     1.007825032230
         H           -3.718171105547     0.694053198037     0.815034462763     1.007825032230
         H           -1.104770105547    -1.944737801963     0.831556462763     1.007825032230
         H           -2.539781105547    -2.195693801963    -0.170423537237     1.007825032230
         H           -2.724339105547    -1.524338801963     1.467789462763     1.007825032230
         H            2.574617894453    -2.589405801963    -0.433890537237     1.007825032230

  Basis Set: AUG-CC-PVTZ
    Blend: AUG-CC-PVTZ
  Basis Set: (AUG-CC-PVTZ AUX)
    Blend: AUG-CC-PVTZ-JKFIT
	 Reference Energy          =    -509.8581724102931503 [Eh]
	 Singles Energy            =      -0.0000000000000000 [Eh]
	 Same-Spin Energy          =      -0.5441101559397490 [Eh]
	 Opposite-Spin Energy      =      -1.6958283033900432 [Eh]
	 Correlation Energy        =      -2.2399384593297924 [Eh]
	 Total Energy              =    -512.0981108696229285 [Eh]

	 ================> DF-SCS-MP2 Energies <==================
	-----------------------------------------------------------
	 SCS Same-Spin Scale       =       0.3333333333333333 [-]
	 SCS Opposite-Spin Scale   =       1.2000000000000000 [-]
	 SCS Same-Spin Energy      =      -0.1813700519799163 [Eh]
	 SCS Opposite-Spin Energy  =      -2.0349939640680517 [Eh]
	 SCS Correlation Energy    =      -2.2163640160479678 [Eh]
	 SCS Total Energy          =    -512.0745364263410693 [Eh]
	-----------------------------------------------------------

  Dipole Moment: [D]
     X:     0.6945      Y:    -0.0563      Z:     1.8738     Total:     1.9992

*** Psi4 exiting successfully. Buy a developer a beer!
