                               Psi4 1.3.2 release

  ==> Input File <==

--------------------------------------------------------------------------
#psi4
#
memory 32 gb

molecule  {
0 1
  O       -0.7670850     1.7208920    -0.4354900
  N        1.6863020     0.4747470     0.1388600
  N       -1.9291830    -0.1915810     0.0453950
  N        0.7639310    -1.5088640    -0.3477740
  C        0.5182450    -0.2160980    -0.0822800
  C       -0.7756170     0.5047820    -0.1623390
  C        2.7114570    -0.4276410     0.0208990
  C        1.8666300     1.8964630     0.4257140
  C       -3.1904980     0.5035560    -0.1598940
  C       -2.0503370    -1.5461500     0.5645390
  C        2.1210610    -1.6392390    -0.2794470
  H        3.7342193    -0.1562528     0.2661625
  H        1.1394670     2.2188990     1.1681400
  H        2.8785810     2.0278530     0.8121890
  H        1.7220340     2.4842350    -0.4794890
  H       -3.8467550    -0.1153850    -0.7799180
  H       -2.9915450     1.4520350    -0.6543500
  H       -3.6876690     0.6913720     0.7990550
  H       -1.0742680    -1.9474190     0.8155770
  H       -2.5092790    -2.1983750    -0.1864030
  H       -2.6938370    -1.5270200     1.4518100
  H        2.6051200    -2.5920870    -0.4498700
units angstrom
no_reorient  #important for SAPT in psi4, default
symmetry c1  #important for SAPT in psi4, default
}

set PROPERTIES_ORIGIN ["COM"]
properties('MP2/aug-cc-pvtz', properties = ['dipole'])
--------------------------------------------------------------------------

    Molecular point group: c1
  Charge       = 0
  Multiplicity = 1
  Basis Set: AUG-CC-PVTZ
    Blend: AUG-CC-PVTZ
  Basis Set: (AUG-CC-PVTZ AUX)
    Blend: AUG-CC-PVTZ-JKFIT

    Orbital Energies [Eh]
    ---------------------

    Doubly Occupied:

       1A    -20.517693     2A    -15.633797     3A    -15.592104
       4A    -15.561738     5A    -11.363086     6A    -11.305622
       7A    -11.271995     8A    -11.269727     9A    -11.255470
      10A    -11.252869    11A    -11.251668    12A     -1.380599
      13A     -1.342110    14A     -1.245557    15A     -1.188865
      16A     -1.031965    17A     -0.976612    18A     -0.966749
      19A     -0.938826    20A     -0.831948    21A     -0.810387
      22A     -0.741979    23A     -0.709435    24A     -0.663417
      25A     -0.655327    26A     -0.645746    27A     -0.639227
      28A     -0.605213    29A     -0.592137    30A     -0.574404
      31A     -0.563578    32A     -0.556961    33A     -0.554916
      34A     -0.553085    35A     -0.527335    36A     -0.523242
      37A     -0.450800    38A     -0.428822    39A     -0.391572
      40A     -0.373228    41A     -0.320728

  @DF-RHF Final Energy:  -509.85989957509366

   => Energetics <=

    Nuclear Repulsion Energy =            628.9694052687239036
    One-Electron Energy =               -1941.5375334854300036
    Two-Electron Energy =                 802.7082286416124361
    Total Energy =                       -509.8598995750936638
  Basis Set: (AUG-CC-PVTZ AUX)
    Blend: AUG-CC-PVTZ-RI
    Molecular point group: c1

    Geometry (in Angstrom), charge = 0, multiplicity = 1:

       Center              X                  Y                   Z               Mass
    ------------   -----------------  -----------------  -----------------  -----------------
         O           -0.797637168885     1.723435887416    -0.418868645285    15.994914619570
         N            1.655749831115     0.477290887416     0.155481354715    14.003074004430
         N           -1.959735168885    -0.189037112584     0.062016354715    14.003074004430
         N            0.733378831115    -1.506320112584    -0.331152645285    14.003074004430
         C            0.487692831115    -0.213554112584    -0.065658645285    12.000000000000
         C           -0.806169168885     0.507325887416    -0.145717645285    12.000000000000
         C            2.680904831115    -0.425097112584     0.037520354715    12.000000000000
         C            1.836077831115     1.899006887416     0.442335354715    12.000000000000
         C           -3.221050168885     0.506099887416    -0.143272645285    12.000000000000
         C           -2.080889168885    -1.543606112584     0.581160354715    12.000000000000
         C            2.090508831115    -1.636695112584    -0.262825645285    12.000000000000
         H            3.703667131115    -0.153708912584     0.282783854715     1.007825032230
         H            1.108914831115     2.221442887416     1.184761354715     1.007825032230
         H            2.848028831115     2.030396887416     0.828810354715     1.007825032230
         H            1.691481831115     2.486778887416    -0.462867645285     1.007825032230
         H           -3.877307168885    -0.112841112584    -0.763296645285     1.007825032230
         H           -3.022097168885     1.454578887416    -0.637728645285     1.007825032230
         H           -3.718221168885     0.693915887416     0.815676354715     1.007825032230
         H           -1.104820168885    -1.944875112584     0.832198354715     1.007825032230
         H           -2.539831168885    -2.195831112584    -0.169781645285     1.007825032230
         H           -2.724389168885    -1.524476112584     1.468431354715     1.007825032230
         H            2.574567831115    -2.589543112584    -0.433248645285     1.007825032230

  Basis Set: AUG-CC-PVTZ
    Blend: AUG-CC-PVTZ
  Basis Set: (AUG-CC-PVTZ AUX)
    Blend: AUG-CC-PVTZ-JKFIT
	 Reference Energy          =    -509.8598995750936638 [Eh]
	 Singles Energy            =      -0.0000000000000000 [Eh]
	 Same-Spin Energy          =      -0.5439922149112701 [Eh]
	 Opposite-Spin Energy      =      -1.6955728018243281 [Eh]
	 Correlation Energy        =      -2.2395650167355985 [Eh]
	 Total Energy              =    -512.0994645918292463 [Eh]

	 ================> DF-SCS-MP2 Energies <==================
	-----------------------------------------------------------
	 SCS Same-Spin Scale       =       0.3333333333333333 [-]
	 SCS Opposite-Spin Scale   =       1.2000000000000000 [-]
	 SCS Same-Spin Energy      =      -0.1813307383037567 [Eh]
	 SCS Opposite-Spin Energy  =      -2.0346873621891937 [Eh]
	 SCS Correlation Energy    =      -2.2160181004929504 [Eh]
	 SCS Total Energy          =    -512.0759176755866520 [Eh]
	-----------------------------------------------------------

  Dipole Moment: [D]
     X:     0.7292      Y:    -0.0270      Z:     1.7978     Total:     1.9403

*** Psi4 exiting successfully. Buy a developer a beer!
