                               Psi4 1.3.2 release

  ==> Input File <==

--------------------------------------------------------------------------
#psi4
#
memory 32 gb

molecule  {
0 1
  O       -0.7670850     1.7208920    -0.4354900
  N        1.6863020     0.4747470     0.1388600
  N       -1.9291830    -0.1915810     0.0453950
  N        0.7639310    -1.5088640    -0.3477740
  C        0.5182450    -0.2160980    -0.0822800
  C       -0.7756170     0.5047820    -0.1623390
  C        2.7114570    -0.4276410     0.0208990
  C        1.8666300     1.8964630     0.4257140
  C       -3.1904980     0.5035560    -0.1598940
  C       -2.0503370    -1.5461500     0.5645390
  C        2.1210610    -1.6392390    -0.2794470
  H        3.7190099    -0.1979683     0.4611714
  H        1.1394670     2.2188990     1.1681400
  H        2.8785810     2.0278530     0.8121890
  H        1.7220340     2.4842350    -0.4794890
  H       -3.8467550    -0.1153850    -0.7799180
  H       -2.9915450     1.4520350    -0.6543500
  H       -3.6876690     0.6913720     0.7990550
  H       -1.0742680    -1.9474190     0.8155770
  H       -2.5092790    -2.1983750    -0.1864030
  H       -2.6938370    -1.5270200     1.4518100
  H        2.6051200    -2.5920870    -0.4498700
units angstrom
no_reorient  #important for SAPT in psi4, default
symmetry c1  #important for SAPT in psi4, default
}

set PROPERTIES_ORIGIN ["COM"]
properties('MP2/aug-cc-pvtz', properties = ['dipole'])
--------------------------------------------------------------------------

    Molecular point group: c1
  Charge       = 0
  Multiplicity = 1
  Basis Set: AUG-CC-PVTZ
    Blend: AUG-CC-PVTZ
  Basis Set: (AUG-CC-PVTZ AUX)
    Blend: AUG-CC-PVTZ-JKFIT

    Orbital Energies [Eh]
    ---------------------

    Doubly Occupied:

       1A    -20.518056     2A    -15.633855     3A    -15.592470
       4A    -15.562366     5A    -11.363497     6A    -11.306795
       7A    -11.272077     8A    -11.271738     9A    -11.255978
      10A    -11.253162    11A    -11.253001    12A     -1.380981
      13A     -1.342496    14A     -1.245946    15A     -1.189274
      16A     -1.031625    17A     -0.976625    18A     -0.967092
      19A     -0.938797    20A     -0.832293    21A     -0.807189
      22A     -0.742292    23A     -0.707911    24A     -0.664390
      25A     -0.655592    26A     -0.645094    27A     -0.636654
      28A     -0.603227    29A     -0.589733    30A     -0.574749
      31A     -0.562708    32A     -0.556921    33A     -0.554604
      34A     -0.553101    35A     -0.527631    36A     -0.523778
      37A     -0.451091    38A     -0.429035    39A     -0.391883
      40A     -0.373605    41A     -0.321200

  @DF-RHF Final Energy:  -509.85493082519662

   => Energetics <=

    Nuclear Repulsion Energy =            628.8271408214361600
    One-Electron Energy =               -1941.2431260143257532
    Two-Electron Energy =                 802.5610543676930320
    Total Energy =                       -509.8549308251965613
  Basis Set: (AUG-CC-PVTZ AUX)
    Blend: AUG-CC-PVTZ-RI
    Molecular point group: c1

    Geometry (in Angstrom), charge = 0, multiplicity = 1:

       Center              X                  Y                   Z               Mass
    ------------   -----------------  -----------------  -----------------  -----------------
         O           -0.797537042209     1.723710509317    -0.420152429848    15.994914619570
         N            1.655849957791     0.477565509317     0.154197570152    14.003074004430
         N           -1.959635042209    -0.188762490683     0.060732570152    14.003074004430
         N            0.733478957791    -1.506045490683    -0.332436429848    14.003074004430
         C            0.487792957791    -0.213279490683    -0.066942429848    12.000000000000
         C           -0.806069042209     0.507600509317    -0.147001429848    12.000000000000
         C            2.681004957791    -0.424822490683     0.036236570152    12.000000000000
         C            1.836177957791     1.899281509317     0.441051570152    12.000000000000
         C           -3.220950042209     0.506374509317    -0.144556429848    12.000000000000
         C           -2.080789042209    -1.543331490683     0.579876570152    12.000000000000
         C            2.090608957791    -1.636420490683    -0.264109429848    12.000000000000
         H            3.688557857791    -0.195149790683     0.476508970152     1.007825032230
         H            1.109014957791     2.221717509317     1.183477570152     1.007825032230
         H            2.848128957791     2.030671509317     0.827526570152     1.007825032230
         H            1.691581957791     2.487053509317    -0.464151429848     1.007825032230
         H           -3.877207042209    -0.112566490683    -0.764580429848     1.007825032230
         H           -3.021997042209     1.454853509317    -0.639012429848     1.007825032230
         H           -3.718121042209     0.694190509317     0.814392570152     1.007825032230
         H           -1.104720042209    -1.944600490683     0.830914570152     1.007825032230
         H           -2.539731042209    -2.195556490683    -0.171065429848     1.007825032230
         H           -2.724289042209    -1.524201490683     1.467147570152     1.007825032230
         H            2.574667957791    -2.589268490683    -0.434532429848     1.007825032230

  Basis Set: AUG-CC-PVTZ
    Blend: AUG-CC-PVTZ
  Basis Set: (AUG-CC-PVTZ AUX)
    Blend: AUG-CC-PVTZ-JKFIT
	 Reference Energy          =    -509.8549308251966181 [Eh]
	 Singles Energy            =      -0.0000000000000000 [Eh]
	 Same-Spin Energy          =      -0.5442988683878803 [Eh]
	 Opposite-Spin Energy      =      -1.6962798644831292 [Eh]
	 Correlation Energy        =      -2.2405787328710094 [Eh]
	 Total Energy              =    -512.0955095580676470 [Eh]

	 ================> DF-SCS-MP2 Energies <==================
	-----------------------------------------------------------
	 SCS Same-Spin Scale       =       0.3333333333333333 [-]
	 SCS Opposite-Spin Scale   =       1.2000000000000000 [-]
	 SCS Same-Spin Energy      =      -0.1814329561292934 [Eh]
	 SCS Opposite-Spin Energy  =      -2.0355358373797547 [Eh]
	 SCS Correlation Energy    =      -2.2169687935090483 [Eh]
	 SCS Total Energy          =    -512.0718996187056291 [Eh]
	-----------------------------------------------------------

  Dipole Moment: [D]
     X:     0.6414      Y:    -0.0899      Z:     1.9444     Total:     2.0494

*** Psi4 exiting successfully. Buy a developer a beer!
