                               Psi4 1.3.2 release

  ==> Input File <==

--------------------------------------------------------------------------
#psi4
#
memory 32 gb

molecule  {
0 1
  O       -0.7670850     1.7208920    -0.4354900
  N        1.6863020     0.4747470     0.1388600
  N       -1.9291830    -0.1915810     0.0453950
  N        0.7639310    -1.5088640    -0.3477740
  C        0.5182450    -0.2160980    -0.0822800
  C       -0.7756170     0.5047820    -0.1623390
  C        2.7114570    -0.4276410     0.0208990
  C        1.8666300     1.8964630     0.4257140
  C       -3.1904980     0.5035560    -0.1598940
  C       -2.0503370    -1.5461500     0.5645390
  C        2.1210610    -1.6392390    -0.2794470
  H        3.7228122    -0.1875394     0.4124192
  H        1.1394670     2.2188990     1.1681400
  H        2.8785810     2.0278530     0.8121890
  H        1.7220340     2.4842350    -0.4794890
  H       -3.8467550    -0.1153850    -0.7799180
  H       -2.9915450     1.4520350    -0.6543500
  H       -3.6876690     0.6913720     0.7990550
  H       -1.0742680    -1.9474190     0.8155770
  H       -2.5092790    -2.1983750    -0.1864030
  H       -2.6938370    -1.5270200     1.4518100
  H        2.6051200    -2.5920870    -0.4498700
units angstrom
no_reorient  #important for SAPT in psi4, default
symmetry c1  #important for SAPT in psi4, default
}

set PROPERTIES_ORIGIN ["COM"]
properties('MP2/aug-cc-pvtz', properties = ['dipole'])
--------------------------------------------------------------------------

    Molecular point group: c1
  Charge       = 0
  Multiplicity = 1
  Basis Set: AUG-CC-PVTZ
    Blend: AUG-CC-PVTZ
  Basis Set: (AUG-CC-PVTZ AUX)
    Blend: AUG-CC-PVTZ-JKFIT

    Orbital Energies [Eh]
    ---------------------

    Doubly Occupied:

       1A    -20.517921     2A    -15.633832     3A    -15.592338
       4A    -15.562168     5A    -11.363351     6A    -11.306407
       7A    -11.271828     8A    -11.271295     9A    -11.255819
      10A    -11.253061    11A    -11.252570    12A     -1.380846
      13A     -1.342369    14A     -1.245811    15A     -1.189141
      16A     -1.031734    17A     -0.976621    18A     -0.966979
      19A     -0.938801    20A     -0.832172    21A     -0.808214
      22A     -0.742189    23A     -0.708359    24A     -0.664245
      25A     -0.655480    26A     -0.645256    27A     -0.637388
      28A     -0.603816    29A     -0.590654    30A     -0.574639
      31A     -0.562959    32A     -0.556898    33A     -0.554748
      34A     -0.553152    35A     -0.527531    36A     -0.523651
      37A     -0.451004    38A     -0.428947    39A     -0.391791
      40A     -0.373479    41A     -0.321051

  @DF-RHF Final Energy:  -509.85676480321717

   => Energetics <=

    Nuclear Repulsion Energy =            628.8747960286650596
    One-Electron Energy =               -1941.3420920779394692
    Two-Electron Energy =                 802.6105312460572350
    Total Energy =                       -509.8567648032171746
  Basis Set: (AUG-CC-PVTZ AUX)
    Blend: AUG-CC-PVTZ-RI
    Molecular point group: c1

    Geometry (in Angstrom), charge = 0, multiplicity = 1:

       Center              X                  Y                   Z               Mass
    ------------   -----------------  -----------------  -----------------  -----------------
         O           -0.797562073549     1.723641853677    -0.419831483872    15.994914619570
         N            1.655824926451     0.477496853677     0.154518516128    14.003074004430
         N           -1.959660073549    -0.188831146323     0.061053516128    14.003074004430
         N            0.733453926451    -1.506114146323    -0.332115483872    14.003074004430
         C            0.487767926451    -0.213348146323    -0.066621483872    12.000000000000
         C           -0.806094073549     0.507531853677    -0.146680483872    12.000000000000
         C            2.680979926451    -0.424891146323     0.036557516128    12.000000000000
         C            1.836152926451     1.899212853677     0.441372516128    12.000000000000
         C           -3.220975073549     0.506305853677    -0.144235483872    12.000000000000
         C           -2.080814073549    -1.543400146323     0.580197516128    12.000000000000
         C            2.090583926451    -1.636489146323    -0.263788483872    12.000000000000
         H            3.692335126451    -0.184789546323     0.428077716128     1.007825032230
         H            1.108989926451     2.221648853677     1.183798516128     1.007825032230
         H            2.848103926451     2.030602853677     0.827847516128     1.007825032230
         H            1.691556926451     2.486984853677    -0.463830483872     1.007825032230
         H           -3.877232073549    -0.112635146323    -0.764259483872     1.007825032230
         H           -3.022022073549     1.454784853677    -0.638691483872     1.007825032230
         H           -3.718146073549     0.694121853677     0.814713516128     1.007825032230
         H           -1.104745073549    -1.944669146323     0.831235516128     1.007825032230
         H           -2.539756073549    -2.195625146323    -0.170744483872     1.007825032230
         H           -2.724314073549    -1.524270146323     1.467468516128     1.007825032230
         H            2.574642926451    -2.589337146323    -0.434211483872     1.007825032230

  Basis Set: AUG-CC-PVTZ
    Blend: AUG-CC-PVTZ
  Basis Set: (AUG-CC-PVTZ AUX)
    Blend: AUG-CC-PVTZ-JKFIT
	 Reference Energy          =    -509.8567648032171746 [Eh]
	 Singles Energy            =      -0.0000000000000000 [Eh]
	 Same-Spin Energy          =      -0.5441961512661746 [Eh]
	 Opposite-Spin Energy      =      -1.6960288995390398 [Eh]
	 Correlation Energy        =      -2.2402250508052144 [Eh]
	 Total Energy              =    -512.0969898540223539 [Eh]

	 ================> DF-SCS-MP2 Energies <==================
	-----------------------------------------------------------
	 SCS Same-Spin Scale       =       0.3333333333333333 [-]
	 SCS Opposite-Spin Scale   =       1.2000000000000000 [-]
	 SCS Same-Spin Energy      =      -0.1813987170887248 [Eh]
	 SCS Opposite-Spin Energy  =      -2.0352346794468477 [Eh]
	 SCS Correlation Energy    =      -2.2166333965355727 [Eh]
	 SCS Total Energy          =    -512.0733981997527735 [Eh]
	-----------------------------------------------------------

  Dipole Moment: [D]
     X:     0.6701      Y:    -0.0726      Z:     1.9098     Total:     2.0253

*** Psi4 exiting successfully. Buy a developer a beer!
