                               Psi4 1.3.2 release

  ==> Input File <==

--------------------------------------------------------------------------
#psi4
#
memory 32 gb

molecule  {
0 1
  O       -0.7670850     1.7208920    -0.4354900
  N        1.6863020     0.4747470     0.1388600
  N       -1.9291830    -0.1915810     0.0453950
  N        0.7639310    -1.5088640    -0.3477740
  C        0.5315021    -0.1628262     0.1616183
  C       -0.7756170     0.5047820    -0.1623390
  C        2.7114570    -0.4276410     0.0208990
  C        1.8666300     1.8964630     0.4257140
  C       -3.1904980     0.5035560    -0.1598940
  C       -2.0503370    -1.5461500     0.5645390
  C        2.1210610    -1.6392390    -0.2794470
  H        3.7418240    -0.1353950     0.1686580
  H        1.1394670     2.2188990     1.1681400
  H        2.8785810     2.0278530     0.8121890
  H        1.7220340     2.4842350    -0.4794890
  H       -3.8467550    -0.1153850    -0.7799180
  H       -2.9915450     1.4520350    -0.6543500
  H       -3.6876690     0.6913720     0.7990550
  H       -1.0742680    -1.9474190     0.8155770
  H       -2.5092790    -2.1983750    -0.1864030
  H       -2.6938370    -1.5270200     1.4518100
  H        2.6051200    -2.5920870    -0.4498700
units angstrom
no_reorient  #important for SAPT in psi4, default
symmetry c1  #important for SAPT in psi4, default
}

set PROPERTIES_ORIGIN ["COM"]
properties('MP2/aug-cc-pvtz', properties = ['dipole'])
--------------------------------------------------------------------------

    Molecular point group: c1
  Charge       = 0
  Multiplicity = 1
  Basis Set: AUG-CC-PVTZ
    Blend: AUG-CC-PVTZ
  Basis Set: (AUG-CC-PVTZ AUX)
    Blend: AUG-CC-PVTZ-JKFIT

    Orbital Energies [Eh]
    ---------------------

    Doubly Occupied:

       1A    -20.514957     2A    -15.646947     3A    -15.589336
       4A    -15.566237     5A    -11.363438     6A    -11.305208
       7A    -11.275322     8A    -11.269765     9A    -11.257718
      10A    -11.252149    11A    -11.251022    12A     -1.380203
      13A     -1.347275    14A     -1.242446    15A     -1.173948
      16A     -1.030572    17A     -0.980911    18A     -0.964527
      19A     -0.939882    20A     -0.828366    21A     -0.807225
      22A     -0.741108    23A     -0.708304    24A     -0.668441
      25A     -0.654106    26A     -0.647299    27A     -0.639071
      28A     -0.604411    29A     -0.590037    30A     -0.571738
      31A     -0.564540    32A     -0.553088    33A     -0.551222
      34A     -0.550766    35A     -0.524786    36A     -0.519699
      37A     -0.442488    38A     -0.429759    39A     -0.386161
      40A     -0.370862    41A     -0.318852

  @DF-RHF Final Energy:  -509.82687134265092

   => Energetics <=

    Nuclear Repulsion Energy =            628.2109793335002905
    One-Electron Energy =               -1940.0273175081281352
    Two-Electron Energy =                 801.9894668319768698
    Total Energy =                       -509.8268713426509748
  Basis Set: (AUG-CC-PVTZ AUX)
    Blend: AUG-CC-PVTZ-RI
    Molecular point group: c1

    Geometry (in Angstrom), charge = 0, multiplicity = 1:

       Center              X                  Y                   Z               Mass
    ------------   -----------------  -----------------  -----------------  -----------------
         O           -0.798726392062     1.719122857834    -0.437344758731    15.994914619570
         N            1.654660607938     0.472977857834     0.137005241269    14.003074004430
         N           -1.960824392062    -0.193350142166     0.043540241269    14.003074004430
         N            0.732289607938    -1.510633142166    -0.349628758731    14.003074004430
         C            0.499860707938    -0.164595342166     0.159763541269    12.000000000000
         C           -0.807258392062     0.503012857834    -0.164193758731    12.000000000000
         C            2.679815607938    -0.429410142166     0.019044241269    12.000000000000
         C            1.834988607938     1.894693857834     0.423859241269    12.000000000000
         C           -3.222139392062     0.501786857834    -0.161748758731    12.000000000000
         C           -2.081978392062    -1.547919142166     0.562684241269    12.000000000000
         C            2.089419607938    -1.641008142166    -0.281301758731    12.000000000000
         H            3.710182607938    -0.137164142166     0.166803241269     1.007825032230
         H            1.107825607938     2.217129857834     1.166285241269     1.007825032230
         H            2.846939607938     2.026083857834     0.810334241269     1.007825032230
         H            1.690392607938     2.482465857834    -0.481343758731     1.007825032230
         H           -3.878396392062    -0.117154142166    -0.781772758731     1.007825032230
         H           -3.023186392062     1.450265857834    -0.656204758731     1.007825032230
         H           -3.719310392062     0.689602857834     0.797200241269     1.007825032230
         H           -1.105909392062    -1.949188142166     0.813722241269     1.007825032230
         H           -2.540920392062    -2.200144142166    -0.188257758731     1.007825032230
         H           -2.725478392062    -1.528789142166     1.449955241269     1.007825032230
         H            2.573478607938    -2.593856142166    -0.451724758731     1.007825032230

  Basis Set: AUG-CC-PVTZ
    Blend: AUG-CC-PVTZ
  Basis Set: (AUG-CC-PVTZ AUX)
    Blend: AUG-CC-PVTZ-JKFIT
	 Reference Energy          =    -509.8268713426509180 [Eh]
	 Singles Energy            =      -0.0000000000000000 [Eh]
	 Same-Spin Energy          =      -0.5469483335466184 [Eh]
	 Opposite-Spin Energy      =      -1.7016986912370193 [Eh]
	 Correlation Energy        =      -2.2486470247836379 [Eh]
	 Total Energy              =    -512.0755183674345972 [Eh]

	 ================> DF-SCS-MP2 Energies <==================
	-----------------------------------------------------------
	 SCS Same-Spin Scale       =       0.3333333333333333 [-]
	 SCS Opposite-Spin Scale   =       1.2000000000000000 [-]
	 SCS Same-Spin Energy      =      -0.1823161111822061 [Eh]
	 SCS Opposite-Spin Energy  =      -2.0420384294844229 [Eh]
	 SCS Correlation Energy    =      -2.2243545406666292 [Eh]
	 SCS Total Energy          =    -512.0512258833175565 [Eh]
	-----------------------------------------------------------

  Dipole Moment: [D]
     X:     1.0815      Y:     0.0581      Z:     1.7653     Total:     2.0711

*** Psi4 exiting successfully. Buy a developer a beer!
