                               Psi4 1.3.2 release

  ==> Input File <==

--------------------------------------------------------------------------
#psi4
#
memory 32 gb

molecule  {
0 1
  O       -0.7670850     1.7208920    -0.4354900
  N        1.6863020     0.4747470     0.1388600
  N       -1.9291830    -0.1915810     0.0453950
  N        0.7639310    -1.5088640    -0.3477740
  C        0.5182450    -0.2160980    -0.0822800
  C       -0.7452199     0.5504829    -0.4062395
  C        2.7114570    -0.4276410     0.0208990
  C        1.8666300     1.8964630     0.4257140
  C       -3.1904980     0.5035560    -0.1598940
  C       -2.0503370    -1.5461500     0.5645390
  C        2.1210610    -1.6392390    -0.2794470
  H        3.7418240    -0.1353950     0.1686580
  H        1.1394670     2.2188990     1.1681400
  H        2.8785810     2.0278530     0.8121890
  H        1.7220340     2.4842350    -0.4794890
  H       -3.8467550    -0.1153850    -0.7799180
  H       -2.9915450     1.4520350    -0.6543500
  H       -3.6876690     0.6913720     0.7990550
  H       -1.0742680    -1.9474190     0.8155770
  H       -2.5092790    -2.1983750    -0.1864030
  H       -2.6938370    -1.5270200     1.4518100
  H        2.6051200    -2.5920870    -0.4498700
units angstrom
no_reorient  #important for SAPT in psi4, default
symmetry c1  #important for SAPT in psi4, default
}

set PROPERTIES_ORIGIN ["COM"]
properties('MP2/aug-cc-pvtz', properties = ['dipole'])
--------------------------------------------------------------------------

    Molecular point group: c1
  Charge       = 0
  Multiplicity = 1
  Basis Set: AUG-CC-PVTZ
    Blend: AUG-CC-PVTZ
  Basis Set: (AUG-CC-PVTZ AUX)
    Blend: AUG-CC-PVTZ-JKFIT

    Orbital Energies [Eh]
    ---------------------

    Doubly Occupied:

       1A    -20.543268     2A    -15.635271     3A    -15.571499
       4A    -15.562237     5A    -11.370712     6A    -11.305439
       7A    -11.276735     8A    -11.271542     9A    -11.252871
      10A    -11.245143    11A    -11.242058    12A     -1.432480
      13A     -1.348704    14A     -1.218343    15A     -1.189403
      16A     -1.029538    17A     -0.976871    18A     -0.954850
      19A     -0.913147    20A     -0.826339    21A     -0.808519
      22A     -0.743369    23A     -0.704770    24A     -0.677160
      25A     -0.656206    26A     -0.641054    27A     -0.632502
      28A     -0.606437    29A     -0.596293    30A     -0.584733
      31A     -0.565378    32A     -0.562473    33A     -0.550416
      34A     -0.544459    35A     -0.538508    36A     -0.518736
      37A     -0.455860    38A     -0.427641    39A     -0.392747
      40A     -0.359286    41A     -0.321230

  @DF-RHF Final Energy:  -509.82768655664722

   => Energetics <=

    Nuclear Repulsion Energy =            628.0884145507039875
    One-Electron Energy =               -1939.7237517116282106
    Two-Electron Energy =                 801.8076506042771143
    Total Energy =                       -509.8276865566472225
  Basis Set: (AUG-CC-PVTZ AUX)
    Blend: AUG-CC-PVTZ-RI
    Molecular point group: c1

    Geometry (in Angstrom), charge = 0, multiplicity = 1:

       Center              X                  Y                   Z               Mass
    ------------   -----------------  -----------------  -----------------  -----------------
         O           -0.800069913619     1.719716304004    -0.399108574170    15.994914619570
         N            1.653317086381     0.473571304004     0.175241425830    14.003074004430
         N           -1.962167913619    -0.192756695996     0.081776425830    14.003074004430
         N            0.730946086381    -1.510039695996    -0.311392574170    14.003074004430
         C            0.485260086381    -0.217273695996    -0.045898574170    12.000000000000
         C           -0.778204813619     0.549307204004    -0.369858074170    12.000000000000
         C            2.678472086381    -0.428816695996     0.057280425830    12.000000000000
         C            1.833645086381     1.895287304004     0.462095425830    12.000000000000
         C           -3.223482913619     0.502380304004    -0.123512574170    12.000000000000
         C           -2.083321913619    -1.547325695996     0.600920425830    12.000000000000
         C            2.088076086381    -1.640414695996    -0.243065574170    12.000000000000
         H            3.708839086381    -0.136570695996     0.205039425830     1.007825032230
         H            1.106482086381     2.217723304004     1.204521425830     1.007825032230
         H            2.845596086381     2.026677304004     0.848570425830     1.007825032230
         H            1.689049086381     2.483059304004    -0.443107574170     1.007825032230
         H           -3.879739913619    -0.116560695996    -0.743536574170     1.007825032230
         H           -3.024529913619     1.450859304004    -0.617968574170     1.007825032230
         H           -3.720653913619     0.690196304004     0.835436425830     1.007825032230
         H           -1.107252913619    -1.948594695996     0.851958425830     1.007825032230
         H           -2.542263913619    -2.199550695996    -0.150021574170     1.007825032230
         H           -2.726821913619    -1.528195695996     1.488191425830     1.007825032230
         H            2.572135086381    -2.593262695996    -0.413488574170     1.007825032230

  Basis Set: AUG-CC-PVTZ
    Blend: AUG-CC-PVTZ
  Basis Set: (AUG-CC-PVTZ AUX)
    Blend: AUG-CC-PVTZ-JKFIT
	 Reference Energy          =    -509.8276865566472225 [Eh]
	 Singles Energy            =      -0.0000000000000000 [Eh]
	 Same-Spin Energy          =      -0.5439550902415921 [Eh]
	 Opposite-Spin Energy      =      -1.6963586349125892 [Eh]
	 Correlation Energy        =      -2.2403137251541811 [Eh]
	 Total Energy              =    -512.0680002818014600 [Eh]

	 ================> DF-SCS-MP2 Energies <==================
	-----------------------------------------------------------
	 SCS Same-Spin Scale       =       0.3333333333333333 [-]
	 SCS Opposite-Spin Scale   =       1.2000000000000000 [-]
	 SCS Same-Spin Energy      =      -0.1813183634138640 [Eh]
	 SCS Opposite-Spin Energy  =      -2.0356303618951070 [Eh]
	 SCS Correlation Energy    =      -2.2169487253089710 [Eh]
	 SCS Total Energy          =    -512.0446352819561753 [Eh]
	-----------------------------------------------------------

  Dipole Moment: [D]
     X:     1.4772      Y:     0.6656      Z:     1.2969     Total:     2.0754

*** Psi4 exiting successfully. Buy a developer a beer!
