                               Psi4 1.3.2 release

  ==> Input File <==

--------------------------------------------------------------------------
#psi4
#
memory 32 gb

molecule  {
0 1
  O       -0.7670850     1.7208920    -0.4354900
  N        1.6863020     0.4747470     0.1388600
  N       -1.9291830    -0.1915810     0.0453950
  N        0.7639310    -1.5088640    -0.3477740
  C        0.5182450    -0.2160980    -0.0822800
  C       -0.7756170     0.5047820    -0.1623390
  C        2.7114570    -0.4276410     0.0208990
  C        1.8666300     1.8964630     0.4257140
  C       -3.1904980     0.5035560    -0.1598940
  C       -2.0503370    -1.5461500     0.5645390
  C        2.1210610    -1.6392390    -0.2794470
  H        3.7304169    -0.1666816     0.3149147
  H        1.1394670     2.2188990     1.1681400
  H        2.8785810     2.0278530     0.8121890
  H        1.7220340     2.4842350    -0.4794890
  H       -3.8467550    -0.1153850    -0.7799180
  H       -2.9915450     1.4520350    -0.6543500
  H       -3.6876690     0.6913720     0.7990550
  H       -1.0742680    -1.9474190     0.8155770
  H       -2.5092790    -2.1983750    -0.1864030
  H       -2.6938370    -1.5270200     1.4518100
  H        2.6051200    -2.5920870    -0.4498700
units angstrom
no_reorient  #important for SAPT in psi4, default
symmetry c1  #important for SAPT in psi4, default
}

set PROPERTIES_ORIGIN ["COM"]
properties('MP2/aug-cc-pvtz', properties = ['dipole'])
--------------------------------------------------------------------------

    Molecular point group: c1
  Charge       = 0
  Multiplicity = 1
  Basis Set: AUG-CC-PVTZ
    Blend: AUG-CC-PVTZ
  Basis Set: (AUG-CC-PVTZ AUX)
    Blend: AUG-CC-PVTZ-JKFIT

    Orbital Energies [Eh]
    ---------------------

    Doubly Occupied:

       1A    -20.517740     2A    -15.633806     3A    -15.592154
       4A    -15.561853     5A    -11.363145     6A    -11.305818
       7A    -11.271957     8A    -11.270116     9A    -11.255564
      10A    -11.252914    11A    -11.251902    12A     -1.380654
      13A     -1.342176    14A     -1.245616    15A     -1.188937
      16A     -1.031910    17A     -0.976615    18A     -0.966807
      19A     -0.938818    20A     -0.832002    21A     -0.809842
      22A     -0.742032    23A     -0.709138    24A     -0.663759
      25A     -0.655346    26A     -0.645596    27A     -0.638698
      28A     -0.604840    29A     -0.591820    30A     -0.574465
      31A     -0.563391    32A     -0.556923    33A     -0.554906
      34A     -0.553114    35A     -0.527382    36A     -0.523383
      37A     -0.450857    38A     -0.428839    39A     -0.391636
      40A     -0.373290    41A     -0.320816

  @DF-RHF Final Energy:  -509.85920230823911

   => Energetics <=

    Nuclear Repulsion Energy =            628.9463909391854486
    One-Electron Energy =               -1941.4900340456113099
    Two-Electron Energy =                 802.6844407981867562
    Total Energy =                       -509.8592023082391052
  Basis Set: (AUG-CC-PVTZ AUX)
    Blend: AUG-CC-PVTZ-RI
    Molecular point group: c1

    Geometry (in Angstrom), charge = 0, multiplicity = 1:

       Center              X                  Y                   Z               Mass
    ------------   -----------------  -----------------  -----------------  -----------------
         O           -0.797612136887     1.723504542397    -0.419189591261    15.994914619570
         N            1.655774863113     0.477359542397     0.155160408739    14.003074004430
         N           -1.959710136887    -0.188968457603     0.061695408739    14.003074004430
         N            0.733403863113    -1.506251457603    -0.331473591261    14.003074004430
         C            0.487717863113    -0.213485457603    -0.065979591261    12.000000000000
         C           -0.806144136887     0.507394542397    -0.146038591261    12.000000000000
         C            2.680929863113    -0.425028457603     0.037199408739    12.000000000000
         C            1.836102863113     1.899075542397     0.442014408739    12.000000000000
         C           -3.221025136887     0.506168542397    -0.143593591261    12.000000000000
         C           -2.080864136887    -1.543537457603     0.580839408739    12.000000000000
         C            2.090533863113    -1.636626457603    -0.263146591261    12.000000000000
         H            3.699889763113    -0.164069057603     0.331215108739     1.007825032230
         H            1.108939863113     2.221511542397     1.184440408739     1.007825032230
         H            2.848053863113     2.030465542397     0.828489408739     1.007825032230
         H            1.691506863113     2.486847542397    -0.463188591261     1.007825032230
         H           -3.877282136887    -0.112772457603    -0.763617591261     1.007825032230
         H           -3.022072136887     1.454647542397    -0.638049591261     1.007825032230
         H           -3.718196136887     0.693984542397     0.815355408739     1.007825032230
         H           -1.104795136887    -1.944806457603     0.831877408739     1.007825032230
         H           -2.539806136887    -2.195762457603    -0.170102591261     1.007825032230
         H           -2.724364136887    -1.524407457603     1.468110408739     1.007825032230
         H            2.574592863113    -2.589474457603    -0.433569591261     1.007825032230

  Basis Set: AUG-CC-PVTZ
    Blend: AUG-CC-PVTZ
  Basis Set: (AUG-CC-PVTZ AUX)
    Blend: AUG-CC-PVTZ-JKFIT
	 Reference Energy          =    -509.8592023082391052 [Eh]
	 Singles Energy            =      -0.0000000000000000 [Eh]
	 Same-Spin Energy          =      -0.5440419193029407 [Eh]
	 Opposite-Spin Energy      =      -1.6956770167497719 [Eh]
	 Correlation Energy        =      -2.2397189360527126 [Eh]
	 Total Energy              =    -512.0989212442917733 [Eh]

	 ================> DF-SCS-MP2 Energies <==================
	-----------------------------------------------------------
	 SCS Same-Spin Scale       =       0.3333333333333333 [-]
	 SCS Opposite-Spin Scale   =       1.2000000000000000 [-]
	 SCS Same-Spin Energy      =      -0.1813473064343135 [Eh]
	 SCS Opposite-Spin Energy  =      -2.0348124200997262 [Eh]
	 SCS Correlation Energy    =      -2.2161597265340398 [Eh]
	 SCS Total Energy          =    -512.0753620347730930 [Eh]
	-----------------------------------------------------------

  Dipole Moment: [D]
     X:     0.7143      Y:    -0.0410      Z:     1.8364     Total:     1.9709

*** Psi4 exiting successfully. Buy a developer a beer!
