                               Psi4 1.3.2 release

  ==> Input File <==

--------------------------------------------------------------------------
#psi4
#
memory 32 gb

molecule  {
0 1
  O       -0.7670850     1.7208920    -0.4354900
  N        1.6863020     0.4747470     0.1388600
  N       -1.9291830    -0.1915810     0.0453950
  N        0.7639310    -1.5088640    -0.3477740
  C        0.5182450    -0.2160980    -0.0822800
  C       -0.7756170     0.5047820    -0.1623390
  C        2.7114570    -0.4276410     0.0208990
  C        1.8666300     1.8964630     0.4257140
  C       -3.1904980     0.5035560    -0.1598940
  C       -2.0503370    -1.5461500     0.5645390
  C        2.1210610    -1.6392390    -0.2794470
  H        3.7418240    -0.1353950     0.1686580
  H        1.1394670     2.2188990     1.1681400
  H        2.8785810     2.0278530     0.8121890
  H        1.7220340     2.4842350    -0.4794890
  H       -3.8467550    -0.1153850    -0.7799180
  H       -2.9915450     1.4520350    -0.6543500
  H       -3.6876690     0.6913720     0.7990550
  H       -1.0742680    -1.9474190     0.8155770
  H       -2.5092790    -2.1983750    -0.1864030
  H       -2.6938370    -1.5270200     1.4518100
  H        2.6154325    -2.5607666    -0.5962007
units angstrom
no_reorient  #important for SAPT in psi4, default
symmetry c1  #important for SAPT in psi4, default
}

set PROPERTIES_ORIGIN ["COM"]
properties('MP2/aug-cc-pvtz', properties = ['dipole'])
--------------------------------------------------------------------------

    Molecular point group: c1
  Charge       = 0
  Multiplicity = 1
  Basis Set: AUG-CC-PVTZ
    Blend: AUG-CC-PVTZ
  Basis Set: (AUG-CC-PVTZ AUX)
    Blend: AUG-CC-PVTZ-JKFIT

    Orbital Energies [Eh]
    ---------------------

    Doubly Occupied:

       1A    -20.517739     2A    -15.634006     3A    -15.592108
       4A    -15.561740     5A    -11.363146     6A    -11.305581
       7A    -11.272137     8A    -11.269711     9A    -11.255358
      10A    -11.252859    11A    -11.252228    12A     -1.380649
      13A     -1.342215    14A     -1.245550    15A     -1.188901
      16A     -1.031996    17A     -0.976703    18A     -0.966692
      19A     -0.938775    20A     -0.831439    21A     -0.810492
      22A     -0.741680    23A     -0.709795    24A     -0.662165
      25A     -0.655563    26A     -0.645983    27A     -0.640174
      28A     -0.604628    29A     -0.592078    30A     -0.574091
      31A     -0.562923    32A     -0.558534    33A     -0.554097
      34A     -0.553227    35A     -0.527057    36A     -0.522853
      37A     -0.450578    38A     -0.428937    39A     -0.391518
      40A     -0.373214    41A     -0.320581

  @DF-RHF Final Energy:  -509.85907086678446

   => Energetics <=

    Nuclear Repulsion Energy =            628.9429436522107153
    One-Electron Energy =               -1941.4846260414076369
    Two-Electron Energy =                 802.6826115224124578
    Total Energy =                       -509.8590708667844638
  Basis Set: (AUG-CC-PVTZ AUX)
    Blend: AUG-CC-PVTZ-RI
    Molecular point group: c1

    Geometry (in Angstrom), charge = 0, multiplicity = 1:

       Center              X                  Y                   Z               Mass
    ------------   -----------------  -----------------  -----------------  -----------------
         O           -0.797755121577     1.723092387362    -0.417263426929    15.994914619570
         N            1.655631878423     0.476947387362     0.157086573071    14.003074004430
         N           -1.959853121577    -0.189380612638     0.063621573071    14.003074004430
         N            0.733260878423    -1.506663612638    -0.329547426929    14.003074004430
         C            0.487574878423    -0.213897612638    -0.064053426929    12.000000000000
         C           -0.806287121577     0.506982387362    -0.144112426929    12.000000000000
         C            2.680786878423    -0.425440612638     0.039125573071    12.000000000000
         C            1.835959878423     1.898663387362     0.443940573071    12.000000000000
         C           -3.221168121577     0.505756387362    -0.141667426929    12.000000000000
         C           -2.081007121577    -1.543949612638     0.582765573071    12.000000000000
         C            2.090390878423    -1.637038612638    -0.261220426929    12.000000000000
         H            3.711153878423    -0.133194612638     0.186884573071     1.007825032230
         H            1.108796878423     2.221099387362     1.186366573071     1.007825032230
         H            2.847910878423     2.030053387362     0.830415573071     1.007825032230
         H            1.691363878423     2.486435387362    -0.461262426929     1.007825032230
         H           -3.877425121577    -0.113184612638    -0.761691426929     1.007825032230
         H           -3.022215121577     1.454235387362    -0.636123426929     1.007825032230
         H           -3.718339121577     0.693572387362     0.817281573071     1.007825032230
         H           -1.104938121577    -1.945218612638     0.833803573071     1.007825032230
         H           -2.539949121577    -2.196174612638    -0.168176426929     1.007825032230
         H           -2.724507121577    -1.524819612638     1.470036573071     1.007825032230
         H            2.584762378423    -2.558566212638    -0.577974126929     1.007825032230

  Basis Set: AUG-CC-PVTZ
    Blend: AUG-CC-PVTZ
  Basis Set: (AUG-CC-PVTZ AUX)
    Blend: AUG-CC-PVTZ-JKFIT
	 Reference Energy          =    -509.8590708667844638 [Eh]
	 Singles Energy            =      -0.0000000000000000 [Eh]
	 Same-Spin Energy          =      -0.5440422880912691 [Eh]
	 Opposite-Spin Energy      =      -1.6956704884864162 [Eh]
	 Correlation Energy        =      -2.2397127765776852 [Eh]
	 Total Energy              =    -512.0987836433621396 [Eh]

	 ================> DF-SCS-MP2 Energies <==================
	-----------------------------------------------------------
	 SCS Same-Spin Scale       =       0.3333333333333333 [-]
	 SCS Opposite-Spin Scale   =       1.2000000000000000 [-]
	 SCS Same-Spin Energy      =      -0.1813474293637564 [Eh]
	 SCS Opposite-Spin Energy  =      -2.0348045861836992 [Eh]
	 SCS Correlation Energy    =      -2.2161520155474554 [Eh]
	 SCS Total Energy          =    -512.0752228823319001 [Eh]
	-----------------------------------------------------------

  Dipole Moment: [D]
     X:     0.7433      Y:     0.0359      Z:     1.6167     Total:     1.7798

*** Psi4 exiting successfully. Buy a developer a beer!
