                               Psi4 1.3.2 release

  ==> Input File <==

--------------------------------------------------------------------------
#psi4
#
memory 32 gb

molecule  {
0 1
  O       -0.7670850     1.7208920    -0.4354900
  N        1.6863020     0.4747470     0.1388600
  N       -1.9291830    -0.1915810     0.0453950
  N        0.7639310    -1.5088640    -0.3477740
  C        0.5208964    -0.2054436    -0.0335003
  C       -0.7756170     0.5047820    -0.1623390
  C        2.7114570    -0.4276410     0.0208990
  C        1.8666300     1.8964630     0.4257140
  C       -3.1904980     0.5035560    -0.1598940
  C       -2.0503370    -1.5461500     0.5645390
  C        2.1210610    -1.6392390    -0.2794470
  H        3.7418240    -0.1353950     0.1686580
  H        1.1394670     2.2188990     1.1681400
  H        2.8785810     2.0278530     0.8121890
  H        1.7220340     2.4842350    -0.4794890
  H       -3.8467550    -0.1153850    -0.7799180
  H       -2.9915450     1.4520350    -0.6543500
  H       -3.6876690     0.6913720     0.7990550
  H       -1.0742680    -1.9474190     0.8155770
  H       -2.5092790    -2.1983750    -0.1864030
  H       -2.6938370    -1.5270200     1.4518100
  H        2.6051200    -2.5920870    -0.4498700
units angstrom
no_reorient  #important for SAPT in psi4, default
symmetry c1  #important for SAPT in psi4, default
}

set PROPERTIES_ORIGIN ["COM"]
properties('MP2/aug-cc-pvtz', properties = ['dipole'])
--------------------------------------------------------------------------

    Molecular point group: c1
  Charge       = 0
  Multiplicity = 1
  Basis Set: AUG-CC-PVTZ
    Blend: AUG-CC-PVTZ
  Basis Set: (AUG-CC-PVTZ AUX)
    Blend: AUG-CC-PVTZ-JKFIT

    Orbital Energies [Eh]
    ---------------------

    Doubly Occupied:

       1A    -20.517271     2A    -15.636412     3A    -15.591751
       4A    -15.562031     5A    -11.363103     6A    -11.305299
       7A    -11.272888     8A    -11.268826     9A    -11.254805
      10A    -11.252587    11A    -11.252441    12A     -1.380708
      13A     -1.343228    14A     -1.245107    15A     -1.185988
      16A     -1.032070    17A     -0.977585    18A     -0.966420
      19A     -0.939550    20A     -0.831621    21A     -0.810764
      22A     -0.741988    23A     -0.709751    24A     -0.663510
      25A     -0.655317    26A     -0.646166    27A     -0.640356
      28A     -0.604939    29A     -0.592763    30A     -0.574025
      31A     -0.564336    32A     -0.556230    33A     -0.554588
      34A     -0.552726    35A     -0.526846    36A     -0.523122
      37A     -0.448947    38A     -0.429630    39A     -0.390227
      40A     -0.372874    41A     -0.320546

  @DF-RHF Final Energy:  -509.85814157864536

   => Energetics <=

    Nuclear Repulsion Energy =            628.9617652681513391
    One-Electron Energy =               -1941.5211348031130001
    Two-Electron Energy =                 802.7012279563163020
    Total Energy =                       -509.8581415786453590
  Basis Set: (AUG-CC-PVTZ AUX)
    Blend: AUG-CC-PVTZ-RI
    Molecular point group: c1

    Geometry (in Angstrom), charge = 0, multiplicity = 1:

       Center              X                  Y                   Z               Mass
    ------------   -----------------  -----------------  -----------------  -----------------
         O           -0.797895062623     1.722463429340    -0.422050357021    15.994914619570
         N            1.655491937377     0.476318429340     0.152299642979    14.003074004430
         N           -1.959993062623    -0.190009570660     0.058834642979    14.003074004430
         N            0.733120937377    -1.507292570660    -0.334334357021    14.003074004430
         C            0.490086337377    -0.203872170660    -0.020060657021    12.000000000000
         C           -0.806427062623     0.506353429340    -0.148899357021    12.000000000000
         C            2.680646937377    -0.426069570660     0.034338642979    12.000000000000
         C            1.835819937377     1.898034429340     0.439153642979    12.000000000000
         C           -3.221308062623     0.505127429340    -0.146454357021    12.000000000000
         C           -2.081147062623    -1.544578570660     0.577978642979    12.000000000000
         C            2.090250937377    -1.637667570660    -0.266007357021    12.000000000000
         H            3.711013937377    -0.133823570660     0.182097642979     1.007825032230
         H            1.108656937377     2.220470429340     1.181579642979     1.007825032230
         H            2.847770937377     2.029424429340     0.825628642979     1.007825032230
         H            1.691223937377     2.485806429340    -0.466049357021     1.007825032230
         H           -3.877565062623    -0.113813570660    -0.766478357021     1.007825032230
         H           -3.022355062623     1.453606429340    -0.640910357021     1.007825032230
         H           -3.718479062623     0.692943429340     0.812494642979     1.007825032230
         H           -1.105078062623    -1.945847570660     0.829016642979     1.007825032230
         H           -2.540089062623    -2.196803570660    -0.172963357021     1.007825032230
         H           -2.724647062623    -1.525448570660     1.465249642979     1.007825032230
         H            2.574309937377    -2.590515570660    -0.436430357021     1.007825032230

  Basis Set: AUG-CC-PVTZ
    Blend: AUG-CC-PVTZ
  Basis Set: (AUG-CC-PVTZ AUX)
    Blend: AUG-CC-PVTZ-JKFIT
	 Reference Energy          =    -509.8581415786453590 [Eh]
	 Singles Energy            =      -0.0000000000000000 [Eh]
	 Same-Spin Energy          =      -0.5443556262663392 [Eh]
	 Opposite-Spin Energy      =      -1.6961719740705667 [Eh]
	 Correlation Energy        =      -2.2405276003369057 [Eh]
	 Total Energy              =    -512.0986691789822771 [Eh]

	 ================> DF-SCS-MP2 Energies <==================
	-----------------------------------------------------------
	 SCS Same-Spin Scale       =       0.3333333333333333 [-]
	 SCS Opposite-Spin Scale   =       1.2000000000000000 [-]
	 SCS Same-Spin Energy      =      -0.1814518754221131 [Eh]
	 SCS Opposite-Spin Energy  =      -2.0354063688846802 [Eh]
	 SCS Correlation Energy    =      -2.2168582443067932 [Eh]
	 SCS Total Energy          =    -512.0749998229521225 [Eh]
	-----------------------------------------------------------

  Dipole Moment: [D]
     X:     0.8000      Y:     0.0230      Z:     1.7388     Total:     1.9142

*** Psi4 exiting successfully. Buy a developer a beer!
