                               Psi4 1.3.2 release

  ==> Input File <==

--------------------------------------------------------------------------
#psi4
#
memory 32 gb

molecule  {
0 1
  O       -0.7670850     1.7208920    -0.4354900
  N        1.6863020     0.4747470     0.1388600
  N       -1.9291830    -0.1915810     0.0453950
  N        0.7639310    -1.5088640    -0.3477740
  C        0.5182450    -0.2160980    -0.0822800
  C       -0.7756170     0.5047820    -0.1623390
  C        2.7114570    -0.4276410     0.0208990
  C        1.8666300     1.8964630     0.4257140
  C       -3.1904980     0.5035560    -0.1598940
  C       -2.0503370    -1.5461500     0.5645390
  C        2.1210610    -1.6392390    -0.2794470
  H        3.7418240    -0.1353950     0.1686580
  H        1.1394670     2.2188990     1.1681400
  H        2.8785810     2.0278530     0.8121890
  H        1.7220340     2.4842350    -0.4794890
  H       -3.8467550    -0.1153850    -0.7799180
  H       -2.9915450     1.4520350    -0.6543500
  H       -3.6876690     0.6913720     0.7990550
  H       -1.0742680    -1.9474190     0.8155770
  H       -2.5092790    -2.1983750    -0.1864030
  H       -2.6938370    -1.5270200     1.4518100
  H        2.6119950    -2.5712067    -0.5474238
units angstrom
no_reorient  #important for SAPT in psi4, default
symmetry c1  #important for SAPT in psi4, default
}

set PROPERTIES_ORIGIN ["COM"]
properties('MP2/aug-cc-pvtz', properties = ['dipole'])
--------------------------------------------------------------------------

    Molecular point group: c1
  Charge       = 0
  Multiplicity = 1
  Basis Set: AUG-CC-PVTZ
    Blend: AUG-CC-PVTZ
  Basis Set: (AUG-CC-PVTZ AUX)
    Blend: AUG-CC-PVTZ-JKFIT

    Orbital Energies [Eh]
    ---------------------

    Doubly Occupied:

       1A    -20.517703     2A    -15.633890     3A    -15.592086
       4A    -15.561667     5A    -11.363097     6A    -11.305498
       7A    -11.272071     8A    -11.269533     9A    -11.255347
      10A    -11.252841    11A    -11.251777    12A     -1.380599
      13A     -1.342122    14A     -1.245524    15A     -1.188839
      16A     -1.031995    17A     -0.976649    18A     -0.966682
      19A     -0.938800    20A     -0.831683    21A     -0.810688
      22A     -0.741805    23A     -0.709801    24A     -0.662274
      25A     -0.655533    26A     -0.645928    27A     -0.640078
      28A     -0.605153    29A     -0.592239    30A     -0.574177
      31A     -0.563265    32A     -0.558048    33A     -0.554462
      34A     -0.553181    35A     -0.527127    36A     -0.522912
      37A     -0.450626    38A     -0.428892    39A     -0.391508
      40A     -0.373185    41A     -0.320588

  @DF-RHF Final Energy:  -509.85984096670677

   => Energetics <=

    Nuclear Repulsion Energy =            628.9668083163546726
    One-Electron Energy =               -1941.5335564931006047
    Two-Electron Energy =                 802.7069072100391622
    Total Energy =                       -509.8598409667067699
  Basis Set: (AUG-CC-PVTZ AUX)
    Blend: AUG-CC-PVTZ-RI
    Molecular point group: c1

    Geometry (in Angstrom), charge = 0, multiplicity = 1:

       Center              X                  Y                   Z               Mass
    ------------   -----------------  -----------------  -----------------  -----------------
         O           -0.797732491792     1.723161116734    -0.417584535511    15.994914619570
         N            1.655654508208     0.477016116734     0.156765464489    14.003074004430
         N           -1.959830491792    -0.189311883266     0.063300464489    14.003074004430
         N            0.733283508208    -1.506594883266    -0.329868535511    14.003074004430
         C            0.487597508208    -0.213828883266    -0.064374535511    12.000000000000
         C           -0.806264491792     0.507051116734    -0.144433535511    12.000000000000
         C            2.680809508208    -0.425371883266     0.038804464489    12.000000000000
         C            1.835982508208     1.898732116734     0.443619464489    12.000000000000
         C           -3.221145491792     0.505825116734    -0.141988535511    12.000000000000
         C           -2.080984491792    -1.543880883266     0.582444464489    12.000000000000
         C            2.090413508208    -1.636969883266    -0.261541535511    12.000000000000
         H            3.711176508208    -0.133125883266     0.186563464489     1.007825032230
         H            1.108819508208     2.221168116734     1.186045464489     1.007825032230
         H            2.847933508208     2.030122116734     0.830094464489     1.007825032230
         H            1.691386508208     2.486504116734    -0.461583535511     1.007825032230
         H           -3.877402491792    -0.113115883266    -0.762012535511     1.007825032230
         H           -3.022192491792     1.454304116734    -0.636444535511     1.007825032230
         H           -3.718316491792     0.693641116734     0.816960464489     1.007825032230
         H           -1.104915491792    -1.945149883266     0.833482464489     1.007825032230
         H           -2.539926491792    -2.196105883266    -0.168497535511     1.007825032230
         H           -2.724484491792    -1.524750883266     1.469715464489     1.007825032230
         H            2.581347508208    -2.568937583266    -0.529518335511     1.007825032230

  Basis Set: AUG-CC-PVTZ
    Blend: AUG-CC-PVTZ
  Basis Set: (AUG-CC-PVTZ AUX)
    Blend: AUG-CC-PVTZ-JKFIT
	 Reference Energy          =    -509.8598409667067699 [Eh]
	 Singles Energy            =      -0.0000000000000000 [Eh]
	 Same-Spin Energy          =      -0.5439954448849320 [Eh]
	 Opposite-Spin Energy      =      -1.6955722844152676 [Eh]
	 Correlation Energy        =      -2.2395677293001999 [Eh]
	 Total Energy              =    -512.0994086960070035 [Eh]

	 ================> DF-SCS-MP2 Energies <==================
	-----------------------------------------------------------
	 SCS Same-Spin Scale       =       0.3333333333333333 [-]
	 SCS Opposite-Spin Scale   =       1.2000000000000000 [-]
	 SCS Same-Spin Energy      =      -0.1813318149616440 [Eh]
	 SCS Opposite-Spin Energy  =      -2.0346867412983212 [Eh]
	 SCS Correlation Energy    =      -2.2160185562599652 [Eh]
	 SCS Total Energy          =    -512.0758595229667662 [Eh]
	-----------------------------------------------------------

  Dipole Moment: [D]
     X:     0.7464      Y:     0.0188      Z:     1.6494     Total:     1.8105

*** Psi4 exiting successfully. Buy a developer a beer!
