                               Psi4 1.3.2 release

  ==> Input File <==

--------------------------------------------------------------------------
#psi4
#
memory 32 gb

molecule  {
0 1
  O       -0.7670850     1.7208920    -0.4354900
  N        1.6863020     0.4747470     0.1388600
  N       -1.9291830    -0.1915810     0.0453950
  N        0.7639310    -1.5088640    -0.3477740
  C        0.5182450    -0.2160980    -0.0822800
  C       -0.7756170     0.5047820    -0.1623390
  C        2.7114570    -0.4276410     0.0208990
  C        1.8666300     1.8964630     0.4257140
  C       -3.1904980     0.5035560    -0.1598940
  C       -2.0503370    -1.5461500     0.5645390
  C        2.1210610    -1.6392390    -0.2794470
  H        3.7380216    -0.1458239     0.2174102
  H        1.1394670     2.2188990     1.1681400
  H        2.8785810     2.0278530     0.8121890
  H        1.7220340     2.4842350    -0.4794890
  H       -3.8467550    -0.1153850    -0.7799180
  H       -2.9915450     1.4520350    -0.6543500
  H       -3.6876690     0.6913720     0.7990550
  H       -1.0742680    -1.9474190     0.8155770
  H       -2.5092790    -2.1983750    -0.1864030
  H       -2.6938370    -1.5270200     1.4518100
  H        2.6051200    -2.5920870    -0.4498700
units angstrom
no_reorient  #important for SAPT in psi4, default
symmetry c1  #important for SAPT in psi4, default
}

set PROPERTIES_ORIGIN ["COM"]
properties('MP2/aug-cc-pvtz', properties = ['dipole'])
--------------------------------------------------------------------------

    Molecular point group: c1
  Charge       = 0
  Multiplicity = 1
  Basis Set: AUG-CC-PVTZ
    Blend: AUG-CC-PVTZ
  Basis Set: (AUG-CC-PVTZ AUX)
    Blend: AUG-CC-PVTZ-JKFIT

    Orbital Energies [Eh]
    ---------------------

    Doubly Occupied:

       1A    -20.517678     2A    -15.633788     3A    -15.592083
       4A    -15.561650     5A    -11.363056     6A    -11.305493
       7A    -11.272014     8A    -11.269477     9A    -11.255400
      10A    -11.252844    11A    -11.251504    12A     -1.380570
      13A     -1.342065    14A     -1.245524    15A     -1.188812
      16A     -1.031993    17A     -0.976608    18A     -0.966711
      19A     -0.938830    20A     -0.831912    21A     -0.810723
      22A     -0.741941    23A     -0.709653    24A     -0.663018
      25A     -0.655341    26A     -0.645853    27A     -0.639656
      28A     -0.605471    29A     -0.592312    30A     -0.574364
      31A     -0.563747    32A     -0.557009    33A     -0.554892
      34A     -0.553063    35A     -0.527306    36A     -0.523096
      37A     -0.450756    38A     -0.428830    39A     -0.391517
      40A     -0.373187    41A     -0.320660

  @DF-RHF Final Energy:  -509.86030095141410

   => Energetics <=

    Nuclear Repulsion Energy =            628.9834386947759413
    One-Electron Energy =               -1941.5666643202562227
    Two-Electron Energy =                 802.7229246740661210
    Total Energy =                       -509.8603009514141604
  Basis Set: (AUG-CC-PVTZ AUX)
    Blend: AUG-CC-PVTZ-RI
    Molecular point group: c1

    Geometry (in Angstrom), charge = 0, multiplicity = 1:

       Center              X                  Y                   Z               Mass
    ------------   -----------------  -----------------  -----------------  -----------------
         O           -0.797662200225     1.723367231776    -0.418547698650    15.994914619570
         N            1.655724799775     0.477222231776     0.155802301350    14.003074004430
         N           -1.959760200225    -0.189105768224     0.062337301350    14.003074004430
         N            0.733353799775    -1.506388768224    -0.330831698650    14.003074004430
         C            0.487667799775    -0.213622768224    -0.065337698650    12.000000000000
         C           -0.806194200225     0.507257231776    -0.145396698650    12.000000000000
         C            2.680879799775    -0.425165768224     0.037841301350    12.000000000000
         C            1.836052799775     1.898938231776     0.442656301350    12.000000000000
         C           -3.221075200225     0.506031231776    -0.142951698650    12.000000000000
         C           -2.080914200225    -1.543674768224     0.581481301350    12.000000000000
         C            2.090483799775    -1.636763768224    -0.262504698650    12.000000000000
         H            3.707444399775    -0.143348668224     0.234352501350     1.007825032230
         H            1.108889799775     2.221374231776     1.185082301350     1.007825032230
         H            2.848003799775     2.030328231776     0.829131301350     1.007825032230
         H            1.691456799775     2.486710231776    -0.462546698650     1.007825032230
         H           -3.877332200225    -0.112909768224    -0.762975698650     1.007825032230
         H           -3.022122200225     1.454510231776    -0.637407698650     1.007825032230
         H           -3.718246200225     0.693847231776     0.815997301350     1.007825032230
         H           -1.104845200225    -1.944943768224     0.832519301350     1.007825032230
         H           -2.539856200225    -2.195899768224    -0.169460698650     1.007825032230
         H           -2.724414200225    -1.524544768224     1.468752301350     1.007825032230
         H            2.574542799775    -2.589611768224    -0.432927698650     1.007825032230

  Basis Set: AUG-CC-PVTZ
    Blend: AUG-CC-PVTZ
  Basis Set: (AUG-CC-PVTZ AUX)
    Blend: AUG-CC-PVTZ-JKFIT
	 Reference Energy          =    -509.8603009514141036 [Eh]
	 Singles Energy            =      -0.0000000000000000 [Eh]
	 Same-Spin Energy          =      -0.5439615357963106 [Eh]
	 Opposite-Spin Energy      =      -1.6955127535195511 [Eh]
	 Correlation Energy        =      -2.2394742893158615 [Eh]
	 Total Energy              =    -512.0997752407299686 [Eh]

	 ================> DF-SCS-MP2 Energies <==================
	-----------------------------------------------------------
	 SCS Same-Spin Scale       =       0.3333333333333333 [-]
	 SCS Opposite-Spin Scale   =       1.2000000000000000 [-]
	 SCS Same-Spin Energy      =      -0.1813205119321035 [Eh]
	 SCS Opposite-Spin Energy  =      -2.0346153042234612 [Eh]
	 SCS Correlation Energy    =      -2.2159358161555645 [Eh]
	 SCS Total Energy          =    -512.0762367675696396 [Eh]
	-----------------------------------------------------------

  Dipole Moment: [D]
     X:     0.7391      Y:    -0.0143      Z:     1.7581     Total:     1.9072

*** Psi4 exiting successfully. Buy a developer a beer!
