                               Psi4 1.3.2 release

  ==> Input File <==

--------------------------------------------------------------------------
#psi4
#
memory 32 gb

molecule  {
0 1
  O       -0.7670850     1.7208920    -0.4354900
  N        1.6863020     0.4747470     0.1388600
  N       -1.9291830    -0.1915810     0.0453950
  N        0.7639310    -1.5088640    -0.3477740
  C        0.5182450    -0.2160980    -0.0822800
  C       -0.7756170     0.5047820    -0.1623390
  C        2.7114570    -0.4276410     0.0208990
  C        1.8666300     1.8964630     0.4257140
  C       -3.1904980     0.5035560    -0.1598940
  C       -2.0503370    -1.5461500     0.5645390
  C        2.1210610    -1.6392390    -0.2794470
  H        3.7418240    -0.1353950     0.1686580
  H        1.1394670     2.2188990     1.1681400
  H        2.8785810     2.0278530     0.8121890
  H        1.7220340     2.4842350    -0.4794890
  H       -3.8467550    -0.1153850    -0.7799180
  H       -2.9915450     1.4520350    -0.6543500
  H       -3.6876690     0.6913720     0.7990550
  H       -1.0742680    -1.9474190     0.8155770
  H       -2.5092790    -2.1983750    -0.1864030
  H       -2.6938370    -1.5270200     1.4518100
  H        2.6257450    -2.5294461    -0.7425315
units angstrom
no_reorient  #important for SAPT in psi4, default
symmetry c1  #important for SAPT in psi4, default
}

set PROPERTIES_ORIGIN ["COM"]
properties('MP2/aug-cc-pvtz', properties = ['dipole'])
--------------------------------------------------------------------------

    Molecular point group: c1
  Charge       = 0
  Multiplicity = 1
  Basis Set: AUG-CC-PVTZ
    Blend: AUG-CC-PVTZ
  Basis Set: (AUG-CC-PVTZ AUX)
    Blend: AUG-CC-PVTZ-JKFIT

    Orbital Energies [Eh]
    ---------------------

    Doubly Occupied:

       1A    -20.517967     2A    -15.634592     3A    -15.592270
       4A    -15.562106     5A    -11.363408     6A    -11.306031
       7A    -11.272474     8A    -11.270613     9A    -11.255453
      10A    -11.254593    11A    -11.252983    12A     -1.380935
      13A     -1.342697    14A     -1.245721    15A     -1.189215
      16A     -1.032019    17A     -0.976992    18A     -0.966779
      19A     -0.938685    20A     -0.830372    21A     -0.809443
      22A     -0.741093    23A     -0.709732    24A     -0.662094
      25A     -0.655472    26A     -0.646284    27A     -0.640612
      28A     -0.602432    29A     -0.591008    30A     -0.573837
      31A     -0.561838    32A     -0.559777    33A     -0.553407
      34A     -0.552121    35A     -0.526910    36A     -0.522425
      37A     -0.450415    38A     -0.429191    39A     -0.391523
      40A     -0.373379    41A     -0.320591

  @DF-RHF Final Energy:  -509.85443837033239

   => Energetics <=

    Nuclear Repulsion Energy =            628.8228217210329376
    One-Electron Energy =               -1941.2355381499492069
    Two-Electron Energy =                 802.5582780585837099
    Total Energy =                       -509.8544383703324456
  Basis Set: (AUG-CC-PVTZ AUX)
    Blend: AUG-CC-PVTZ-RI
    Molecular point group: c1

    Geometry (in Angstrom), charge = 0, multiplicity = 1:

       Center              X                  Y                   Z               Mass
    ------------   -----------------  -----------------  -----------------  -----------------
         O           -0.797823010931     1.722886197929    -0.416300100527    15.994914619570
         N            1.655563989069     0.476741197929     0.158049899473    14.003074004430
         N           -1.959921010931    -0.189586802071     0.064584899473    14.003074004430
         N            0.733192989069    -1.506869802071    -0.328584100527    14.003074004430
         C            0.487506989069    -0.214103802071    -0.063090100527    12.000000000000
         C           -0.806355010931     0.506776197929    -0.143149100527    12.000000000000
         C            2.680718989069    -0.425646802071     0.040088899473    12.000000000000
         C            1.835891989069     1.898457197929     0.444903899473    12.000000000000
         C           -3.221236010931     0.505550197929    -0.140704100527    12.000000000000
         C           -2.081075010931    -1.544155802071     0.583728899473    12.000000000000
         C            2.090322989069    -1.637244802071    -0.260257100527    12.000000000000
         H            3.711085989069    -0.133400802071     0.187847899473     1.007825032230
         H            1.108728989069     2.220893197929     1.187329899473     1.007825032230
         H            2.847842989069     2.029847197929     0.831378899473     1.007825032230
         H            1.691295989069     2.486229197929    -0.460299100527     1.007825032230
         H           -3.877493010931    -0.113390802071    -0.760728100527     1.007825032230
         H           -3.022283010931     1.454029197929    -0.635160100527     1.007825032230
         H           -3.718407010931     0.693366197929     0.818244899473     1.007825032230
         H           -1.105006010931    -1.945424802071     0.834766899473     1.007825032230
         H           -2.540017010931    -2.196380802071    -0.167213100527     1.007825032230
         H           -2.724575010931    -1.525025802071     1.470999899473     1.007825032230
         H            2.595006989069    -2.527451902071    -0.723341600527     1.007825032230

  Basis Set: AUG-CC-PVTZ
    Blend: AUG-CC-PVTZ
  Basis Set: (AUG-CC-PVTZ AUX)
    Blend: AUG-CC-PVTZ-JKFIT
	 Reference Energy          =    -509.8544383703323888 [Eh]
	 Singles Energy            =      -0.0000000000000000 [Eh]
	 Same-Spin Energy          =      -0.5442742488320080 [Eh]
	 Opposite-Spin Energy      =      -1.6962420358907897 [Eh]
	 Correlation Energy        =      -2.2405162847227977 [Eh]
	 Total Energy              =    -512.0949546550551759 [Eh]

	 ================> DF-SCS-MP2 Energies <==================
	-----------------------------------------------------------
	 SCS Same-Spin Scale       =       0.3333333333333333 [-]
	 SCS Opposite-Spin Scale   =       1.2000000000000000 [-]
	 SCS Same-Spin Energy      =      -0.1814247496106693 [Eh]
	 SCS Opposite-Spin Energy  =      -2.0354904430689476 [Eh]
	 SCS Correlation Energy    =      -2.2169151926796169 [Eh]
	 SCS Total Energy          =    -512.0713535630120532 [Eh]
	-----------------------------------------------------------

  Dipole Moment: [D]
     X:     0.7170      Y:     0.1100      Z:     1.5257     Total:     1.6893

*** Psi4 exiting successfully. Buy a developer a beer!
