                               Psi4 1.3.2 release

  ==> Input File <==

--------------------------------------------------------------------------
#psi4
#
memory 32 gb

molecule  {
0 1
  O       -0.7670850     1.7208920    -0.4354900
  N        1.6863020     0.4747470     0.1388600
  N       -1.9291830    -0.1915810     0.0453950
  N        0.7639310    -1.5088640    -0.3477740
  C        0.5182450    -0.2160980    -0.0822800
  C       -0.7695376     0.5139222    -0.2111191
  C        2.7114570    -0.4276410     0.0208990
  C        1.8666300     1.8964630     0.4257140
  C       -3.1904980     0.5035560    -0.1598940
  C       -2.0503370    -1.5461500     0.5645390
  C        2.1210610    -1.6392390    -0.2794470
  H        3.7418240    -0.1353950     0.1686580
  H        1.1394670     2.2188990     1.1681400
  H        2.8785810     2.0278530     0.8121890
  H        1.7220340     2.4842350    -0.4794890
  H       -3.8467550    -0.1153850    -0.7799180
  H       -2.9915450     1.4520350    -0.6543500
  H       -3.6876690     0.6913720     0.7990550
  H       -1.0742680    -1.9474190     0.8155770
  H       -2.5092790    -2.1983750    -0.1864030
  H       -2.6938370    -1.5270200     1.4518100
  H        2.6051200    -2.5920870    -0.4498700
units angstrom
no_reorient  #important for SAPT in psi4, default
symmetry c1  #important for SAPT in psi4, default
}

set PROPERTIES_ORIGIN ["COM"]
properties('MP2/aug-cc-pvtz', properties = ['dipole'])
--------------------------------------------------------------------------

    Molecular point group: c1
  Charge       = 0
  Multiplicity = 1
  Basis Set: AUG-CC-PVTZ
    Blend: AUG-CC-PVTZ
  Basis Set: (AUG-CC-PVTZ AUX)
    Blend: AUG-CC-PVTZ-JKFIT

    Orbital Energies [Eh]
    ---------------------

    Doubly Occupied:

       1A    -20.522367     2A    -15.634214     3A    -15.587681
       4A    -15.561870     5A    -11.363771     6A    -11.304940
       7A    -11.273037     8A    -11.269850     9A    -11.253385
      10A    -11.251722    11A    -11.250651    12A     -1.390227
      13A     -1.344368    14A     -1.241274    15A     -1.189082
      16A     -1.031835    17A     -0.976604    18A     -0.964387
      19A     -0.934261    20A     -0.831226    21A     -0.810715
      22A     -0.741994    23A     -0.708437    24A     -0.664984
      25A     -0.655351    26A     -0.644916    27A     -0.638911
      28A     -0.605784    29A     -0.593190    30A     -0.578148
      31A     -0.564029    32A     -0.555931    33A     -0.554709
      34A     -0.551329    35A     -0.527809    36A     -0.525951
      37A     -0.452275    38A     -0.430011    39A     -0.391792
      40A     -0.371082    41A     -0.321125

  @DF-RHF Final Energy:  -509.85990967187729

   => Energetics <=

    Nuclear Repulsion Energy =            628.9375744434012176
    One-Electron Energy =               -1941.4645194110732973
    Two-Electron Energy =                 802.6670352957947898
    Total Energy =                       -509.8599096718772898
  Basis Set: (AUG-CC-PVTZ AUX)
    Blend: AUG-CC-PVTZ-RI
    Molecular point group: c1

    Geometry (in Angstrom), charge = 0, multiplicity = 1:

       Center              X                  Y                   Z               Mass
    ------------   -----------------  -----------------  -----------------  -----------------
         O           -0.798163766934     1.722582120142    -0.414403116973    15.994914619570
         N            1.655223233066     0.476437120142     0.159946883027    14.003074004430
         N           -1.960261766934    -0.189890879858     0.066481883027    14.003074004430
         N            0.732852233066    -1.507173879858    -0.326687116973    14.003074004430
         C            0.487166233066    -0.214407879858    -0.061193116973    12.000000000000
         C           -0.800616366934     0.515612320142    -0.190032216973    12.000000000000
         C            2.680378233066    -0.425950879858     0.041985883027    12.000000000000
         C            1.835551233066     1.898153120142     0.446800883027    12.000000000000
         C           -3.221576766934     0.505246120142    -0.138807116973    12.000000000000
         C           -2.081415766934    -1.544459879858     0.585625883027    12.000000000000
         C            2.089982233066    -1.637548879858    -0.258360116973    12.000000000000
         H            3.710745233066    -0.133704879858     0.189744883027     1.007825032230
         H            1.108388233066     2.220589120142     1.189226883027     1.007825032230
         H            2.847502233066     2.029543120142     0.833275883027     1.007825032230
         H            1.690955233066     2.485925120142    -0.458402116973     1.007825032230
         H           -3.877833766934    -0.113694879858    -0.758831116973     1.007825032230
         H           -3.022623766934     1.453725120142    -0.633263116973     1.007825032230
         H           -3.718747766934     0.693062120142     0.820141883027     1.007825032230
         H           -1.105346766934    -1.945728879858     0.836663883027     1.007825032230
         H           -2.540357766934    -2.196684879858    -0.165316116973     1.007825032230
         H           -2.724915766934    -1.525329879858     1.472896883027     1.007825032230
         H            2.574041233066    -2.590396879858    -0.428783116973     1.007825032230

  Basis Set: AUG-CC-PVTZ
    Blend: AUG-CC-PVTZ
  Basis Set: (AUG-CC-PVTZ AUX)
    Blend: AUG-CC-PVTZ-JKFIT
	 Reference Energy          =    -509.8599096718772898 [Eh]
	 Singles Energy            =      -0.0000000000000000 [Eh]
	 Same-Spin Energy          =      -0.5436735687546104 [Eh]
	 Opposite-Spin Energy      =      -1.6949607708304804 [Eh]
	 Correlation Energy        =      -2.2386343395850909 [Eh]
	 Total Energy              =    -512.0985440114624225 [Eh]

	 ================> DF-SCS-MP2 Energies <==================
	-----------------------------------------------------------
	 SCS Same-Spin Scale       =       0.3333333333333333 [-]
	 SCS Opposite-Spin Scale   =       1.2000000000000000 [-]
	 SCS Same-Spin Energy      =      -0.1812245229182035 [Eh]
	 SCS Opposite-Spin Energy  =      -2.0339529249965764 [Eh]
	 SCS Correlation Energy    =      -2.2151774479147797 [Eh]
	 SCS Total Energy          =    -512.0750871197921015 [Eh]
	-----------------------------------------------------------

  Dipole Moment: [D]
     X:     0.8961      Y:     0.1265      Z:     1.6410     Total:     1.8740

*** Psi4 exiting successfully. Buy a developer a beer!
