                               Psi4 1.3.2 release

  ==> Input File <==

--------------------------------------------------------------------------
#psi4
#
memory 32 gb

molecule  {
0 1
  O       -0.7670850     1.7208920    -0.4354900
  N        1.6863020     0.4747470     0.1388600
  N       -1.9291830    -0.1915810     0.0453950
  N        0.7639310    -1.5088640    -0.3477740
  C        0.5341535    -0.1521718     0.2103979
  C       -0.7756170     0.5047820    -0.1623390
  C        2.7114570    -0.4276410     0.0208990
  C        1.8666300     1.8964630     0.4257140
  C       -3.1904980     0.5035560    -0.1598940
  C       -2.0503370    -1.5461500     0.5645390
  C        2.1210610    -1.6392390    -0.2794470
  H        3.7418240    -0.1353950     0.1686580
  H        1.1394670     2.2188990     1.1681400
  H        2.8785810     2.0278530     0.8121890
  H        1.7220340     2.4842350    -0.4794890
  H       -3.8467550    -0.1153850    -0.7799180
  H       -2.9915450     1.4520350    -0.6543500
  H       -3.6876690     0.6913720     0.7990550
  H       -1.0742680    -1.9474190     0.8155770
  H       -2.5092790    -2.1983750    -0.1864030
  H       -2.6938370    -1.5270200     1.4518100
  H        2.6051200    -2.5920870    -0.4498700
units angstrom
no_reorient  #important for SAPT in psi4, default
symmetry c1  #important for SAPT in psi4, default
}

set PROPERTIES_ORIGIN ["COM"]
properties('MP2/aug-cc-pvtz', properties = ['dipole'])
--------------------------------------------------------------------------

    Molecular point group: c1
  Charge       = 0
  Multiplicity = 1
  Basis Set: AUG-CC-PVTZ
    Blend: AUG-CC-PVTZ
  Basis Set: (AUG-CC-PVTZ AUX)
    Blend: AUG-CC-PVTZ-JKFIT

    Orbital Energies [Eh]
    ---------------------

    Doubly Occupied:

       1A    -20.514238     2A    -15.649473     3A    -15.588466
       4A    -15.567766     5A    -11.363440     6A    -11.305190
       7A    -11.275665     8A    -11.271006     9A    -11.259321
      10A    -11.251363    11A    -11.250480    12A     -1.379741
      13A     -1.347830    14A     -1.241534    15A     -1.171121
      16A     -1.029768    17A     -0.981481    18A     -0.963872
      19A     -0.939327    20A     -0.827351    21A     -0.805443
      22A     -0.740565    23A     -0.707634    24A     -0.669940
      25A     -0.653559    26A     -0.647201    27A     -0.638431
      28A     -0.604725    29A     -0.588515    30A     -0.571415
      31A     -0.563818    32A     -0.552431    33A     -0.550106
      34A     -0.549634    35A     -0.524147    36A     -0.517877
      37A     -0.441656    38A     -0.428392    39A     -0.385379
      40A     -0.370129    41A     -0.318257

  @DF-RHF Final Energy:  -509.81423203582477

   => Energetics <=

    Nuclear Repulsion Energy =            627.8667890922756669
    One-Electron Energy =               -1939.3466656574564695
    Two-Electron Energy =                 801.6656445293560864
    Total Energy =                       -509.8142320358247161
  Basis Set: (AUG-CC-PVTZ AUX)
    Blend: AUG-CC-PVTZ-RI
    Molecular point group: c1

    Geometry (in Angstrom), charge = 0, multiplicity = 1:

       Center              X                  Y                   Z               Mass
    ------------   -----------------  -----------------  -----------------  -----------------
         O           -0.798934222462     1.718287711038    -0.441168355239    15.994914619570
         N            1.654452777538     0.472142711038     0.133181644761    14.003074004430
         N           -1.961032222462    -0.194185288962     0.039716644761    14.003074004430
         N            0.732081777538    -1.511468288962    -0.353452355239    14.003074004430
         C            0.502304277538    -0.154776088962     0.204719544761    12.000000000000
         C           -0.807466222462     0.502177711038    -0.168017355239    12.000000000000
         C            2.679607777538    -0.430245288962     0.015220644761    12.000000000000
         C            1.834780777538     1.893858711038     0.420035644761    12.000000000000
         C           -3.222347222462     0.500951711038    -0.165572355239    12.000000000000
         C           -2.082186222462    -1.548754288962     0.558860644761    12.000000000000
         C            2.089211777538    -1.641843288962    -0.285125355239    12.000000000000
         H            3.709974777538    -0.137999288962     0.162979644761     1.007825032230
         H            1.107617777538     2.216294711038     1.162461644761     1.007825032230
         H            2.846731777538     2.025248711038     0.806510644761     1.007825032230
         H            1.690184777538     2.481630711038    -0.485167355239     1.007825032230
         H           -3.878604222462    -0.117989288962    -0.785596355239     1.007825032230
         H           -3.023394222462     1.449430711038    -0.660028355239     1.007825032230
         H           -3.719518222462     0.688767711038     0.793376644761     1.007825032230
         H           -1.106117222462    -1.950023288962     0.809898644761     1.007825032230
         H           -2.541128222462    -2.200979288962    -0.192081355239     1.007825032230
         H           -2.725686222462    -1.529624288962     1.446131644761     1.007825032230
         H            2.573270777538    -2.594691288962    -0.455548355239     1.007825032230

  Basis Set: AUG-CC-PVTZ
    Blend: AUG-CC-PVTZ
  Basis Set: (AUG-CC-PVTZ AUX)
    Blend: AUG-CC-PVTZ-JKFIT
	 Reference Energy          =    -509.8142320358247730 [Eh]
	 Singles Energy            =      -0.0000000000000000 [Eh]
	 Same-Spin Energy          =      -0.5478185648268046 [Eh]
	 Opposite-Spin Energy      =      -1.7037620323293456 [Eh]
	 Correlation Energy        =      -2.2515805971561500 [Eh]
	 Total Energy              =    -512.0658126329809647 [Eh]

	 ================> DF-SCS-MP2 Energies <==================
	-----------------------------------------------------------
	 SCS Same-Spin Scale       =       0.3333333333333333 [-]
	 SCS Opposite-Spin Scale   =       1.2000000000000000 [-]
	 SCS Same-Spin Energy      =      -0.1826061882756015 [Eh]
	 SCS Opposite-Spin Energy  =      -2.0445144387952148 [Eh]
	 SCS Correlation Energy    =      -2.2271206270708164 [Eh]
	 SCS Total Energy          =    -512.0413526628956333 [Eh]
	-----------------------------------------------------------

  Dipole Moment: [D]
     X:     1.1604      Y:     0.0512      Z:     1.7570     Total:     2.1062

*** Psi4 exiting successfully. Buy a developer a beer!
