                               Psi4 1.3.2 release

  ==> Input File <==

--------------------------------------------------------------------------
#psi4
#
memory 32 gb

molecule  {
0 1
  O       -0.7670850     1.7208920    -0.4354900
  N        1.6863020     0.4747470     0.1388600
  N       -1.9291830    -0.1915810     0.0453950
  N        0.7639310    -1.5088640    -0.3477740
  C        0.5182450    -0.2160980    -0.0822800
  C       -0.7756170     0.5047820    -0.1623390
  C        2.7114570    -0.4276410     0.0208990
  C        1.8666300     1.8964630     0.4257140
  C       -3.1904980     0.5035560    -0.1598940
  C       -2.0503370    -1.5461500     0.5645390
  C        2.1210610    -1.6392390    -0.2794470
  H        3.7418240    -0.1353950     0.1686580
  H        1.1394670     2.2188990     1.1681400
  H        2.8785810     2.0278530     0.8121890
  H        1.7220340     2.4842350    -0.4794890
  H       -3.8467550    -0.1153850    -0.7799180
  H       -2.9915450     1.4520350    -0.6543500
  H       -3.6876690     0.6913720     0.7990550
  H       -1.0742680    -1.9474190     0.8155770
  H       -2.5092790    -2.1983750    -0.1864030
  H       -2.6938370    -1.5270200     1.4518100
  H        2.6223075    -2.5398863    -0.6937546
units angstrom
no_reorient  #important for SAPT in psi4, default
symmetry c1  #important for SAPT in psi4, default
}

set PROPERTIES_ORIGIN ["COM"]
properties('MP2/aug-cc-pvtz', properties = ['dipole'])
--------------------------------------------------------------------------

    Molecular point group: c1
  Charge       = 0
  Multiplicity = 1
  Basis Set: AUG-CC-PVTZ
    Blend: AUG-CC-PVTZ
  Basis Set: (AUG-CC-PVTZ AUX)
    Blend: AUG-CC-PVTZ-JKFIT

    Orbital Energies [Eh]
    ---------------------

    Doubly Occupied:

       1A    -20.517871     2A    -15.634359     3A    -15.592200
       4A    -15.561959     5A    -11.363301     6A    -11.305848
       7A    -11.272339     8A    -11.270252     9A    -11.255411
      10A    -11.253643    11A    -11.252930    12A     -1.380817
      13A     -1.342503    14A     -1.245648    15A     -1.189089
      16A     -1.032005    17A     -0.976874    18A     -0.966740
      19A     -0.938714    20A     -0.830760    21A     -0.809867
      22A     -0.741318    23A     -0.709758    24A     -0.662071
      25A     -0.655530    26A     -0.646161    27A     -0.640445
      28A     -0.603202    29A     -0.591482    30A     -0.573919
      31A     -0.562202    32A     -0.559401    33A     -0.553361
      34A     -0.552936    35A     -0.526947    36A     -0.522622
      37A     -0.450477    38A     -0.429087    39A     -0.391525
      40A     -0.373311    41A     -0.320581

  @DF-RHF Final Energy:  -509.85641367363559

   => Energetics <=

    Nuclear Repulsion Energy =            628.8704972739877803
    One-Electron Energy =               -1941.3348894556945652
    Two-Electron Energy =                 802.6079785080713691
    Total Energy =                       -509.8564136736355294
  Basis Set: (AUG-CC-PVTZ AUX)
    Blend: AUG-CC-PVTZ-RI
    Molecular point group: c1

    Geometry (in Angstrom), charge = 0, multiplicity = 1:

       Center              X                  Y                   Z               Mass
    ------------   -----------------  -----------------  -----------------  -----------------
         O           -0.797800381147     1.722954927959    -0.416621209108    15.994914619570
         N            1.655586618853     0.476809927959     0.157728790892    14.003074004430
         N           -1.959898381147    -0.189518072041     0.064263790892    14.003074004430
         N            0.733215618853    -1.506801072041    -0.328905209108    14.003074004430
         C            0.487529618853    -0.214035072041    -0.063411209108    12.000000000000
         C           -0.806332381147     0.506844927959    -0.143470209108    12.000000000000
         C            2.680741618853    -0.425578072041     0.039767790892    12.000000000000
         C            1.835914618853     1.898525927959     0.444582790892    12.000000000000
         C           -3.221213381147     0.505618927959    -0.141025209108    12.000000000000
         C           -2.081052381147    -1.544087072040     0.583407790892    12.000000000000
         C            2.090345618853    -1.637176072041    -0.260578209108    12.000000000000
         H            3.711108618853    -0.133332072041     0.187526790892     1.007825032230
         H            1.108751618853     2.220961927959     1.187008790892     1.007825032230
         H            2.847865618853     2.029915927959     0.831057790892     1.007825032230
         H            1.691318618853     2.486297927959    -0.460620209108     1.007825032230
         H           -3.877470381147    -0.113322072041    -0.761049209108     1.007825032230
         H           -3.022260381147     1.454097927959    -0.635481209108     1.007825032230
         H           -3.718384381147     0.693434927959     0.817923790892     1.007825032230
         H           -1.104983381147    -1.945356072041     0.834445790892     1.007825032230
         H           -2.539994381147    -2.196312072041    -0.167534209108     1.007825032230
         H           -2.724552381147    -1.524957072041     1.470678790892     1.007825032230
         H            2.591592118853    -2.537823372041    -0.674885809108     1.007825032230

  Basis Set: AUG-CC-PVTZ
    Blend: AUG-CC-PVTZ
  Basis Set: (AUG-CC-PVTZ AUX)
    Blend: AUG-CC-PVTZ-JKFIT
	 Reference Energy          =    -509.8564136736355863 [Eh]
	 Singles Energy            =      -0.0000000000000000 [Eh]
	 Same-Spin Energy          =      -0.5441823616058918 [Eh]
	 Opposite-Spin Energy      =      -1.6960031431892248 [Eh]
	 Correlation Energy        =      -2.2401855047951167 [Eh]
	 Total Energy              =    -512.0965991784306652 [Eh]

	 ================> DF-SCS-MP2 Energies <==================
	-----------------------------------------------------------
	 SCS Same-Spin Scale       =       0.3333333333333333 [-]
	 SCS Opposite-Spin Scale   =       1.2000000000000000 [-]
	 SCS Same-Spin Energy      =      -0.1813941205352973 [Eh]
	 SCS Opposite-Spin Energy  =      -2.0352037718270699 [Eh]
	 SCS Correlation Energy    =      -2.2165978923623673 [Eh]
	 SCS Total Energy          =    -512.0730115659979447 [Eh]
	-----------------------------------------------------------

  Dipole Moment: [D]
     X:     0.7285      Y:     0.0817      Z:     1.5548     Total:     1.7189

*** Psi4 exiting successfully. Buy a developer a beer!
