                               Psi4 1.3.2 release

  ==> Input File <==

--------------------------------------------------------------------------
#psi4
#
memory 32 gb

molecule  {
0 1
  O       -0.7670850     1.7208920    -0.4354900
  N        1.6863020     0.4747470     0.1388600
  N       -1.9291830    -0.1915810     0.0453950
  N        0.7639310    -1.5088640    -0.3477740
  C        0.5182450    -0.2160980    -0.0822800
  C       -0.7573787     0.5322026    -0.3086793
  C        2.7114570    -0.4276410     0.0208990
  C        1.8666300     1.8964630     0.4257140
  C       -3.1904980     0.5035560    -0.1598940
  C       -2.0503370    -1.5461500     0.5645390
  C        2.1210610    -1.6392390    -0.2794470
  H        3.7418240    -0.1353950     0.1686580
  H        1.1394670     2.2188990     1.1681400
  H        2.8785810     2.0278530     0.8121890
  H        1.7220340     2.4842350    -0.4794890
  H       -3.8467550    -0.1153850    -0.7799180
  H       -2.9915450     1.4520350    -0.6543500
  H       -3.6876690     0.6913720     0.7990550
  H       -1.0742680    -1.9474190     0.8155770
  H       -2.5092790    -2.1983750    -0.1864030
  H       -2.6938370    -1.5270200     1.4518100
  H        2.6051200    -2.5920870    -0.4498700
units angstrom
no_reorient  #important for SAPT in psi4, default
symmetry c1  #important for SAPT in psi4, default
}

set PROPERTIES_ORIGIN ["COM"]
properties('MP2/aug-cc-pvtz', properties = ['dipole'])
--------------------------------------------------------------------------

    Molecular point group: c1
  Charge       = 0
  Multiplicity = 1
  Basis Set: AUG-CC-PVTZ
    Blend: AUG-CC-PVTZ
  Basis Set: (AUG-CC-PVTZ AUX)
    Blend: AUG-CC-PVTZ-JKFIT

    Orbital Energies [Eh]
    ---------------------

    Doubly Occupied:

       1A    -20.532448     2A    -15.634875     3A    -15.579227
       4A    -15.562198     5A    -11.366464     6A    -11.304701
       7A    -11.274984     8A    -11.270744     9A    -11.252314
      10A    -11.249299    11A    -11.246280    12A     -1.411731
      13A     -1.347217    14A     -1.230379    15A     -1.189458
      16A     -1.030997    17A     -0.976761    18A     -0.959605
      19A     -0.924146    20A     -0.829107    21A     -0.810021
      22A     -0.742471    23A     -0.706029    24A     -0.671241
      25A     -0.655443    26A     -0.643045    27A     -0.635959
      28A     -0.606086    29A     -0.594906    30A     -0.582943
      31A     -0.564655    32A     -0.558151    33A     -0.551640
      34A     -0.547594    35A     -0.535805    36A     -0.522575
      37A     -0.454891    38A     -0.430179    39A     -0.392341
      40A     -0.365638    41A     -0.321567

  @DF-RHF Final Energy:  -509.84948519826884

   => Energetics <=

    Nuclear Repulsion Energy =            628.6438675310550934
    One-Electron Energy =               -1940.8544747554556125
    Two-Electron Energy =                 802.3611220261316248
    Total Energy =                       -509.8494851982688942
  Basis Set: (AUG-CC-PVTZ AUX)
    Blend: AUG-CC-PVTZ-RI
    Molecular point group: c1

    Geometry (in Angstrom), charge = 0, multiplicity = 1:

       Center              X                  Y                   Z               Mass
    ------------   -----------------  -----------------  -----------------  -----------------
         O           -0.799116844196     1.721149208154    -0.406755845572    15.994914619570
         N            1.654270155804     0.475004208154     0.167594154428    14.003074004430
         N           -1.961214844196    -0.191323791846     0.074129154428    14.003074004430
         N            0.731899155804    -1.508606791846    -0.319039845572    14.003074004430
         C            0.486213155804    -0.215840791846    -0.053545845572    12.000000000000
         C           -0.789410544196     0.532459808154    -0.279945145572    12.000000000000
         C            2.679425155804    -0.427383791846     0.049633154428    12.000000000000
         C            1.834598155804     1.896720208154     0.454448154428    12.000000000000
         C           -3.222529844196     0.503813208154    -0.131159845572    12.000000000000
         C           -2.082368844196    -1.545892791846     0.593273154428    12.000000000000
         C            2.089029155804    -1.638981791846    -0.250712845572    12.000000000000
         H            3.709792155804    -0.135137791846     0.197392154428     1.007825032230
         H            1.107435155804     2.219156208154     1.196874154428     1.007825032230
         H            2.846549155804     2.028110208154     0.840923154428     1.007825032230
         H            1.690002155804     2.484492208154    -0.450754845572     1.007825032230
         H           -3.878786844196    -0.115127791846    -0.751183845572     1.007825032230
         H           -3.023576844196     1.452292208154    -0.625615845572     1.007825032230
         H           -3.719700844196     0.691629208154     0.827789154428     1.007825032230
         H           -1.106299844196    -1.947161791846     0.844311154428     1.007825032230
         H           -2.541310844196    -2.198117791846    -0.157668845572     1.007825032230
         H           -2.725868844196    -1.526762791846     1.480544154428     1.007825032230
         H            2.573088155804    -2.591829791846    -0.421135845572     1.007825032230

  Basis Set: AUG-CC-PVTZ
    Blend: AUG-CC-PVTZ
  Basis Set: (AUG-CC-PVTZ AUX)
    Blend: AUG-CC-PVTZ-JKFIT
	 Reference Energy          =    -509.8494851982688374 [Eh]
	 Singles Energy            =      -0.0000000000000000 [Eh]
	 Same-Spin Energy          =      -0.5435277777611776 [Eh]
	 Opposite-Spin Energy      =      -1.6949340226455647 [Eh]
	 Correlation Energy        =      -2.2384618004067423 [Eh]
	 Total Energy              =    -512.0879469986755339 [Eh]

	 ================> DF-SCS-MP2 Energies <==================
	-----------------------------------------------------------
	 SCS Same-Spin Scale       =       0.3333333333333333 [-]
	 SCS Opposite-Spin Scale   =       1.2000000000000000 [-]
	 SCS Same-Spin Energy      =      -0.1811759259203925 [Eh]
	 SCS Opposite-Spin Energy  =      -2.0339208271746774 [Eh]
	 SCS Correlation Energy    =      -2.2150967530950698 [Eh]
	 SCS Total Energy          =    -512.0645819513639481 [Eh]
	-----------------------------------------------------------

  Dipole Moment: [D]
     X:     1.1952      Y:     0.3955      Z:     1.4741     Total:     1.9385

*** Psi4 exiting successfully. Buy a developer a beer!
