                               Psi4 1.3.2 release

  ==> Input File <==

--------------------------------------------------------------------------
#psi4
#
memory 32 gb

molecule  {
0 1
  O       -0.7670850     1.7208920    -0.4354900
  N        1.6863020     0.4747470     0.1388600
  N       -1.9291830    -0.1915810     0.0453950
  N        0.7639310    -1.5088640    -0.3477740
  C        0.5182450    -0.2160980    -0.0822800
  C       -0.7756170     0.5047820    -0.1623390
  C        2.7114570    -0.4276410     0.0208990
  C        1.8666300     1.8964630     0.4257140
  C       -3.1904980     0.5035560    -0.1598940
  C       -2.0503370    -1.5461500     0.5645390
  C        2.1210610    -1.6392390    -0.2794470
  H        3.7418240    -0.1353950     0.1686580
  H        1.1394670     2.2188990     1.1681400
  H        2.8785810     2.0278530     0.8121890
  H        1.7220340     2.4842350    -0.4794890
  H       -3.8467550    -0.1153850    -0.7799180
  H       -2.9915450     1.4520350    -0.6543500
  H       -3.6876690     0.6913720     0.7990550
  H       -1.0742680    -1.9474190     0.8155770
  H       -2.5092790    -2.1983750    -0.1864030
  H       -2.6938370    -1.5270200     1.4518100
  H        2.6085575    -2.5816469    -0.4986469
units angstrom
no_reorient  #important for SAPT in psi4, default
symmetry c1  #important for SAPT in psi4, default
}

set PROPERTIES_ORIGIN ["COM"]
properties('MP2/aug-cc-pvtz', properties = ['dipole'])
--------------------------------------------------------------------------

    Molecular point group: c1
  Charge       = 0
  Multiplicity = 1
  Basis Set: AUG-CC-PVTZ
    Blend: AUG-CC-PVTZ
  Basis Set: (AUG-CC-PVTZ AUX)
    Blend: AUG-CC-PVTZ-JKFIT

    Orbital Energies [Eh]
    ---------------------

    Doubly Occupied:

       1A    -20.517688     2A    -15.633814     3A    -15.592080
       4A    -15.561617     5A    -11.363067     6A    -11.305449
       7A    -11.272030     8A    -11.269418     9A    -11.255345
      10A    -11.252834    11A    -11.251504    12A     -1.380573
      13A     -1.342063    14A     -1.245513    15A     -1.188798
      16A     -1.031994    17A     -0.976616    18A     -0.966682
      19A     -0.938819    20A     -0.831838    21A     -0.810803
      22A     -0.741886    23A     -0.709797    24A     -0.662414
      25A     -0.655473    26A     -0.645897    27A     -0.640012
      28A     -0.605486    29A     -0.592331    30A     -0.574262
      31A     -0.563591    32A     -0.557544    33A     -0.554715
      34A     -0.553127    35A     -0.527207    36A     -0.522941
      37A     -0.450674    38A     -0.428868    39A     -0.391492
      40A     -0.373170    41A     -0.320599

  @DF-RHF Final Energy:  -509.86028693921838

   => Energetics <=

    Nuclear Repulsion Energy =            628.9819869878721192
    One-Electron Energy =               -1941.5644857091015183
    Two-Electron Energy =                 802.7222117820110725
    Total Energy =                       -509.8602869392184402
  Basis Set: (AUG-CC-PVTZ AUX)
    Blend: AUG-CC-PVTZ-RI
    Molecular point group: c1

    Geometry (in Angstrom), charge = 0, multiplicity = 1:

       Center              X                  Y                   Z               Mass
    ------------   -----------------  -----------------  -----------------  -----------------
         O           -0.797709862008     1.723229846764    -0.417905644093    15.994914619570
         N            1.655677137992     0.477084846764     0.156444355907    14.003074004430
         N           -1.959807862008    -0.189243153236     0.062979355907    14.003074004430
         N            0.733306137992    -1.506526153236    -0.330189644093    14.003074004430
         C            0.487620137992    -0.213760153236    -0.064695644093    12.000000000000
         C           -0.806241862008     0.507119846764    -0.144754644093    12.000000000000
         C            2.680832137992    -0.425303153236     0.038483355907    12.000000000000
         C            1.836005137992     1.898800846764     0.443298355907    12.000000000000
         C           -3.221122862008     0.505893846764    -0.142309644093    12.000000000000
         C           -2.080961862008    -1.543812153236     0.582123355907    12.000000000000
         C            2.090436137992    -1.636901153236    -0.261862644093    12.000000000000
         H            3.711199137992    -0.133057153236     0.186242355907     1.007825032230
         H            1.108842137992     2.221236846764     1.185724355907     1.007825032230
         H            2.847956137992     2.030190846764     0.829773355907     1.007825032230
         H            1.691409137992     2.486572846764    -0.461904644093     1.007825032230
         H           -3.877379862008    -0.113047153236    -0.762333644093     1.007825032230
         H           -3.022169862008     1.454372846764    -0.636765644093     1.007825032230
         H           -3.718293862008     0.693709846764     0.816639355907     1.007825032230
         H           -1.104892862008    -1.945081153236     0.833161355907     1.007825032230
         H           -2.539903862008    -2.196037153236    -0.168818644093     1.007825032230
         H           -2.724461862008    -1.524682153236     1.469394355907     1.007825032230
         H            2.577932637992    -2.579309053236    -0.481062544093     1.007825032230

  Basis Set: AUG-CC-PVTZ
    Blend: AUG-CC-PVTZ
  Basis Set: (AUG-CC-PVTZ AUX)
    Blend: AUG-CC-PVTZ-JKFIT
	 Reference Energy          =    -509.8602869392183834 [Eh]
	 Singles Energy            =      -0.0000000000000000 [Eh]
	 Same-Spin Energy          =      -0.5439646524316289 [Eh]
	 Opposite-Spin Energy      =      -1.6955147679064404 [Eh]
	 Correlation Energy        =      -2.2394794203380695 [Eh]
	 Total Energy              =    -512.0997663595564973 [Eh]

	 ================> DF-SCS-MP2 Energies <==================
	-----------------------------------------------------------
	 SCS Same-Spin Scale       =       0.3333333333333333 [-]
	 SCS Opposite-Spin Scale   =       1.2000000000000000 [-]
	 SCS Same-Spin Energy      =      -0.1813215508105430 [Eh]
	 SCS Opposite-Spin Energy  =      -2.0346177214877286 [Eh]
	 SCS Correlation Energy    =      -2.2159392722982716 [Eh]
	 SCS Total Energy          =    -512.0762262115166550 [Eh]
	-----------------------------------------------------------

  Dipole Moment: [D]
     X:     0.7466      Y:     0.0058      Z:     1.6830     Total:     1.8412

*** Psi4 exiting successfully. Buy a developer a beer!
