                               Psi4 1.3.2 release

  ==> Input File <==

--------------------------------------------------------------------------
#psi4
#
memory 32 gb

molecule  {
0 1
  O       -0.7670850     1.7208920    -0.4354900
  N        1.6863020     0.4747470     0.1388600
  N       -1.9291830    -0.1915810     0.0453950
  N        0.7639310    -1.5088640    -0.3477740
  C        0.5182450    -0.2160980    -0.0822800
  C       -0.7756170     0.5047820    -0.1623390
  C        2.7114570    -0.4276410     0.0208990
  C        1.8666300     1.8964630     0.4257140
  C       -3.1904980     0.5035560    -0.1598940
  C       -2.0503370    -1.5461500     0.5645390
  C        2.1210610    -1.6392390    -0.2794470
  H        3.7418240    -0.1353950     0.1686580
  H        1.1394670     2.2188990     1.1681400
  H        2.8785810     2.0278530     0.8121890
  H        1.7220340     2.4842350    -0.4794890
  H       -3.8467550    -0.1153850    -0.7799180
  H       -2.9915450     1.4520350    -0.6543500
  H       -3.6876690     0.6913720     0.7990550
  H       -1.0742680    -1.9474190     0.8155770
  H       -2.5092790    -2.1983750    -0.1864030
  H       -2.6938370    -1.5270200     1.4518100
  H        2.6188700    -2.5503264    -0.6449776
units angstrom
no_reorient  #important for SAPT in psi4, default
symmetry c1  #important for SAPT in psi4, default
}

set PROPERTIES_ORIGIN ["COM"]
properties('MP2/aug-cc-pvtz', properties = ['dipole'])
--------------------------------------------------------------------------

    Molecular point group: c1
  Charge       = 0
  Multiplicity = 1
  Basis Set: AUG-CC-PVTZ
    Blend: AUG-CC-PVTZ
  Basis Set: (AUG-CC-PVTZ AUX)
    Blend: AUG-CC-PVTZ-JKFIT

    Orbital Energies [Eh]
    ---------------------

    Doubly Occupied:

       1A    -20.517795     2A    -15.634163     3A    -15.592146
       4A    -15.561837     5A    -11.363214     6A    -11.305698
       7A    -11.272226     8A    -11.269951     9A    -11.255380
      10A    -11.252889    11A    -11.252852    12A     -1.380722
      13A     -1.342343    14A     -1.245591    15A     -1.188984
      16A     -1.031999    17A     -0.976778    18A     -0.966711
      19A     -0.938745    20A     -0.831123    21A     -0.810218
      22A     -0.741516    23A     -0.709780    24A     -0.662095
      25A     -0.655561    26A     -0.646060    27A     -0.640298
      28A     -0.603958    29A     -0.591832    30A     -0.574005
      31A     -0.562566    32A     -0.558987    33A     -0.553621
      34A     -0.553262    35A     -0.526997    36A     -0.522760
      37A     -0.450530    38A     -0.429002    39A     -0.391523
      40A     -0.373256    41A     -0.320578

  @DF-RHF Final Energy:  -509.85794252891844

   => Energetics <=

    Nuclear Repulsion Energy =            628.9107032492776170
    One-Electron Energy =               -1941.4181857739192765
    Two-Electron Energy =                 802.6495399957231029
    Total Energy =                       -509.8579425289184428
  Basis Set: (AUG-CC-PVTZ AUX)
    Blend: AUG-CC-PVTZ-RI
    Molecular point group: c1

    Geometry (in Angstrom), charge = 0, multiplicity = 1:

       Center              X                  Y                   Z               Mass
    ------------   -----------------  -----------------  -----------------  -----------------
         O           -0.797777751362     1.723023657331    -0.416942318348    15.994914619570
         N            1.655609248638     0.476878657331     0.157407681652    14.003074004430
         N           -1.959875751362    -0.189449342669     0.063942681652    14.003074004430
         N            0.733238248638    -1.506732342669    -0.329226318348    14.003074004430
         C            0.487552248638    -0.213966342669    -0.063732318348    12.000000000000
         C           -0.806309751362     0.506913657331    -0.143791318348    12.000000000000
         C            2.680764248638    -0.425509342669     0.039446681652    12.000000000000
         C            1.835937248638     1.898594657331     0.444261681652    12.000000000000
         C           -3.221190751362     0.505687657331    -0.141346318348    12.000000000000
         C           -2.081029751362    -1.544018342669     0.583086681652    12.000000000000
         C            2.090368248638    -1.637107342669    -0.260899318348    12.000000000000
         H            3.711131248638    -0.133263342669     0.187205681652     1.007825032230
         H            1.108774248638     2.221030657331     1.186687681652     1.007825032230
         H            2.847888248638     2.029984657331     0.830736681652     1.007825032230
         H            1.691341248638     2.486366657331    -0.460941318348     1.007825032230
         H           -3.877447751362    -0.113253342669    -0.761370318348     1.007825032230
         H           -3.022237751362     1.454166657331    -0.635802318348     1.007825032230
         H           -3.718361751362     0.693503657331     0.817602681652     1.007825032230
         H           -1.104960751362    -1.945287342669     0.834124681652     1.007825032230
         H           -2.539971751362    -2.196243342669    -0.167855318348     1.007825032230
         H           -2.724529751362    -1.524888342669     1.470357681652     1.007825032230
         H            2.588177248638    -2.548194742669    -0.626429918348     1.007825032230

  Basis Set: AUG-CC-PVTZ
    Blend: AUG-CC-PVTZ
  Basis Set: (AUG-CC-PVTZ AUX)
    Blend: AUG-CC-PVTZ-JKFIT
	 Reference Energy          =    -509.8579425289184428 [Eh]
	 Singles Energy            =      -0.0000000000000000 [Eh]
	 Same-Spin Energy          =      -0.5441047881589884 [Eh]
	 Opposite-Spin Energy      =      -1.6958131460403676 [Eh]
	 Correlation Energy        =      -2.2399179341993563 [Eh]
	 Total Energy              =    -512.0978604631178541 [Eh]

	 ================> DF-SCS-MP2 Energies <==================
	-----------------------------------------------------------
	 SCS Same-Spin Scale       =       0.3333333333333333 [-]
	 SCS Opposite-Spin Scale   =       1.2000000000000000 [-]
	 SCS Same-Spin Energy      =      -0.1813682627196628 [Eh]
	 SCS Opposite-Spin Energy  =      -2.0349757752484412 [Eh]
	 SCS Correlation Energy    =      -2.2163440379681041 [Eh]
	 SCS Total Energy          =    -512.0742865668865988 [Eh]
	-----------------------------------------------------------

  Dipole Moment: [D]
     X:     0.7373      Y:     0.0569      Z:     1.5852     Total:     1.7492

*** Psi4 exiting successfully. Buy a developer a beer!
