                               Psi4 1.3.2 release

  ==> Input File <==

--------------------------------------------------------------------------
#psi4
#
memory 32 gb

molecule  {
0 1
  O       -0.7670850     1.7208920    -0.4354900
  N        1.6863020     0.4747470     0.1388600
  N       -1.9291830    -0.1915810     0.0453950
  N        0.7639310    -1.5088640    -0.3477740
  C        0.5182450    -0.2160980    -0.0822800
  C       -0.7391405     0.5596231    -0.4550196
  C        2.7114570    -0.4276410     0.0208990
  C        1.8666300     1.8964630     0.4257140
  C       -3.1904980     0.5035560    -0.1598940
  C       -2.0503370    -1.5461500     0.5645390
  C        2.1210610    -1.6392390    -0.2794470
  H        3.7418240    -0.1353950     0.1686580
  H        1.1394670     2.2188990     1.1681400
  H        2.8785810     2.0278530     0.8121890
  H        1.7220340     2.4842350    -0.4794890
  H       -3.8467550    -0.1153850    -0.7799180
  H       -2.9915450     1.4520350    -0.6543500
  H       -3.6876690     0.6913720     0.7990550
  H       -1.0742680    -1.9474190     0.8155770
  H       -2.5092790    -2.1983750    -0.1864030
  H       -2.6938370    -1.5270200     1.4518100
  H        2.6051200    -2.5920870    -0.4498700
units angstrom
no_reorient  #important for SAPT in psi4, default
symmetry c1  #important for SAPT in psi4, default
}

set PROPERTIES_ORIGIN ["COM"]
properties('MP2/aug-cc-pvtz', properties = ['dipole'])
--------------------------------------------------------------------------

    Molecular point group: c1
  Charge       = 0
  Multiplicity = 1
  Basis Set: AUG-CC-PVTZ
    Blend: AUG-CC-PVTZ
  Basis Set: (AUG-CC-PVTZ AUX)
    Blend: AUG-CC-PVTZ-JKFIT

    Orbital Energies [Eh]
    ---------------------

    Doubly Occupied:

       1A    -20.548844     2A    -15.635379     3A    -15.568015
       4A    -15.562160     5A    -11.373305     6A    -11.306154
       7A    -11.277516     8A    -11.271906     9A    -11.253139
      10A    -11.243096    11A    -11.240061    12A     -1.441613
      13A     -1.349158    14A     -1.212499    15A     -1.189109
      16A     -1.028622    17A     -0.976852    18A     -0.952566
      19A     -0.907441    20A     -0.824897    21A     -0.807374
      22A     -0.743986    23A     -0.704835    24A     -0.679356
      25A     -0.656564    26A     -0.640053    27A     -0.630739
      28A     -0.606613    29A     -0.596775    30A     -0.584918
      31A     -0.566186    32A     -0.564565    33A     -0.550483
      34A     -0.543199    35A     -0.537917    36A     -0.516794
      37A     -0.455636    38A     -0.425324    39A     -0.392894
      40A     -0.356049    41A     -0.320777

  @DF-RHF Final Energy:  -509.81315876226870

   => Energetics <=

    Nuclear Repulsion Energy =            627.7113035323623080
    One-Electron Energy =               -1938.9621846575378186
    Two-Electron Energy =                 801.4377223629068112
    Total Energy =                       -509.8131587622686993
  Basis Set: (AUG-CC-PVTZ AUX)
    Blend: AUG-CC-PVTZ-RI
    Molecular point group: c1

    Geometry (in Angstrom), charge = 0, multiplicity = 1:

       Center              X                  Y                   Z               Mass
    ------------   -----------------  -----------------  -----------------  -----------------
         O           -0.800546448330     1.718999848010    -0.395284938469    15.994914619570
         N            1.652840551670     0.472854848010     0.179065061531    14.003074004430
         N           -1.962644448330    -0.193473151990     0.085600061531    14.003074004430
         N            0.730469551670    -1.510756151990    -0.307568938469    14.003074004430
         C            0.484783551670    -0.217990151990    -0.042074938469    12.000000000000
         C           -0.772601948330     0.557730948010    -0.414814538469    12.000000000000
         C            2.677995551670    -0.429533151990     0.061104061531    12.000000000000
         C            1.833168551670     1.894570848010     0.465919061531    12.000000000000
         C           -3.223959448330     0.501663848010    -0.119688938469    12.000000000000
         C           -2.083798448330    -1.548042151990     0.604744061531    12.000000000000
         C            2.087599551670    -1.641131151990    -0.239241938469    12.000000000000
         H            3.708362551670    -0.137287151990     0.208863061531     1.007825032230
         H            1.106005551670     2.217006848010     1.208345061531     1.007825032230
         H            2.845119551670     2.025960848010     0.852394061531     1.007825032230
         H            1.688572551670     2.482342848010    -0.439283938469     1.007825032230
         H           -3.880216448330    -0.117277151990    -0.739712938469     1.007825032230
         H           -3.025006448330     1.450142848010    -0.614144938469     1.007825032230
         H           -3.721130448330     0.689479848010     0.839260061531     1.007825032230
         H           -1.107729448330    -1.949311151990     0.855782061531     1.007825032230
         H           -2.542740448330    -2.200267151990    -0.146197938469     1.007825032230
         H           -2.727298448330    -1.528912151990     1.492015061531     1.007825032230
         H            2.571658551670    -2.593979151990    -0.409664938469     1.007825032230

  Basis Set: AUG-CC-PVTZ
    Blend: AUG-CC-PVTZ
  Basis Set: (AUG-CC-PVTZ AUX)
    Blend: AUG-CC-PVTZ-JKFIT
	 Reference Energy          =    -509.8131587622686993 [Eh]
	 Singles Energy            =      -0.0000000000000000 [Eh]
	 Same-Spin Energy          =      -0.5443934806872872 [Eh]
	 Opposite-Spin Energy      =      -1.6976552446172932 [Eh]
	 Correlation Energy        =      -2.2420487253045804 [Eh]
	 Total Energy              =    -512.0552074875732842 [Eh]

	 ================> DF-SCS-MP2 Energies <==================
	-----------------------------------------------------------
	 SCS Same-Spin Scale       =       0.3333333333333333 [-]
	 SCS Opposite-Spin Scale   =       1.2000000000000000 [-]
	 SCS Same-Spin Energy      =      -0.1814644935624291 [Eh]
	 SCS Opposite-Spin Energy  =      -2.0371862935407519 [Eh]
	 SCS Correlation Energy    =      -2.2186507871031811 [Eh]
	 SCS Total Energy          =    -512.0318095493719284 [Eh]
	-----------------------------------------------------------

  Dipole Moment: [D]
     X:     1.6071      Y:     0.7966      Z:     1.2083     Total:     2.1627

*** Psi4 exiting successfully. Buy a developer a beer!
