                               Psi4 1.3.2 release

  ==> Input File <==

--------------------------------------------------------------------------
#psi4
#
memory 32 gb

molecule  {
0 1
  O       -0.7670850     1.7208920    -0.4354900
  N        1.6863020     0.4747470     0.1388600
  N       -1.9291830    -0.1915810     0.0453950
  N        0.7639310    -1.5088640    -0.3477740
  C        0.5261993    -0.1841349     0.0640590
  C       -0.7756170     0.5047820    -0.1623390
  C        2.7114570    -0.4276410     0.0208990
  C        1.8666300     1.8964630     0.4257140
  C       -3.1904980     0.5035560    -0.1598940
  C       -2.0503370    -1.5461500     0.5645390
  C        2.1210610    -1.6392390    -0.2794470
  H        3.7418240    -0.1353950     0.1686580
  H        1.1394670     2.2188990     1.1681400
  H        2.8785810     2.0278530     0.8121890
  H        1.7220340     2.4842350    -0.4794890
  H       -3.8467550    -0.1153850    -0.7799180
  H       -2.9915450     1.4520350    -0.6543500
  H       -3.6876690     0.6913720     0.7990550
  H       -1.0742680    -1.9474190     0.8155770
  H       -2.5092790    -2.1983750    -0.1864030
  H       -2.6938370    -1.5270200     1.4518100
  H        2.6051200    -2.5920870    -0.4498700
units angstrom
no_reorient  #important for SAPT in psi4, default
symmetry c1  #important for SAPT in psi4, default
}

set PROPERTIES_ORIGIN ["COM"]
properties('MP2/aug-cc-pvtz', properties = ['dipole'])
--------------------------------------------------------------------------

    Molecular point group: c1
  Charge       = 0
  Multiplicity = 1
  Basis Set: AUG-CC-PVTZ
    Blend: AUG-CC-PVTZ
  Basis Set: (AUG-CC-PVTZ AUX)
    Blend: AUG-CC-PVTZ-JKFIT

    Orbital Energies [Eh]
    ---------------------

    Doubly Occupied:

       1A    -20.516233     2A    -15.641716     3A    -15.590757
       4A    -15.563698     5A    -11.363281     6A    -11.305210
       7A    -11.274320     8A    -11.268587     9A    -11.254853
      10A    -11.253572    11A    -11.251920    12A     -1.380689
      13A     -1.345514    14A     -1.243977    15A     -1.179976
      16A     -1.031682    17A     -0.979414    18A     -0.965624
      19A     -0.940235    20A     -0.830309    21A     -0.809675
      22A     -0.741795    23A     -0.709289    24A     -0.665738
      25A     -0.654904    26A     -0.646931    27A     -0.640088
      28A     -0.604190    29A     -0.592284    30A     -0.572855
      31A     -0.564924    32A     -0.554392    33A     -0.553633
      34A     -0.551881    35A     -0.525844    36A     -0.522267
      37A     -0.445365    38A     -0.430512    39A     -0.387990
      40A     -0.372044    41A     -0.319927

  @DF-RHF Final Energy:  -509.84669755382561

   => Energetics <=

    Nuclear Repulsion Energy =            628.7137787640366469
    One-Electron Energy =               -1941.0247675182442890
    Two-Electron Energy =                 802.4642912003821493
    Total Energy =                       -509.8466975538256065
  Basis Set: (AUG-CC-PVTZ AUX)
    Blend: AUG-CC-PVTZ-RI
    Molecular point group: c1

    Geometry (in Angstrom), charge = 0, multiplicity = 1:

       Center              X                  Y                   Z               Mass
    ------------   -----------------  -----------------  -----------------  -----------------
         O           -0.798310731261     1.720793143587    -0.429697557876    15.994914619570
         N            1.655076268739     0.474648143587     0.144652442124    14.003074004430
         N           -1.960408731261    -0.191679856413     0.051187442124    14.003074004430
         N            0.732705268739    -1.508962856413    -0.341981557876    14.003074004430
         C            0.494973568739    -0.184233756413     0.069851442124    12.000000000000
         C           -0.806842731261     0.504683143587    -0.156546557876    12.000000000000
         C            2.680231268739    -0.427739856413     0.026691442124    12.000000000000
         C            1.835404268739     1.896364143587     0.431506442124    12.000000000000
         C           -3.221723731261     0.503457143587    -0.154101557876    12.000000000000
         C           -2.081562731261    -1.546248856413     0.570331442124    12.000000000000
         C            2.089835268739    -1.639337856413    -0.273654557876    12.000000000000
         H            3.710598268739    -0.135493856413     0.174450442124     1.007825032230
         H            1.108241268739     2.218800143587     1.173932442124     1.007825032230
         H            2.847355268739     2.027754143587     0.817981442124     1.007825032230
         H            1.690808268739     2.484136143587    -0.473696557876     1.007825032230
         H           -3.877980731261    -0.115483856413    -0.774125557876     1.007825032230
         H           -3.022770731261     1.451936143587    -0.648557557876     1.007825032230
         H           -3.718894731261     0.691273143587     0.804847442124     1.007825032230
         H           -1.105493731261    -1.947517856413     0.821369442124     1.007825032230
         H           -2.540504731261    -2.198473856413    -0.180610557876     1.007825032230
         H           -2.725062731261    -1.527118856413     1.457602442124     1.007825032230
         H            2.573894268739    -2.592185856413    -0.444077557876     1.007825032230

  Basis Set: AUG-CC-PVTZ
    Blend: AUG-CC-PVTZ
  Basis Set: (AUG-CC-PVTZ AUX)
    Blend: AUG-CC-PVTZ-JKFIT
	 Reference Energy          =    -509.8466975538256065 [Eh]
	 Singles Energy            =      -0.0000000000000000 [Eh]
	 Same-Spin Energy          =      -0.5454629467867103 [Eh]
	 Opposite-Spin Energy      =      -1.6983645058936663 [Eh]
	 Correlation Energy        =      -2.2438274526803763 [Eh]
	 Total Energy              =    -512.0905250065060272 [Eh]

	 ================> DF-SCS-MP2 Energies <==================
	-----------------------------------------------------------
	 SCS Same-Spin Scale       =       0.3333333333333333 [-]
	 SCS Opposite-Spin Scale   =       1.2000000000000000 [-]
	 SCS Same-Spin Energy      =      -0.1818209822622368 [Eh]
	 SCS Opposite-Spin Energy  =      -2.0380374070723994 [Eh]
	 SCS Correlation Energy    =      -2.2198583893346360 [Eh]
	 SCS Total Energy          =    -512.0665559431602105 [Eh]
	-----------------------------------------------------------

  Dipole Moment: [D]
     X:     0.9310      Y:     0.0541      Z:     1.7644     Total:     1.9957

*** Psi4 exiting successfully. Buy a developer a beer!
