                               Psi4 1.3.2 release

  ==> Input File <==

--------------------------------------------------------------------------
#psi4
#
memory 32 gb

molecule  {
0 1
  O       -0.7670850     1.7208920    -0.4354900
  N        1.6863020     0.4747470     0.1388600
  N       -1.9291830    -0.1915810     0.0453950
  N        0.7639310    -1.5088640    -0.3477740
  C        0.5288507    -0.1734805     0.1128386
  C       -0.7756170     0.5047820    -0.1623390
  C        2.7114570    -0.4276410     0.0208990
  C        1.8666300     1.8964630     0.4257140
  C       -3.1904980     0.5035560    -0.1598940
  C       -2.0503370    -1.5461500     0.5645390
  C        2.1210610    -1.6392390    -0.2794470
  H        3.7418240    -0.1353950     0.1686580
  H        1.1394670     2.2188990     1.1681400
  H        2.8785810     2.0278530     0.8121890
  H        1.7220340     2.4842350    -0.4794890
  H       -3.8467550    -0.1153850    -0.7799180
  H       -2.9915450     1.4520350    -0.6543500
  H       -3.6876690     0.6913720     0.7990550
  H       -1.0742680    -1.9474190     0.8155770
  H       -2.5092790    -2.1983750    -0.1864030
  H       -2.6938370    -1.5270200     1.4518100
  H        2.6051200    -2.5920870    -0.4498700
units angstrom
no_reorient  #important for SAPT in psi4, default
symmetry c1  #important for SAPT in psi4, default
}

set PROPERTIES_ORIGIN ["COM"]
properties('MP2/aug-cc-pvtz', properties = ['dipole'])
--------------------------------------------------------------------------

    Molecular point group: c1
  Charge       = 0
  Multiplicity = 1
  Basis Set: AUG-CC-PVTZ
    Blend: AUG-CC-PVTZ
  Basis Set: (AUG-CC-PVTZ AUX)
    Blend: AUG-CC-PVTZ-JKFIT

    Orbital Energies [Eh]
    ---------------------

    Doubly Occupied:

       1A    -20.515623     2A    -15.644352     3A    -15.590100
       4A    -15.564872     5A    -11.363375     6A    -11.305209
       7A    -11.274874     8A    -11.268975     9A    -11.256228
      10A    -11.252885    11A    -11.251501    12A     -1.380512
      13A     -1.346488    14A     -1.243261    15A     -1.176923
      16A     -1.031214    17A     -0.980215    18A     -0.965112
      19A     -0.940187    20A     -0.829381    21A     -0.808628
      22A     -0.741517    23A     -0.708860    24A     -0.667035
      25A     -0.654554    26A     -0.647201    27A     -0.639637
      28A     -0.604203    29A     -0.591340    30A     -0.572231
      31A     -0.564900    32A     -0.553699    33A     -0.552592
      34A     -0.551359    35A     -0.525337    36A     -0.521181
      37A     -0.443764    38A     -0.430421    39A     -0.387025
      40A     -0.371499    41A     -0.319426

  @DF-RHF Final Energy:  -509.83775583859358

   => Energetics <=

    Nuclear Repulsion Energy =            628.4937381322793044
    One-Electron Energy =               -1940.5875968333307355
    Two-Electron Energy =                 802.2561028624578512
    Total Energy =                       -509.8377558385935799
  Basis Set: (AUG-CC-PVTZ AUX)
    Blend: AUG-CC-PVTZ-RI
    Molecular point group: c1

    Geometry (in Angstrom), charge = 0, multiplicity = 1:

       Center              X                  Y                   Z               Mass
    ------------   -----------------  -----------------  -----------------  -----------------
         O           -0.798518561661     1.719957996791    -0.433521154384    15.994914619570
         N            1.654868438339     0.473812996791     0.140828845616    14.003074004430
         N           -1.960616561661    -0.192515003209     0.047363845616    14.003074004430
         N            0.732497438339    -1.509798003209    -0.345805154384    14.003074004430
         C            0.497417138339    -0.174414503209     0.114807445616    12.000000000000
         C           -0.807050561661     0.503847996791    -0.160370154384    12.000000000000
         C            2.680023438339    -0.428575003209     0.022867845616    12.000000000000
         C            1.835196438339     1.895528996791     0.427682845616    12.000000000000
         C           -3.221931561661     0.502621996791    -0.157925154384    12.000000000000
         C           -2.081770561661    -1.547084003209     0.566507845616    12.000000000000
         C            2.089627438339    -1.640173003209    -0.277478154384    12.000000000000
         H            3.710390438339    -0.136329003209     0.170626845616     1.007825032230
         H            1.108033438339     2.217964996791     1.170108845616     1.007825032230
         H            2.847147438339     2.026918996791     0.814157845616     1.007825032230
         H            1.690600438339     2.483300996791    -0.477520154384     1.007825032230
         H           -3.878188561661    -0.116319003209    -0.777949154384     1.007825032230
         H           -3.022978561661     1.451100996791    -0.652381154384     1.007825032230
         H           -3.719102561661     0.690437996791     0.801023845616     1.007825032230
         H           -1.105701561661    -1.948353003209     0.817545845616     1.007825032230
         H           -2.540712561661    -2.199309003209    -0.184434154384     1.007825032230
         H           -2.725270561661    -1.527954003209     1.453778845616     1.007825032230
         H            2.573686438339    -2.593021003209    -0.447901154384     1.007825032230

  Basis Set: AUG-CC-PVTZ
    Blend: AUG-CC-PVTZ
  Basis Set: (AUG-CC-PVTZ AUX)
    Blend: AUG-CC-PVTZ-JKFIT
	 Reference Energy          =    -509.8377558385935799 [Eh]
	 Singles Energy            =      -0.0000000000000000 [Eh]
	 Same-Spin Energy          =      -0.5461605028997045 [Eh]
	 Opposite-Spin Energy      =      -1.6998929849198547 [Eh]
	 Correlation Energy        =      -2.2460534878195593 [Eh]
	 Total Energy              =    -512.0838093264131885 [Eh]

	 ================> DF-SCS-MP2 Energies <==================
	-----------------------------------------------------------
	 SCS Same-Spin Scale       =       0.3333333333333333 [-]
	 SCS Opposite-Spin Scale   =       1.2000000000000000 [-]
	 SCS Same-Spin Energy      =      -0.1820535009665682 [Eh]
	 SCS Opposite-Spin Energy  =      -2.0398715819038258 [Eh]
	 SCS Correlation Energy    =      -2.2219250828703938 [Eh]
	 SCS Total Energy          =    -512.0596809214639507 [Eh]
	-----------------------------------------------------------

  Dipole Moment: [D]
     X:     1.0044      Y:     0.0593      Z:     1.7679     Total:     2.0342

*** Psi4 exiting successfully. Buy a developer a beer!
