                               Psi4 1.3.2 release

  ==> Input File <==

--------------------------------------------------------------------------
#psi4
#
memory 32 gb

molecule  {
0 1
  N       -3.1276632    -0.3255231     0.0000597
  C       -0.6037160    -0.0000080    -0.0000850
  C        0.0916120    -1.2188480    -0.0000380
  C        0.0915980     1.2188410    -0.0000380
  C        1.4853760    -1.2105100     0.0000370
  C        1.4853620     1.2105190     0.0000370
  C        2.1831530     0.0000080     0.0000710
  C       -2.0399480    -0.0000140    -0.0001810
  H       -0.4610000    -2.1546890    -0.0000690
  H       -0.4610240     2.1546760    -0.0000680
  H        2.0281230    -2.1522080     0.0000640
  H        2.0281000     2.1522220     0.0000650
  H        3.2702100     0.0000140     0.0001300
units angstrom
no_reorient  #important for SAPT in psi4, default
symmetry c1  #important for SAPT in psi4, default
}

set PROPERTIES_ORIGIN ["COM"]
properties('MP2/aug-cc-pvtz', properties = ['dipole'])
--------------------------------------------------------------------------

    Molecular point group: c1
  Charge       = 0
  Multiplicity = 1
  Basis Set: AUG-CC-PVTZ
    Blend: AUG-CC-PVTZ
  Basis Set: (AUG-CC-PVTZ AUX)
    Blend: AUG-CC-PVTZ-JKFIT

    Orbital Energies [Eh]
    ---------------------

    Doubly Occupied:

       1A    -15.568828     2A    -11.291735     3A    -11.272934
       4A    -11.272359     5A    -11.270237     6A    -11.268080
       7A    -11.263267     8A    -11.262857     9A     -1.236489
      10A     -1.181213    11A     -1.060116    12A     -1.045424
      13A     -0.884406    14A     -0.857420    15A     -0.762089
      16A     -0.697542    17A     -0.659470    18A     -0.634953
      19A     -0.616918    20A     -0.566494    21A     -0.554553
      22A     -0.534559    23A     -0.529718    24A     -0.486913
      25A     -0.474227    26A     -0.365134    27A     -0.358706

  @DF-RHF Final Energy:  -322.53968049977465

   => Energetics <=

    Nuclear Repulsion Energy =            300.2818781977832714
    One-Electron Energy =               -1029.6898389587677229
    Two-Electron Energy =                 406.8682802612098044
    Total Energy =                       -322.5396804997746472
  Basis Set: (AUG-CC-PVTZ AUX)
    Blend: AUG-CC-PVTZ-RI
    Molecular point group: c1

    Geometry (in Angstrom), charge = 0, multiplicity = 1:

       Center              X                  Y                   Z               Mass
    ------------   -----------------  -----------------  -----------------  -----------------
         N           -3.078934314317    -0.281284399943     0.000073335790    14.003074004430
         C           -0.554987114317     0.044230700057    -0.000071364210    12.000000000000
         C            0.140340885683    -1.174609299943    -0.000024364210    12.000000000000
         C            0.140326885683     1.263079700057    -0.000024364210    12.000000000000
         C            1.534104885683    -1.166271299943     0.000050635790    12.000000000000
         C            1.534090885683     1.254757700057     0.000050635790    12.000000000000
         C            2.231881885683     0.044246700057     0.000084635790    12.000000000000
         C           -1.991219114317     0.044224700057    -0.000167364210    12.000000000000
         H           -0.412271114317    -2.110450299943    -0.000055364210     1.007825032230
         H           -0.412295114317     2.198914700057    -0.000054364210     1.007825032230
         H            2.076851885683    -2.107969299943     0.000077635790     1.007825032230
         H            2.076828885683     2.196460700057     0.000078635790     1.007825032230
         H            3.318938885683     0.044252700057     0.000143635790     1.007825032230

  Basis Set: AUG-CC-PVTZ
    Blend: AUG-CC-PVTZ
  Basis Set: (AUG-CC-PVTZ AUX)
    Blend: AUG-CC-PVTZ-JKFIT
	 Reference Energy          =    -322.5396804997746472 [Eh]
	 Singles Energy            =      -0.0000000000000000 [Eh]
	 Same-Spin Energy          =      -0.3503244644411361 [Eh]
	 Opposite-Spin Energy      =      -1.0860003215339540 [Eh]
	 Correlation Energy        =      -1.4363247859750901 [Eh]
	 Total Energy              =    -323.9760052857497499 [Eh]

	 ================> DF-SCS-MP2 Energies <==================
	-----------------------------------------------------------
	 SCS Same-Spin Scale       =       0.3333333333333333 [-]
	 SCS Opposite-Spin Scale   =       1.2000000000000000 [-]
	 SCS Same-Spin Energy      =      -0.1167748214803787 [Eh]
	 SCS Opposite-Spin Energy  =      -1.3032003858407448 [Eh]
	 SCS Correlation Energy    =      -1.4199752073211236 [Eh]
	 SCS Total Energy          =    -323.9596557070957488 [Eh]
	-----------------------------------------------------------

  Dipole Moment: [D]
     X:     4.3444      Y:     0.4691      Z:    -0.0002     Total:     4.3697

*** Psi4 exiting successfully. Buy a developer a beer!
