                               Psi4 1.3.2 release

  ==> Input File <==

--------------------------------------------------------------------------
#psi4
#
memory 32 gb

molecule  {
0 1
  N       -3.2171258    -0.0077667    -0.1233281
  C       -0.6037160    -0.0000080    -0.0000850
  C        0.0916120    -1.2188480    -0.0000380
  C        0.0915980     1.2188410    -0.0000380
  C        1.4853760    -1.2105100     0.0000370
  C        1.4853620     1.2105190     0.0000370
  C        2.1831530     0.0000080     0.0000710
  C       -2.0399480    -0.0000140    -0.0001810
  H       -0.4610000    -2.1546890    -0.0000690
  H       -0.4610240     2.1546760    -0.0000680
  H        2.0281230    -2.1522080     0.0000640
  H        2.0281000     2.1522220     0.0000650
  H        3.2702100     0.0000140     0.0001300
units angstrom
no_reorient  #important for SAPT in psi4, default
symmetry c1  #important for SAPT in psi4, default
}

set PROPERTIES_ORIGIN ["COM"]
properties('MP2/aug-cc-pvtz', properties = ['dipole'])
--------------------------------------------------------------------------

    Molecular point group: c1
  Charge       = 0
  Multiplicity = 1
  Basis Set: AUG-CC-PVTZ
    Blend: AUG-CC-PVTZ
  Basis Set: (AUG-CC-PVTZ AUX)
    Blend: AUG-CC-PVTZ-JKFIT

    Orbital Energies [Eh]
    ---------------------

    Doubly Occupied:

       1A    -15.582409     2A    -11.294166     3A    -11.287023
       4A    -11.275116     5A    -11.275065     6A    -11.270140
       7A    -11.264867     8A    -11.264722     9A     -1.215210
      10A     -1.179714    11A     -1.062423    12A     -1.047387
      13A     -0.888008    14A     -0.859370    15A     -0.765580
      16A     -0.700256    17A     -0.661059    18A     -0.637505
      19A     -0.618750    20A     -0.567047    21A     -0.552796
      22A     -0.535330    23A     -0.530707    24A     -0.476919
      25A     -0.460309    26A     -0.366913    27A     -0.358108

  @DF-RHF Final Energy:  -322.53632761533959

   => Energetics <=

    Nuclear Repulsion Energy =            298.6804392144017015
    One-Electron Energy =               -1026.4397368837553586
    Two-Electron Energy =                 405.2229700540140129
    Total Energy =                       -322.5363276153395873
  Basis Set: (AUG-CC-PVTZ AUX)
    Blend: AUG-CC-PVTZ-RI
    Molecular point group: c1

    Geometry (in Angstrom), charge = 0, multiplicity = 1:

       Center              X                  Y                   Z               Mass
    ------------   -----------------  -----------------  -----------------  -----------------
         N           -3.156239260282    -0.006709981894    -0.106546494304    14.003074004430
         C           -0.542829460282     0.001048718106     0.016696605696    12.000000000000
         C            0.152498539718    -1.217791281894     0.016743605696    12.000000000000
         C            0.152484539718     1.219897718106     0.016743605696    12.000000000000
         C            1.546262539718    -1.209453281894     0.016818605696    12.000000000000
         C            1.546248539718     1.211575718106     0.016818605696    12.000000000000
         C            2.244039539718     0.001064718106     0.016852605696    12.000000000000
         C           -1.979061460282     0.001042718106     0.016600605696    12.000000000000
         H           -0.400113460282    -2.153632281894     0.016712605696     1.007825032230
         H           -0.400137460282     2.155732718106     0.016713605696     1.007825032230
         H            2.089009539718    -2.151151281894     0.016845605696     1.007825032230
         H            2.088986539718     2.153278718106     0.016846605696     1.007825032230
         H            3.331096539718     0.001070718106     0.016911605696     1.007825032230

  Basis Set: AUG-CC-PVTZ
    Blend: AUG-CC-PVTZ
  Basis Set: (AUG-CC-PVTZ AUX)
    Blend: AUG-CC-PVTZ-JKFIT
	 Reference Energy          =    -322.5363276153395873 [Eh]
	 Singles Energy            =      -0.0000000000000000 [Eh]
	 Same-Spin Energy          =      -0.3530767390265338 [Eh]
	 Opposite-Spin Energy      =      -1.0915124051806411 [Eh]
	 Correlation Energy        =      -1.4445891442071748 [Eh]
	 Total Energy              =    -323.9809167595467443 [Eh]

	 ================> DF-SCS-MP2 Energies <==================
	-----------------------------------------------------------
	 SCS Same-Spin Scale       =       0.3333333333333333 [-]
	 SCS Opposite-Spin Scale   =       1.2000000000000000 [-]
	 SCS Same-Spin Energy      =      -0.1176922463421779 [Eh]
	 SCS Opposite-Spin Energy  =      -1.3098148862167693 [Eh]
	 SCS Correlation Energy    =      -1.4275071325589472 [Eh]
	 SCS Total Energy          =    -323.9638347478985452 [Eh]
	-----------------------------------------------------------

  Dipole Moment: [D]
     X:     4.5023      Y:     0.0105      Z:     0.1769     Total:     4.5058

*** Psi4 exiting successfully. Buy a developer a beer!
