                               Psi4 1.3.2 release

  ==> Input File <==

--------------------------------------------------------------------------
#psi4
#
memory 32 gb

molecule  {
0 1
  N       -3.2207150    -0.0051807    -0.0822513
  C       -0.6037160    -0.0000080    -0.0000850
  C        0.0916120    -1.2188480    -0.0000380
  C        0.0915980     1.2188410    -0.0000380
  C        1.4853760    -1.2105100     0.0000370
  C        1.4853620     1.2105190     0.0000370
  C        2.1831530     0.0000080     0.0000710
  C       -2.0399480    -0.0000140    -0.0001810
  H       -0.4610000    -2.1546890    -0.0000690
  H       -0.4610240     2.1546760    -0.0000680
  H        2.0281230    -2.1522080     0.0000640
  H        2.0281000     2.1522220     0.0000650
  H        3.2702100     0.0000140     0.0001300
units angstrom
no_reorient  #important for SAPT in psi4, default
symmetry c1  #important for SAPT in psi4, default
}

set PROPERTIES_ORIGIN ["COM"]
properties('MP2/aug-cc-pvtz', properties = ['dipole'])
--------------------------------------------------------------------------

    Molecular point group: c1
  Charge       = 0
  Multiplicity = 1
  Basis Set: AUG-CC-PVTZ
    Blend: AUG-CC-PVTZ
  Basis Set: (AUG-CC-PVTZ AUX)
    Blend: AUG-CC-PVTZ-JKFIT

    Orbital Energies [Eh]
    ---------------------

    Doubly Occupied:

       1A    -15.582224     2A    -11.294192     3A    -11.287021
       4A    -11.275223     5A    -11.275173     6A    -11.270252
       7A    -11.264930     8A    -11.264786     9A     -1.215047
      10A     -1.179778    11A     -1.062540    12A     -1.047468
      13A     -0.888123    14A     -0.859444    15A     -0.765667
      16A     -0.700341    17A     -0.661133    18A     -0.637570
      19A     -0.618827    20A     -0.566949    21A     -0.552827
      22A     -0.535389    23A     -0.530772    24A     -0.476893
      25A     -0.460195    26A     -0.366982    27A     -0.358229

  @DF-RHF Final Energy:  -322.53665363252310

   => Energetics <=

    Nuclear Repulsion Energy =            298.6574509202963554
    One-Electron Energy =               -1026.3922587056565590
    Two-Electron Energy =                 405.1981541528371054
    Total Energy =                       -322.5366536325230982
  Basis Set: (AUG-CC-PVTZ AUX)
    Blend: AUG-CC-PVTZ-RI
    Molecular point group: c1

    Geometry (in Angstrom), charge = 0, multiplicity = 1:

       Center              X                  Y                   Z               Mass
    ------------   -----------------  -----------------  -----------------  -----------------
         N           -3.159340700572    -0.004475410238    -0.071051887569    14.003074004430
         C           -0.542341700572     0.000697289762     0.011114412431    12.000000000000
         C            0.152986299428    -1.218142710238     0.011161412431    12.000000000000
         C            0.152972299428     1.219546289762     0.011161412431    12.000000000000
         C            1.546750299428    -1.209804710238     0.011236412431    12.000000000000
         C            1.546736299428     1.211224289762     0.011236412431    12.000000000000
         C            2.244527299428     0.000713289762     0.011270412431    12.000000000000
         C           -1.978573700572     0.000691289762     0.011018412431    12.000000000000
         H           -0.399625700572    -2.153983710238     0.011130412431     1.007825032230
         H           -0.399649700572     2.155381289762     0.011131412431     1.007825032230
         H            2.089497299428    -2.151502710238     0.011263412431     1.007825032230
         H            2.089474299428     2.152927289762     0.011264412431     1.007825032230
         H            3.331584299428     0.000719289762     0.011329412431     1.007825032230

  Basis Set: AUG-CC-PVTZ
    Blend: AUG-CC-PVTZ
  Basis Set: (AUG-CC-PVTZ AUX)
    Blend: AUG-CC-PVTZ-JKFIT
	 Reference Energy          =    -322.5366536325230982 [Eh]
	 Singles Energy            =      -0.0000000000000000 [Eh]
	 Same-Spin Energy          =      -0.3530569792283690 [Eh]
	 Opposite-Spin Energy      =      -1.0914768555087104 [Eh]
	 Correlation Energy        =      -1.4445338347370795 [Eh]
	 Total Energy              =    -323.9811874672601562 [Eh]

	 ================> DF-SCS-MP2 Energies <==================
	-----------------------------------------------------------
	 SCS Same-Spin Scale       =       0.3333333333333333 [-]
	 SCS Opposite-Spin Scale   =       1.2000000000000000 [-]
	 SCS Same-Spin Energy      =      -0.1176856597427897 [Eh]
	 SCS Opposite-Spin Energy  =      -1.3097722266104526 [Eh]
	 SCS Correlation Energy    =      -1.4274578863532423 [Eh]
	 SCS Total Energy          =    -323.9641115188763365 [Eh]
	-----------------------------------------------------------

  Dipole Moment: [D]
     X:     4.5141      Y:     0.0070      Z:     0.1180     Total:     4.5157

*** Psi4 exiting successfully. Buy a developer a beer!
