                               Psi4 1.3.2 release

  ==> Input File <==

--------------------------------------------------------------------------
#psi4
#
memory 32 gb

molecule  {
0 1
  N       -3.2233889     0.0013049     0.0207683
  C       -0.6037160    -0.0000080    -0.0000850
  C        0.0916120    -1.2188480    -0.0000380
  C        0.0915980     1.2188410    -0.0000380
  C        1.4853760    -1.2105100     0.0000370
  C        1.4853620     1.2105190     0.0000370
  C        2.1831530     0.0000080     0.0000710
  C       -2.0399480    -0.0000140    -0.0001810
  H       -0.4610000    -2.1546890    -0.0000690
  H       -0.4610240     2.1546760    -0.0000680
  H        2.0281230    -2.1522080     0.0000640
  H        2.0281000     2.1522220     0.0000650
  H        3.2702100     0.0000140     0.0001300
units angstrom
no_reorient  #important for SAPT in psi4, default
symmetry c1  #important for SAPT in psi4, default
}

set PROPERTIES_ORIGIN ["COM"]
properties('MP2/aug-cc-pvtz', properties = ['dipole'])
--------------------------------------------------------------------------

    Molecular point group: c1
  Charge       = 0
  Multiplicity = 1
  Basis Set: AUG-CC-PVTZ
    Blend: AUG-CC-PVTZ
  Basis Set: (AUG-CC-PVTZ AUX)
    Blend: AUG-CC-PVTZ-JKFIT

    Orbital Energies [Eh]
    ---------------------

    Doubly Occupied:

       1A    -15.582088     2A    -11.294211     3A    -11.287019
       4A    -11.275303     5A    -11.275253     6A    -11.270335
       7A    -11.264977     8A    -11.264834     9A     -1.214927
      10A     -1.179825    11A     -1.062628    12A     -1.047527
      13A     -0.888210    14A     -0.859500    15A     -0.765732
      16A     -0.700404    17A     -0.661188    18A     -0.637619
      19A     -0.618884    20A     -0.566876    21A     -0.552850
      22A     -0.535432    23A     -0.530820    24A     -0.476874
      25A     -0.460111    26A     -0.367033    27A     -0.358320

  @DF-RHF Final Energy:  -322.53689587963299

   => Energetics <=

    Nuclear Repulsion Energy =            298.6403827924901861
    One-Electron Energy =               -1026.3570010062469464
    Two-Electron Energy =                 405.1797223341237668
    Total Energy =                       -322.5368958796329935
  Basis Set: (AUG-CC-PVTZ AUX)
    Blend: AUG-CC-PVTZ-RI
    Molecular point group: c1

    Geometry (in Angstrom), charge = 0, multiplicity = 1:

       Center              X                  Y                   Z               Mass
    ------------   -----------------  -----------------  -----------------  -----------------
         N           -3.161651226926     0.001128819435     0.017967709574    14.003074004430
         C           -0.541978326926    -0.000184080565    -0.002885590426    12.000000000000
         C            0.153349673074    -1.219024080565    -0.002838590426    12.000000000000
         C            0.153335673074     1.218664919435    -0.002838590426    12.000000000000
         C            1.547113673074    -1.210686080565    -0.002763590426    12.000000000000
         C            1.547099673074     1.210342919435    -0.002763590426    12.000000000000
         C            2.244890673074    -0.000168080565    -0.002729590426    12.000000000000
         C           -1.978210326926    -0.000190080565    -0.002981590426    12.000000000000
         H           -0.399262326926    -2.154865080565    -0.002869590426     1.007825032230
         H           -0.399286326926     2.154499919435    -0.002868590426     1.007825032230
         H            2.089860673074    -2.152384080565    -0.002736590426     1.007825032230
         H            2.089837673074     2.152045919435    -0.002735590426     1.007825032230
         H            3.331947673074    -0.000162080565    -0.002670590426     1.007825032230

  Basis Set: AUG-CC-PVTZ
    Blend: AUG-CC-PVTZ
  Basis Set: (AUG-CC-PVTZ AUX)
    Blend: AUG-CC-PVTZ-JKFIT
	 Reference Energy          =    -322.5368958796329935 [Eh]
	 Singles Energy            =      -0.0000000000000000 [Eh]
	 Same-Spin Energy          =      -0.3530422144576765 [Eh]
	 Opposite-Spin Energy      =      -1.0914514882612674 [Eh]
	 Correlation Energy        =      -1.4444937027189440 [Eh]
	 Total Energy              =    -323.9813895823519374 [Eh]

	 ================> DF-SCS-MP2 Energies <==================
	-----------------------------------------------------------
	 SCS Same-Spin Scale       =       0.3333333333333333 [-]
	 SCS Opposite-Spin Scale   =       1.2000000000000000 [-]
	 SCS Same-Spin Energy      =      -0.1176807381525588 [Eh]
	 SCS Opposite-Spin Energy  =      -1.3097417859135208 [Eh]
	 SCS Correlation Energy    =      -1.4274225240660796 [Eh]
	 SCS Total Energy          =    -323.9643184036990533 [Eh]
	-----------------------------------------------------------

  Dipole Moment: [D]
     X:     4.5229      Y:    -0.0018      Z:    -0.0299     Total:     4.5230

*** Psi4 exiting successfully. Buy a developer a beer!
