                               Psi4 1.3.2 release

  ==> Input File <==

--------------------------------------------------------------------------
#psi4
#
memory 32 gb

molecule  {
0 1
  N       -3.2170561     0.0077805     0.1236284
  C       -0.6037160    -0.0000080    -0.0000850
  C        0.0916120    -1.2188480    -0.0000380
  C        0.0915980     1.2188410    -0.0000380
  C        1.4853760    -1.2105100     0.0000370
  C        1.4853620     1.2105190     0.0000370
  C        2.1831530     0.0000080     0.0000710
  C       -2.0399480    -0.0000140    -0.0001810
  H       -0.4610000    -2.1546890    -0.0000690
  H       -0.4610240     2.1546760    -0.0000680
  H        2.0281230    -2.1522080     0.0000640
  H        2.0281000     2.1522220     0.0000650
  H        3.2702100     0.0000140     0.0001300
units angstrom
no_reorient  #important for SAPT in psi4, default
symmetry c1  #important for SAPT in psi4, default
}

set PROPERTIES_ORIGIN ["COM"]
properties('MP2/aug-cc-pvtz', properties = ['dipole'])
--------------------------------------------------------------------------

    Molecular point group: c1
  Charge       = 0
  Multiplicity = 1
  Basis Set: AUG-CC-PVTZ
    Blend: AUG-CC-PVTZ
  Basis Set: (AUG-CC-PVTZ AUX)
    Blend: AUG-CC-PVTZ-JKFIT

    Orbital Energies [Eh]
    ---------------------

    Doubly Occupied:

       1A    -15.582413     2A    -11.294166     3A    -11.287023
       4A    -11.275113     5A    -11.275063     6A    -11.270137
       7A    -11.264866     8A    -11.264721     9A     -1.215214
      10A     -1.179713    11A     -1.062420    12A     -1.047385
      13A     -0.888005    14A     -0.859368    15A     -0.765578
      16A     -0.700254    17A     -0.661057    18A     -0.637504
      19A     -0.618748    20A     -0.567049    21A     -0.552795
      22A     -0.535329    23A     -0.530705    24A     -0.476919
      25A     -0.460312    26A     -0.366911    27A     -0.358105

  @DF-RHF Final Energy:  -322.53631971120399

   => Energetics <=

    Nuclear Repulsion Energy =            298.6809891215586958
    One-Electron Energy =               -1026.4408726832427874
    Two-Electron Energy =                 405.2235638504801045
    Total Energy =                       -322.5363197112039870
  Basis Set: (AUG-CC-PVTZ AUX)
    Blend: AUG-CC-PVTZ-RI
    Molecular point group: c1

    Geometry (in Angstrom), charge = 0, multiplicity = 1:

       Center              X                  Y                   Z               Mass
    ------------   -----------------  -----------------  -----------------  -----------------
         N           -3.156179032268     0.006724408073     0.106849482208    14.003074004430
         C           -0.542838932268    -0.001064091927    -0.016863917792    12.000000000000
         C            0.152489067732    -1.219904091927    -0.016816917792    12.000000000000
         C            0.152475067732     1.217784908073    -0.016816917792    12.000000000000
         C            1.546253067732    -1.211566091927    -0.016741917792    12.000000000000
         C            1.546239067732     1.209462908073    -0.016741917792    12.000000000000
         C            2.244030067732    -0.001048091927    -0.016707917792    12.000000000000
         C           -1.979070932268    -0.001070091927    -0.016959917792    12.000000000000
         H           -0.400122932268    -2.155745091927    -0.016847917792     1.007825032230
         H           -0.400146932268     2.153619908073    -0.016846917792     1.007825032230
         H            2.089000067732    -2.153264091927    -0.016714917792     1.007825032230
         H            2.088977067732     2.151165908073    -0.016713917792     1.007825032230
         H            3.331087067732    -0.001042091927    -0.016648917792     1.007825032230

  Basis Set: AUG-CC-PVTZ
    Blend: AUG-CC-PVTZ
  Basis Set: (AUG-CC-PVTZ AUX)
    Blend: AUG-CC-PVTZ-JKFIT
	 Reference Energy          =    -322.5363197112039870 [Eh]
	 Singles Energy            =      -0.0000000000000000 [Eh]
	 Same-Spin Energy          =      -0.3530772156697595 [Eh]
	 Opposite-Spin Energy      =      -1.0915133100031029 [Eh]
	 Correlation Energy        =      -1.4445905256728624 [Eh]
	 Total Energy              =    -323.9809102368768663 [Eh]

	 ================> DF-SCS-MP2 Energies <==================
	-----------------------------------------------------------
	 SCS Same-Spin Scale       =       0.3333333333333333 [-]
	 SCS Opposite-Spin Scale   =       1.2000000000000000 [-]
	 SCS Same-Spin Energy      =      -0.1176924052232532 [Eh]
	 SCS Opposite-Spin Energy  =      -1.3098159720037235 [Eh]
	 SCS Correlation Energy    =      -1.4275083772269765 [Eh]
	 SCS Total Energy          =    -323.9638280884309438 [Eh]
	-----------------------------------------------------------

  Dipole Moment: [D]
     X:     4.5021      Y:    -0.0106      Z:    -0.1775     Total:     4.5056

*** Psi4 exiting successfully. Buy a developer a beer!
