                               Psi4 1.3.2 release

  ==> Input File <==

--------------------------------------------------------------------------
#psi4
#
memory 32 gb

molecule  {
0 1
  N       -3.2206685     0.0051946     0.0825537
  C       -0.6037160    -0.0000080    -0.0000850
  C        0.0916120    -1.2188480    -0.0000380
  C        0.0915980     1.2188410    -0.0000380
  C        1.4853760    -1.2105100     0.0000370
  C        1.4853620     1.2105190     0.0000370
  C        2.1831530     0.0000080     0.0000710
  C       -2.0399480    -0.0000140    -0.0001810
  H       -0.4610000    -2.1546890    -0.0000690
  H       -0.4610240     2.1546760    -0.0000680
  H        2.0281230    -2.1522080     0.0000640
  H        2.0281000     2.1522220     0.0000650
  H        3.2702100     0.0000140     0.0001300
units angstrom
no_reorient  #important for SAPT in psi4, default
symmetry c1  #important for SAPT in psi4, default
}

set PROPERTIES_ORIGIN ["COM"]
properties('MP2/aug-cc-pvtz', properties = ['dipole'])
--------------------------------------------------------------------------

    Molecular point group: c1
  Charge       = 0
  Multiplicity = 1
  Basis Set: AUG-CC-PVTZ
    Blend: AUG-CC-PVTZ
  Basis Set: (AUG-CC-PVTZ AUX)
    Blend: AUG-CC-PVTZ-JKFIT

    Orbital Energies [Eh]
    ---------------------

    Doubly Occupied:

       1A    -15.582227     2A    -11.294191     3A    -11.287021
       4A    -11.275221     5A    -11.275171     6A    -11.270250
       7A    -11.264929     8A    -11.264785     9A     -1.215050
      10A     -1.179777    11A     -1.062539    12A     -1.047466
      13A     -0.888122    14A     -0.859443    15A     -0.765666
      16A     -0.700339    17A     -0.661132    18A     -0.637569
      19A     -0.618826    20A     -0.566950    21A     -0.552826
      22A     -0.535388    23A     -0.530771    24A     -0.476893
      25A     -0.460197    26A     -0.366981    27A     -0.358227

  @DF-RHF Final Energy:  -322.53664836106924

   => Energetics <=

    Nuclear Repulsion Energy =            298.6578167599244011
    One-Electron Energy =               -1026.3930144988389657
    Two-Electron Energy =                 405.1985493778453815
    Total Energy =                       -322.5366483610692399
  Basis Set: (AUG-CC-PVTZ AUX)
    Blend: AUG-CC-PVTZ-RI
    Molecular point group: c1

    Geometry (in Angstrom), charge = 0, multiplicity = 1:

       Center              X                  Y                   Z               Mass
    ------------   -----------------  -----------------  -----------------  -----------------
         N           -3.159300519759     0.004489922827     0.071356690091    14.003074004430
         C           -0.542348019759    -0.000712677173    -0.011282009909    12.000000000000
         C            0.152979980241    -1.219552677173    -0.011235009909    12.000000000000
         C            0.152965980241     1.218136322827    -0.011235009909    12.000000000000
         C            1.546743980241    -1.211214677173    -0.011160009909    12.000000000000
         C            1.546729980241     1.209814322827    -0.011160009909    12.000000000000
         C            2.244520980241    -0.000696677173    -0.011126009909    12.000000000000
         C           -1.978580019759    -0.000718677173    -0.011378009909    12.000000000000
         H           -0.399632019759    -2.155393677173    -0.011266009909     1.007825032230
         H           -0.399656019759     2.153971322827    -0.011265009909     1.007825032230
         H            2.089490980241    -2.152912677173    -0.011133009909     1.007825032230
         H            2.089467980241     2.151517322827    -0.011132009909     1.007825032230
         H            3.331577980241    -0.000690677173    -0.011067009909     1.007825032230

  Basis Set: AUG-CC-PVTZ
    Blend: AUG-CC-PVTZ
  Basis Set: (AUG-CC-PVTZ AUX)
    Blend: AUG-CC-PVTZ-JKFIT
	 Reference Energy          =    -322.5366483610692399 [Eh]
	 Singles Energy            =      -0.0000000000000000 [Eh]
	 Same-Spin Energy          =      -0.3530573003353571 [Eh]
	 Opposite-Spin Energy      =      -1.0914774391770554 [Eh]
	 Correlation Energy        =      -1.4445347395124126 [Eh]
	 Total Energy              =    -323.9811831005816316 [Eh]

	 ================> DF-SCS-MP2 Energies <==================
	-----------------------------------------------------------
	 SCS Same-Spin Scale       =       0.3333333333333333 [-]
	 SCS Opposite-Spin Scale   =       1.2000000000000000 [-]
	 SCS Same-Spin Energy      =      -0.1176857667784524 [Eh]
	 SCS Opposite-Spin Energy  =      -1.3097729270124665 [Eh]
	 SCS Correlation Energy    =      -1.4274586937909188 [Eh]
	 SCS Total Energy          =    -323.9641070548601647 [Eh]
	-----------------------------------------------------------

  Dipole Moment: [D]
     X:     4.5140      Y:    -0.0071      Z:    -0.1186     Total:     4.5155

*** Psi4 exiting successfully. Buy a developer a beer!
