                               Psi4 1.4a3.dev225

  ==> Input File <==

--------------------------------------------------------------------------
#psi4
#
memory 32 gb

molecule  {
0 1
  N        3.2235920     0.0000000    -0.0000720
  C        0.6037120     0.0000010    -0.0000120
  C       -0.0916070     1.2188380     0.0000020
  C       -0.0916060    -1.2188370     0.0000020
  C       -1.4853720     1.2105070     0.0000330
  C       -1.4853700    -1.2105080     0.0000330
  C       -2.1831670    -0.0000010     0.0000480
  C        2.0199540     0.0000010    -0.0000435
  H        0.4610180     2.1546720    -0.0000100
  H        0.4610230    -2.1546690    -0.0000100
  H       -2.0281130     2.1522020     0.0000440
  H       -2.0281090    -2.1522040     0.0000440
  H       -3.2702320    -0.0000020     0.0000720
units angstrom
no_reorient  #important for SAPT in psi4, default
symmetry c1  #important for SAPT in psi4, default
}

set PROPERTIES_ORIGIN ["COM"]
properties('MP2/aug-cc-pvtz', properties = ['dipole'])
--------------------------------------------------------------------------

    Molecular point group: c1
  Charge       = 0
  Multiplicity = 1
  Basis Set: AUG-CC-PVTZ
    Blend: AUG-CC-PVTZ
  Basis Set: (AUG-CC-PVTZ AUX)
    Blend: AUG-CC-PVTZ-JKFIT

    Orbital Energies [Eh]
    ---------------------

    Doubly Occupied:

       1A    -15.587298     2A    -11.292414     3A    -11.291410
       4A    -11.276004     5A    -11.275948     6A    -11.271152
       7A    -11.265341     8A    -11.265209     9A     -1.209888
      10A     -1.176825    11A     -1.064791    12A     -1.048081
      13A     -0.892262    14A     -0.860292    15A     -0.768061
      16A     -0.701904    17A     -0.662203    18A     -0.638317
      19A     -0.619345    20A     -0.566981    21A     -0.553677
      22A     -0.535995    23A     -0.531367    24A     -0.473390
      25A     -0.453335    26A     -0.367497    27A     -0.356753

  @DF-RHF Final Energy:  -322.53084860251897

   => Energetics <=

    Nuclear Repulsion Energy =            298.7163319728789475
    One-Electron Energy =               -1026.4828862183378533
    Two-Electron Energy =                 405.2357056429399336
    Total Energy =                       -322.5308486025189723
  Basis Set: (AUG-CC-PVTZ AUX)
    Blend: AUG-CC-PVTZ-RI
    Molecular point group: c1

    Geometry (in Angstrom), charge = 0, multiplicity = 1:

       Center              X                  Y                   Z               Mass
    ------------   -----------------  -----------------  -----------------  -----------------
         N            3.164158120992    -0.000000106676    -0.000070863322    14.003074004430
         C            0.544278120992     0.000000893324    -0.000010863322    12.000000000000
         C           -0.151040879008     1.218837893324     0.000003136678    12.000000000000
         C           -0.151039879008    -1.218837106676     0.000003136678    12.000000000000
         C           -1.544805879008     1.210506893324     0.000034136678    12.000000000000
         C           -1.544803879008    -1.210508106676     0.000034136678    12.000000000000
         C           -2.242600879008    -0.000001106676     0.000049136678    12.000000000000
         C            1.960520120992     0.000000893324    -0.000042363322    12.000000000000
         H            0.401584120992     2.154671893324    -0.000008863322     1.007825032230
         H            0.401589120992    -2.154669106676    -0.000008863322     1.007825032230
         H           -2.087546879008     2.152201893324     0.000045136678     1.007825032230
         H           -2.087542879008    -2.152204106676     0.000045136678     1.007825032230
         H           -3.329665879008    -0.000002106676     0.000073136678     1.007825032230

  Basis Set: AUG-CC-PVTZ
    Blend: AUG-CC-PVTZ
  Basis Set: (AUG-CC-PVTZ AUX)
    Blend: AUG-CC-PVTZ-JKFIT
	 Reference Energy          =    -322.5308486025189723 [Eh]
	 Singles Energy            =      -0.0000000000000000 [Eh]
	 Same-Spin Energy          =      -0.3546376827370594 [Eh]
	 Opposite-Spin Energy      =      -1.0943702592992630 [Eh]
	 Correlation Energy        =      -1.4490079420363224 [Eh]
	 Total Energy              =    -323.9798565445552754 [Eh]

	 ================> DF-SCS-MP2 Energies <==================
	-----------------------------------------------------------
	 SCS Same-Spin Scale       =       0.3333333333333333 [-]
	 SCS Opposite-Spin Scale   =       1.2000000000000000 [-]
	 SCS Same-Spin Energy      =      -0.1182125609123531 [Eh]
	 SCS Opposite-Spin Energy  =      -1.3132443111591157 [Eh]
	 SCS Correlation Energy    =      -1.4314568720714689 [Eh]
	 SCS Total Energy          =    -323.9623054745904369 [Eh]
	-----------------------------------------------------------

  Dipole Moment: [D]
     X:    -4.5284      Y:     0.0000      Z:     0.0001     Total:     4.5284

*** Psi4 exiting successfully. Buy a developer a beer!
