                               Psi4 1.4a3.dev225

  ==> Input File <==

--------------------------------------------------------------------------
#psi4
#
memory 32 gb

molecule  {
0 1
  N        3.2235920     0.0000000    -0.0000720
  C        0.6037120     0.0000010    -0.0000120
  C       -0.0916070     1.2188380     0.0000020
  C       -0.0916060    -1.2188370     0.0000020
  C       -1.4853720     1.2105070     0.0000330
  C       -1.4853700    -1.2105080     0.0000330
  C       -2.1831670    -0.0000010     0.0000480
  C        2.0899540     0.0000010    -0.0000452
  H        0.4610180     2.1546720    -0.0000100
  H        0.4610230    -2.1546690    -0.0000100
  H       -2.0281130     2.1522020     0.0000440
  H       -2.0281090    -2.1522040     0.0000440
  H       -3.2702320    -0.0000020     0.0000720
units angstrom
no_reorient  #important for SAPT in psi4, default
symmetry c1  #important for SAPT in psi4, default
}

set PROPERTIES_ORIGIN ["COM"]
properties('MP2/aug-cc-pvtz', properties = ['dipole'])
--------------------------------------------------------------------------

    Molecular point group: c1
  Charge       = 0
  Multiplicity = 1
  Basis Set: AUG-CC-PVTZ
    Blend: AUG-CC-PVTZ
  Basis Set: (AUG-CC-PVTZ AUX)
    Blend: AUG-CC-PVTZ-JKFIT

    Orbital Energies [Eh]
    ---------------------

    Doubly Occupied:

       1A    -15.567508     2A    -11.299376     3A    -11.273939
       4A    -11.273903     5A    -11.273836     6A    -11.268684
       7A    -11.264287     8A    -11.264115     9A     -1.233743
      10A     -1.182231    11A     -1.057419    12A     -1.046428
      13A     -0.878578    14A     -0.857850    15A     -0.759614
      16A     -0.696370    17A     -0.659054    18A     -0.635827
      19A     -0.617984    20A     -0.565697    21A     -0.551654
      22A     -0.533996    23A     -0.529928    24A     -0.486867
      25A     -0.477150    26A     -0.366124    27A     -0.361468

  @DF-RHF Final Energy:  -322.54283084406018

   => Energetics <=

    Nuclear Repulsion Energy =            298.5247061526787320
    One-Electron Energy =               -1026.1678141298050377
    Two-Electron Energy =                 405.1002771330661290
    Total Energy =                       -322.5428308440601768
  Basis Set: (AUG-CC-PVTZ AUX)
    Blend: AUG-CC-PVTZ-RI
    Molecular point group: c1

    Geometry (in Angstrom), charge = 0, multiplicity = 1:

       Center              X                  Y                   Z               Mass
    ------------   -----------------  -----------------  -----------------  -----------------
         N            3.156006121066    -0.000000106676    -0.000070665345    14.003074004430
         C            0.536126121066     0.000000893324    -0.000010665345    12.000000000000
         C           -0.159192878934     1.218837893324     0.000003334655    12.000000000000
         C           -0.159191878934    -1.218837106676     0.000003334655    12.000000000000
         C           -1.552957878934     1.210506893324     0.000034334655    12.000000000000
         C           -1.552955878934    -1.210508106676     0.000034334655    12.000000000000
         C           -2.250752878934    -0.000001106676     0.000049334655    12.000000000000
         C            2.022368121066     0.000000893324    -0.000043865345    12.000000000000
         H            0.393432121066     2.154671893324    -0.000008665345     1.007825032230
         H            0.393437121066    -2.154669106676    -0.000008665345     1.007825032230
         H           -2.095698878934     2.152201893324     0.000045334655     1.007825032230
         H           -2.095694878934    -2.152204106676     0.000045334655     1.007825032230
         H           -3.337817878934    -0.000002106676     0.000073334655     1.007825032230

  Basis Set: AUG-CC-PVTZ
    Blend: AUG-CC-PVTZ
  Basis Set: (AUG-CC-PVTZ AUX)
    Blend: AUG-CC-PVTZ-JKFIT
	 Reference Energy          =    -322.5428308440601768 [Eh]
	 Singles Energy            =      -0.0000000000000000 [Eh]
	 Same-Spin Energy          =      -0.3493429790012991 [Eh]
	 Opposite-Spin Energy      =      -1.0846039244518721 [Eh]
	 Correlation Energy        =      -1.4339469034531711 [Eh]
	 Total Energy              =    -323.9767777475133244 [Eh]

	 ================> DF-SCS-MP2 Energies <==================
	-----------------------------------------------------------
	 SCS Same-Spin Scale       =       0.3333333333333333 [-]
	 SCS Opposite-Spin Scale   =       1.2000000000000000 [-]
	 SCS Same-Spin Energy      =      -0.1164476596670997 [Eh]
	 SCS Opposite-Spin Energy  =      -1.3015247093422466 [Eh]
	 SCS Correlation Energy    =      -1.4179723690093462 [Eh]
	 SCS Total Energy          =    -323.9608032130695392 [Eh]
	-----------------------------------------------------------

  Dipole Moment: [D]
     X:    -4.5132      Y:     0.0000      Z:     0.0001     Total:     4.5132

*** Psi4 exiting successfully. Buy a developer a beer!
