                               Psi4 1.3.2 release

  ==> Input File <==

--------------------------------------------------------------------------
#psi4
#
memory 32 gb

molecule  {
0 1
  N       -3.2228656    -0.0025884    -0.0410746
  C       -0.6037160    -0.0000080    -0.0000850
  C        0.0916120    -1.2188480    -0.0000380
  C        0.0915980     1.2188410    -0.0000380
  C        1.4853760    -1.2105100     0.0000370
  C        1.4853620     1.2105190     0.0000370
  C        2.1831530     0.0000080     0.0000710
  C       -2.0399480    -0.0000140    -0.0001810
  H       -0.4610000    -2.1546890    -0.0000690
  H       -0.4610240     2.1546760    -0.0000680
  H        2.0281230    -2.1522080     0.0000640
  H        2.0281000     2.1522220     0.0000650
  H        3.2702100     0.0000140     0.0001300
units angstrom
no_reorient  #important for SAPT in psi4, default
symmetry c1  #important for SAPT in psi4, default
}

set PROPERTIES_ORIGIN ["COM"]
properties('MP2/aug-cc-pvtz', properties = ['dipole'])
--------------------------------------------------------------------------

    Molecular point group: c1
  Charge       = 0
  Multiplicity = 1
  Basis Set: AUG-CC-PVTZ
    Blend: AUG-CC-PVTZ
  Basis Set: (AUG-CC-PVTZ AUX)
    Blend: AUG-CC-PVTZ-JKFIT

    Orbital Energies [Eh]
    ---------------------

    Doubly Occupied:

       1A    -15.582114     2A    -11.294207     3A    -11.287019
       4A    -11.275287     5A    -11.275237     6A    -11.270319
       7A    -11.264968     8A    -11.264825     9A     -1.214950
      10A     -1.179815    11A     -1.062611    12A     -1.047516
      13A     -0.888193    14A     -0.859489    15A     -0.765720
      16A     -0.700391    17A     -0.661177    18A     -0.637609
      19A     -0.618873    20A     -0.566890    21A     -0.552845
      22A     -0.535424    23A     -0.530811    24A     -0.476877
      25A     -0.460127    26A     -0.367023    27A     -0.358302

  @DF-RHF Final Energy:  -322.53684875674014

   => Energetics <=

    Nuclear Repulsion Energy =            298.6437039034645977
    One-Electron Energy =               -1026.3638618593399769
    Two-Electron Energy =                 405.1833091991352376
    Total Energy =                       -322.5368487567401417
  Basis Set: (AUG-CC-PVTZ AUX)
    Blend: AUG-CC-PVTZ-RI
    Molecular point group: c1

    Geometry (in Angstrom), charge = 0, multiplicity = 1:

       Center              X                  Y                   Z               Mass
    ------------   -----------------  -----------------  -----------------  -----------------
         N           -3.161199041563    -0.002235394730    -0.035470956895    14.003074004430
         C           -0.542049441563     0.000345005270     0.005518643105    12.000000000000
         C            0.153278558437    -1.218494994730     0.005565643105    12.000000000000
         C            0.153264558437     1.219194005270     0.005565643105    12.000000000000
         C            1.547042558437    -1.210156994730     0.005640643105    12.000000000000
         C            1.547028558437     1.210872005270     0.005640643105    12.000000000000
         C            2.244819558437     0.000361005270     0.005674643105    12.000000000000
         C           -1.978281441563     0.000339005270     0.005422643105    12.000000000000
         H           -0.399333441563    -2.154335994730     0.005534643105     1.007825032230
         H           -0.399357441563     2.155029005270     0.005535643105     1.007825032230
         H            2.089789558437    -2.151854994730     0.005667643105     1.007825032230
         H            2.089766558437     2.152575005270     0.005668643105     1.007825032230
         H            3.331876558437     0.000367005270     0.005733643105     1.007825032230

  Basis Set: AUG-CC-PVTZ
    Blend: AUG-CC-PVTZ
  Basis Set: (AUG-CC-PVTZ AUX)
    Blend: AUG-CC-PVTZ-JKFIT
	 Reference Energy          =    -322.5368487567401417 [Eh]
	 Singles Energy            =      -0.0000000000000000 [Eh]
	 Same-Spin Energy          =      -0.3530450931526600 [Eh]
	 Opposite-Spin Energy      =      -1.0914563449669965 [Eh]
	 Correlation Energy        =      -1.4445014381196564 [Eh]
	 Total Energy              =    -323.9813501948597718 [Eh]

	 ================> DF-SCS-MP2 Energies <==================
	-----------------------------------------------------------
	 SCS Same-Spin Scale       =       0.3333333333333333 [-]
	 SCS Opposite-Spin Scale   =       1.2000000000000000 [-]
	 SCS Same-Spin Energy      =      -0.1176816977175533 [Eh]
	 SCS Opposite-Spin Energy  =      -1.3097476139603959 [Eh]
	 SCS Correlation Energy    =      -1.4274293116779493 [Eh]
	 SCS Total Energy          =    -323.9642780684180821 [Eh]
	-----------------------------------------------------------

  Dipole Moment: [D]
     X:     4.5212      Y:     0.0035      Z:     0.0589     Total:     4.5216

*** Psi4 exiting successfully. Buy a developer a beer!
