                               Psi4 1.3.2 release

  ==> Input File <==

--------------------------------------------------------------------------
#psi4
#
memory 32 gb

molecule  {
0 1
  N       -3.2629527     0.1650839     0.0001980
  C       -0.6037160    -0.0000080    -0.0000850
  C        0.0916120    -1.2188480    -0.0000380
  C        0.0915980     1.2188410    -0.0000380
  C        1.4853760    -1.2105100     0.0000370
  C        1.4853620     1.2105190     0.0000370
  C        2.1831530     0.0000080     0.0000710
  C       -2.0399480    -0.0000140    -0.0001810
  H       -0.4610000    -2.1546890    -0.0000690
  H       -0.4610240     2.1546760    -0.0000680
  H        2.0281230    -2.1522080     0.0000640
  H        2.0281000     2.1522220     0.0000650
  H        3.2702100     0.0000140     0.0001300
units angstrom
no_reorient  #important for SAPT in psi4, default
symmetry c1  #important for SAPT in psi4, default
}

set PROPERTIES_ORIGIN ["COM"]
properties('MP2/aug-cc-pvtz', properties = ['dipole'])
--------------------------------------------------------------------------

    Molecular point group: c1
  Charge       = 0
  Multiplicity = 1
  Basis Set: AUG-CC-PVTZ
    Blend: AUG-CC-PVTZ
  Basis Set: (AUG-CC-PVTZ AUX)
    Blend: AUG-CC-PVTZ-JKFIT

    Orbital Energies [Eh]
    ---------------------

    Doubly Occupied:

       1A    -15.596958     2A    -11.303082     3A    -11.295637
       4A    -11.276771     5A    -11.276627     6A    -11.271743
       7A    -11.265883     8A    -11.265704     9A     -1.202409
      10A     -1.170561    11A     -1.062959    12A     -1.048601
      13A     -0.890249    14A     -0.860524    15A     -0.768005
      16A     -0.702299    17A     -0.662044    18A     -0.639353
      19A     -0.619881    20A     -0.568102    21A     -0.551727
      22A     -0.535368    23A     -0.531173    24A     -0.467616
      25A     -0.445831    26A     -0.367996    27A     -0.356665

  @DF-RHF Final Energy:  -322.51920493478133

   => Energetics <=

    Nuclear Repulsion Energy =            297.4528933806737996
    One-Electron Energy =               -1023.9366611745697355
    Two-Electron Energy =                 403.9645628591146078
    Total Energy =                       -322.5192049347813281
  Basis Set: (AUG-CC-PVTZ AUX)
    Blend: AUG-CC-PVTZ-RI
    Molecular point group: c1

    Geometry (in Angstrom), charge = 0, multiplicity = 1:

       Center              X                  Y                   Z               Mass
    ------------   -----------------  -----------------  -----------------  -----------------
         N           -3.195838445062     0.142650826902     0.000192841305    14.003074004430
         C           -0.536601745062    -0.022441073098    -0.000090158695    12.000000000000
         C            0.158726254938    -1.241281073098    -0.000043158695    12.000000000000
         C            0.158712254938     1.196407926902    -0.000043158695    12.000000000000
         C            1.552490254938    -1.232943073098     0.000031841305    12.000000000000
         C            1.552476254938     1.188085926902     0.000031841305    12.000000000000
         C            2.250267254938    -0.022425073098     0.000065841305    12.000000000000
         C           -1.972833745062    -0.022447073098    -0.000186158695    12.000000000000
         H           -0.393885745062    -2.177122073098    -0.000074158695     1.007825032230
         H           -0.393909745062     2.132242926902    -0.000073158695     1.007825032230
         H            2.095237254938    -2.174641073098     0.000058841305     1.007825032230
         H            2.095214254938     2.129788926902     0.000059841305     1.007825032230
         H            3.337324254938    -0.022419073098     0.000124841305     1.007825032230

  Basis Set: AUG-CC-PVTZ
    Blend: AUG-CC-PVTZ
  Basis Set: (AUG-CC-PVTZ AUX)
    Blend: AUG-CC-PVTZ-JKFIT
	 Reference Energy          =    -322.5192049347813281 [Eh]
	 Singles Energy            =      -0.0000000000000000 [Eh]
	 Same-Spin Energy          =      -0.3564621901420414 [Eh]
	 Opposite-Spin Energy      =      -1.0985795001093170 [Eh]
	 Correlation Energy        =      -1.4550416902513583 [Eh]
	 Total Energy              =    -323.9742466250326629 [Eh]

	 ================> DF-SCS-MP2 Energies <==================
	-----------------------------------------------------------
	 SCS Same-Spin Scale       =       0.3333333333333333 [-]
	 SCS Opposite-Spin Scale   =       1.2000000000000000 [-]
	 SCS Same-Spin Energy      =      -0.1188207300473471 [Eh]
	 SCS Opposite-Spin Energy  =      -1.3182954001311804 [Eh]
	 SCS Correlation Energy    =      -1.4371161301785276 [Eh]
	 SCS Total Energy          =    -323.9563210649598659 [Eh]
	-----------------------------------------------------------

  Dipole Moment: [D]
     X:     4.5041      Y:    -0.2084      Z:    -0.0003     Total:     4.5089

*** Psi4 exiting successfully. Buy a developer a beer!
