                               Psi4 1.4a3.dev225

  ==> Input File <==

--------------------------------------------------------------------------
#psi4
#
memory 32 gb

molecule  {
0 1
  N        3.2235920     0.0000000    -0.0000720
  C        0.6037120     0.0000010    -0.0000120
  C       -0.0916070     1.2188380     0.0000020
  C       -0.0916060    -1.2188370     0.0000020
  C       -1.4853720     1.2105070     0.0000330
  C       -1.4853700    -1.2105080     0.0000330
  C       -2.1831670    -0.0000010     0.0000480
  C        1.9899540     0.0000010    -0.0000429
  H        0.4610180     2.1546720    -0.0000100
  H        0.4610230    -2.1546690    -0.0000100
  H       -2.0281130     2.1522020     0.0000440
  H       -2.0281090    -2.1522040     0.0000440
  H       -3.2702320    -0.0000020     0.0000720
units angstrom
no_reorient  #important for SAPT in psi4, default
symmetry c1  #important for SAPT in psi4, default
}

set PROPERTIES_ORIGIN ["COM"]
properties('MP2/aug-cc-pvtz', properties = ['dipole'])
--------------------------------------------------------------------------

    Molecular point group: c1
  Charge       = 0
  Multiplicity = 1
  Basis Set: AUG-CC-PVTZ
    Blend: AUG-CC-PVTZ
  Basis Set: (AUG-CC-PVTZ AUX)
    Blend: AUG-CC-PVTZ-JKFIT

    Orbital Energies [Eh]
    ---------------------

    Doubly Occupied:

       1A    -15.594392     2A    -11.298297     3A    -11.288662
       4A    -11.277230     5A    -11.277157     6A    -11.272548
       7A    -11.265987     8A    -11.265869     9A     -1.206104
      10A     -1.169340    11A     -1.067919    12A     -1.049040
      13A     -0.898449    14A     -0.861621    15A     -0.771389
      16A     -0.704075    17A     -0.663900    18A     -0.639363
      19A     -0.620149    20A     -0.566756    21A     -0.555251
      22A     -0.536796    23A     -0.532369    24A     -0.468811
      25A     -0.443209    26A     -0.368303    27A     -0.353998

  @DF-RHF Final Energy:  -322.51825184052421

   => Energetics <=

    Nuclear Repulsion Energy =            298.8653888301743677
    One-Electron Energy =               -1026.7333124916190172
    Two-Electron Energy =                 405.3496718209203777
    Total Energy =                       -322.5182518405242149
  Basis Set: (AUG-CC-PVTZ AUX)
    Blend: AUG-CC-PVTZ-RI
    Molecular point group: c1

    Geometry (in Angstrom), charge = 0, multiplicity = 1:

       Center              X                  Y                   Z               Mass
    ------------   -----------------  -----------------  -----------------  -----------------
         N            3.167651835246    -0.000000106676    -0.000070933196    14.003074004430
         C            0.547771835246     0.000000893324    -0.000010933196    12.000000000000
         C           -0.147547164754     1.218837893324     0.000003066804    12.000000000000
         C           -0.147546164754    -1.218837106676     0.000003066804    12.000000000000
         C           -1.541312164754     1.210506893324     0.000034066804    12.000000000000
         C           -1.541310164754    -1.210508106676     0.000034066804    12.000000000000
         C           -2.239107164754    -0.000001106676     0.000049066804    12.000000000000
         C            1.934013835246     0.000000893324    -0.000041833196    12.000000000000
         H            0.405077835246     2.154671893324    -0.000008933196     1.007825032230
         H            0.405082835246    -2.154669106676    -0.000008933196     1.007825032230
         H           -2.084053164754     2.152201893324     0.000045066804     1.007825032230
         H           -2.084049164754    -2.152204106676     0.000045066804     1.007825032230
         H           -3.326172164754    -0.000002106676     0.000073066804     1.007825032230

  Basis Set: AUG-CC-PVTZ
    Blend: AUG-CC-PVTZ
  Basis Set: (AUG-CC-PVTZ AUX)
    Blend: AUG-CC-PVTZ-JKFIT
	 Reference Energy          =    -322.5182518405242149 [Eh]
	 Singles Energy            =      -0.0000000000000000 [Eh]
	 Same-Spin Energy          =      -0.3571496742829837 [Eh]
	 Opposite-Spin Energy      =      -1.0989383659954797 [Eh]
	 Correlation Energy        =      -1.4560880402784635 [Eh]
	 Total Energy              =    -323.9743398808026882 [Eh]

	 ================> DF-SCS-MP2 Energies <==================
	-----------------------------------------------------------
	 SCS Same-Spin Scale       =       0.3333333333333333 [-]
	 SCS Opposite-Spin Scale   =       1.2000000000000000 [-]
	 SCS Same-Spin Energy      =      -0.1190498914276612 [Eh]
	 SCS Opposite-Spin Energy  =      -1.3187260391945756 [Eh]
	 SCS Correlation Energy    =      -1.4377759306222369 [Eh]
	 SCS Total Energy          =    -323.9560277711464664 [Eh]
	-----------------------------------------------------------

  Dipole Moment: [D]
     X:    -4.5333      Y:     0.0000      Z:     0.0001     Total:     4.5333

*** Psi4 exiting successfully. Buy a developer a beer!
