                               Psi4 1.3.2 release

  ==> Input File <==

--------------------------------------------------------------------------
#psi4
#
memory 32 gb

molecule  {
0 1
  N       -3.3243119     0.4988562     0.0002893
  C       -0.6037160    -0.0000080    -0.0000850
  C        0.0916120    -1.2188480    -0.0000380
  C        0.0915980     1.2188410    -0.0000380
  C        1.4853760    -1.2105100     0.0000370
  C        1.4853620     1.2105190     0.0000370
  C        2.1831530     0.0000080     0.0000710
  C       -2.0399480    -0.0000140    -0.0001810
  H       -0.4610000    -2.1546890    -0.0000690
  H       -0.4610240     2.1546760    -0.0000680
  H        2.0281230    -2.1522080     0.0000640
  H        2.0281000     2.1522220     0.0000650
  H        3.2702100     0.0000140     0.0001300
units angstrom
no_reorient  #important for SAPT in psi4, default
symmetry c1  #important for SAPT in psi4, default
}

set PROPERTIES_ORIGIN ["COM"]
properties('MP2/aug-cc-pvtz', properties = ['dipole'])
--------------------------------------------------------------------------

    Molecular point group: c1
  Charge       = 0
  Multiplicity = 1
  Basis Set: AUG-CC-PVTZ
    Blend: AUG-CC-PVTZ
  Basis Set: (AUG-CC-PVTZ AUX)
    Blend: AUG-CC-PVTZ-JKFIT

    Orbital Energies [Eh]
    ---------------------

    Doubly Occupied:

       1A    -15.632201     2A    -11.340200     3A    -11.297099
       4A    -11.280506     5A    -11.280239     6A    -11.276139
       7A    -11.267757     8A    -11.267655     9A     -1.196909
      10A     -1.125110    11A     -1.058105    12A     -1.051025
      13A     -0.894619    14A     -0.862830    15A     -0.773564
      16A     -0.707205    17A     -0.664258    18A     -0.643494
      19A     -0.622278    20A     -0.568402    21A     -0.550423
      22A     -0.534133    23A     -0.530530    24A     -0.446937
      25A     -0.409524    26A     -0.370196    27A     -0.351469

  @DF-RHF Final Energy:  -322.43752226166254

   => Energetics <=

    Nuclear Repulsion Energy =            294.7502682237893055
    One-Electron Energy =               -1018.3699638546432880
    Two-Electron Energy =                 401.1821733691915028
    Total Energy =                       -322.4375222616625365
  Basis Set: (AUG-CC-PVTZ AUX)
    Blend: AUG-CC-PVTZ-RI
    Molecular point group: c1

    Geometry (in Angstrom), charge = 0, multiplicity = 1:

       Center              X                  Y                   Z               Mass
    ------------   -----------------  -----------------  -----------------  -----------------
         N           -3.248859144666     0.431064640230     0.000271733954    14.003074004430
         C           -0.528263244666    -0.067799559770    -0.000102566046    12.000000000000
         C            0.167064755334    -1.286639559770    -0.000055566046    12.000000000000
         C            0.167050755334     1.151049440230    -0.000055566046    12.000000000000
         C            1.560828755334    -1.278301559770     0.000019433954    12.000000000000
         C            1.560814755334     1.142727440230     0.000019433954    12.000000000000
         C            2.258605755334    -0.067783559770     0.000053433954    12.000000000000
         C           -1.964495244666    -0.067805559770    -0.000198566046    12.000000000000
         H           -0.385547244666    -2.222480559770    -0.000086566046     1.007825032230
         H           -0.385571244666     2.086884440230    -0.000085566046     1.007825032230
         H            2.103575755334    -2.219999559770     0.000046433954     1.007825032230
         H            2.103552755334     2.084430440230     0.000047433954     1.007825032230
         H            3.345662755334    -0.067777559770     0.000112433954     1.007825032230

  Basis Set: AUG-CC-PVTZ
    Blend: AUG-CC-PVTZ
  Basis Set: (AUG-CC-PVTZ AUX)
    Blend: AUG-CC-PVTZ-JKFIT
	 Reference Energy          =    -322.4375222616625365 [Eh]
	 Singles Energy            =      -0.0000000000000000 [Eh]
	 Same-Spin Energy          =      -0.3669145505937571 [Eh]
	 Opposite-Spin Energy      =      -1.1209143994508188 [Eh]
	 Correlation Energy        =      -1.4878289500445758 [Eh]
	 Total Energy              =    -323.9253512117070954 [Eh]

	 ================> DF-SCS-MP2 Energies <==================
	-----------------------------------------------------------
	 SCS Same-Spin Scale       =       0.3333333333333333 [-]
	 SCS Opposite-Spin Scale   =       1.2000000000000000 [-]
	 SCS Same-Spin Energy      =      -0.1223048501979190 [Eh]
	 SCS Opposite-Spin Energy  =      -1.3450972793409826 [Eh]
	 SCS Correlation Energy    =      -1.4674021295389017 [Eh]
	 SCS Total Energy          =    -323.9049243912014617 [Eh]
	-----------------------------------------------------------

  Dipole Moment: [D]
     X:     4.0889      Y:    -0.6026      Z:    -0.0003     Total:     4.1331

*** Psi4 exiting successfully. Buy a developer a beer!
