                               Psi4 1.3.2 release

  ==> Input File <==

--------------------------------------------------------------------------
#psi4
#
memory 32 gb

molecule  {
0 1
  N       -3.2235750     0.0000070     0.0001520
  C       -0.6037160    -0.0000080    -0.0000850
  C        0.0916120    -1.2188480    -0.0000380
  C        0.0915980     1.2188410    -0.0000380
  C        1.4853760    -1.2105100     0.0000370
  C        1.4853620     1.2105190     0.0000370
  C        2.1831530     0.0000080     0.0000710
  C       -1.9399480    -0.0000158    -0.0002091
  H       -0.4610000    -2.1546890    -0.0000690
  H       -0.4610240     2.1546760    -0.0000680
  H        2.0281230    -2.1522080     0.0000640
  H        2.0281000     2.1522220     0.0000650
  H        3.2702100     0.0000140     0.0001300
units angstrom
no_reorient  #important for SAPT in psi4, default
symmetry c1  #important for SAPT in psi4, default
}

set PROPERTIES_ORIGIN ["COM"]
properties('MP2/aug-cc-pvtz', properties = ['dipole'])
--------------------------------------------------------------------------

    Molecular point group: c1
  Charge       = 0
  Multiplicity = 1
  Basis Set: AUG-CC-PVTZ
    Blend: AUG-CC-PVTZ
  Basis Set: (AUG-CC-PVTZ AUX)
    Blend: AUG-CC-PVTZ-JKFIT

    Orbital Energies [Eh]
    ---------------------

    Doubly Occupied:

       1A    -15.604095     2A    -11.307078     3A    -11.283008
       4A    -11.279815     5A    -11.279592     6A    -11.275413
       7A    -11.267373     8A    -11.267275     9A     -1.206921
      10A     -1.152964    11A     -1.071871    12A     -1.051033
      13A     -0.908824    14A     -0.864280    15A     -0.776532
      16A     -0.707639    17A     -0.667261    18A     -0.641197
      19A     -0.621843    20A     -0.565419    21A     -0.558744
      22A     -0.537905    23A     -0.534537    24A     -0.463052
      25A     -0.426286    26A     -0.369995    27A     -0.348258

  @DF-RHF Final Energy:  -322.48875916504522

   => Energetics <=

    Nuclear Repulsion Energy =            299.2003345259928437
    One-Electron Energy =               -1027.3017686328180389
    Two-Electron Energy =                 405.6126749417799715
    Total Energy =                       -322.4887591650452237
  Basis Set: (AUG-CC-PVTZ AUX)
    Blend: AUG-CC-PVTZ-RI
    Molecular point group: c1

    Geometry (in Angstrom), charge = 0, multiplicity = 1:

       Center              X                  Y                   Z               Mass
    ------------   -----------------  -----------------  -----------------  -----------------
         N           -3.173457750768     0.000007509123     0.000156364989    14.003074004430
         C           -0.553598750768    -0.000007490877    -0.000080635011    12.000000000000
         C            0.141729249232    -1.218847490877    -0.000033635011    12.000000000000
         C            0.141715249232     1.218841509123    -0.000033635011    12.000000000000
         C            1.535493249232    -1.210509490877     0.000041364989    12.000000000000
         C            1.535479249232     1.210519509123     0.000041364989    12.000000000000
         C            2.233270249232     0.000008509123     0.000075364989    12.000000000000
         C           -1.889830750768    -0.000015290877    -0.000204735011    12.000000000000
         H           -0.410882750768    -2.154688490877    -0.000064635011     1.007825032230
         H           -0.410906750768     2.154676509123    -0.000063635011     1.007825032230
         H            2.078240249232    -2.152207490877     0.000068364989     1.007825032230
         H            2.078217249232     2.152222509123     0.000069364989     1.007825032230
         H            3.320327249232     0.000014509123     0.000134364989     1.007825032230

  Basis Set: AUG-CC-PVTZ
    Blend: AUG-CC-PVTZ
  Basis Set: (AUG-CC-PVTZ AUX)
    Blend: AUG-CC-PVTZ-JKFIT
	 Reference Energy          =    -322.4887591650452237 [Eh]
	 Singles Energy            =      -0.0000000000000000 [Eh]
	 Same-Spin Energy          =      -0.3616197755342149 [Eh]
	 Opposite-Spin Energy      =      -1.1070243740359156 [Eh]
	 Correlation Energy        =      -1.4686441495701306 [Eh]
	 Total Energy              =    -323.9574033146153624 [Eh]

	 ================> DF-SCS-MP2 Energies <==================
	-----------------------------------------------------------
	 SCS Same-Spin Scale       =       0.3333333333333333 [-]
	 SCS Opposite-Spin Scale   =       1.2000000000000000 [-]
	 SCS Same-Spin Energy      =      -0.1205399251780716 [Eh]
	 SCS Opposite-Spin Energy  =      -1.3284292488430987 [Eh]
	 SCS Correlation Energy    =      -1.4489691740211703 [Eh]
	 SCS Total Energy          =    -323.9377283390663820 [Eh]
	-----------------------------------------------------------

  Dipole Moment: [D]
     X:     4.5199      Y:    -0.0000      Z:    -0.0002     Total:     4.5199

*** Psi4 exiting successfully. Buy a developer a beer!
