                               Psi4 1.3.2 release

  ==> Input File <==

--------------------------------------------------------------------------
#psi4
#
memory 32 gb

molecule  {
0 1
  N       -3.2228423     0.0026024     0.0413782
  C       -0.6037160    -0.0000080    -0.0000850
  C        0.0916120    -1.2188480    -0.0000380
  C        0.0915980     1.2188410    -0.0000380
  C        1.4853760    -1.2105100     0.0000370
  C        1.4853620     1.2105190     0.0000370
  C        2.1831530     0.0000080     0.0000710
  C       -2.0399480    -0.0000140    -0.0001810
  H       -0.4610000    -2.1546890    -0.0000690
  H       -0.4610240     2.1546760    -0.0000680
  H        2.0281230    -2.1522080     0.0000640
  H        2.0281000     2.1522220     0.0000650
  H        3.2702100     0.0000140     0.0001300
units angstrom
no_reorient  #important for SAPT in psi4, default
symmetry c1  #important for SAPT in psi4, default
}

set PROPERTIES_ORIGIN ["COM"]
properties('MP2/aug-cc-pvtz', properties = ['dipole'])
--------------------------------------------------------------------------

    Molecular point group: c1
  Charge       = 0
  Multiplicity = 1
  Basis Set: AUG-CC-PVTZ
    Blend: AUG-CC-PVTZ
  Basis Set: (AUG-CC-PVTZ AUX)
    Blend: AUG-CC-PVTZ-JKFIT

    Orbital Energies [Eh]
    ---------------------

    Doubly Occupied:

       1A    -15.582116     2A    -11.294207     3A    -11.287019
       4A    -11.275286     5A    -11.275237     6A    -11.270318
       7A    -11.264967     8A    -11.264824     9A     -1.214951
      10A     -1.179815    11A     -1.062610    12A     -1.047515
      13A     -0.888192    14A     -0.859488    15A     -0.765719
      16A     -0.700391    17A     -0.661177    18A     -0.637609
      19A     -0.618873    20A     -0.566891    21A     -0.552845
      22A     -0.535423    23A     -0.530810    24A     -0.476878
      25A     -0.460128    26A     -0.367023    27A     -0.358301

  @DF-RHF Final Energy:  -322.53684611590523

   => Energetics <=

    Nuclear Repulsion Energy =            298.6438876644058382
    One-Electron Energy =               -1026.3642415093822819
    Two-Electron Energy =                 405.1835077290712093
    Total Energy =                       -322.5368461159052345
  Basis Set: (AUG-CC-PVTZ AUX)
    Blend: AUG-CC-PVTZ-RI
    Molecular point group: c1

    Geometry (in Angstrom), charge = 0, multiplicity = 1:

       Center              X                  Y                   Z               Mass
    ------------   -----------------  -----------------  -----------------  -----------------
         N           -3.161178907952     0.002249993729     0.035776796341    14.003074004430
         C           -0.542052607952    -0.000360406271    -0.005686403659    12.000000000000
         C            0.153275392048    -1.219200406271    -0.005639403659    12.000000000000
         C            0.153261392048     1.218488593729    -0.005639403659    12.000000000000
         C            1.547039392048    -1.210862406271    -0.005564403659    12.000000000000
         C            1.547025392048     1.210166593729    -0.005564403659    12.000000000000
         C            2.244816392048    -0.000344406271    -0.005530403659    12.000000000000
         C           -1.978284607952    -0.000366406271    -0.005782403659    12.000000000000
         H           -0.399336607952    -2.155041406271    -0.005670403659     1.007825032230
         H           -0.399360607952     2.154323593729    -0.005669403659     1.007825032230
         H            2.089786392048    -2.152560406271    -0.005537403659     1.007825032230
         H            2.089763392048     2.151869593729    -0.005536403659     1.007825032230
         H            3.331873392048    -0.000338406271    -0.005471403659     1.007825032230

  Basis Set: AUG-CC-PVTZ
    Blend: AUG-CC-PVTZ
  Basis Set: (AUG-CC-PVTZ AUX)
    Blend: AUG-CC-PVTZ-JKFIT
	 Reference Energy          =    -322.5368461159052345 [Eh]
	 Singles Energy            =      -0.0000000000000000 [Eh]
	 Same-Spin Energy          =      -0.3530452520266009 [Eh]
	 Opposite-Spin Energy      =      -1.0914566244948947 [Eh]
	 Correlation Energy        =      -1.4445018765214956 [Eh]
	 Total Energy              =    -323.9813479924267199 [Eh]

	 ================> DF-SCS-MP2 Energies <==================
	-----------------------------------------------------------
	 SCS Same-Spin Scale       =       0.3333333333333333 [-]
	 SCS Opposite-Spin Scale   =       1.2000000000000000 [-]
	 SCS Same-Spin Energy      =      -0.1176817506755336 [Eh]
	 SCS Opposite-Spin Energy  =      -1.3097479493938735 [Eh]
	 SCS Correlation Energy    =      -1.4274297000694072 [Eh]
	 SCS Total Energy          =    -323.9642758159746450 [Eh]
	-----------------------------------------------------------

  Dipole Moment: [D]
     X:     4.5211      Y:    -0.0035      Z:    -0.0595     Total:     4.5215

*** Psi4 exiting successfully. Buy a developer a beer!
