                               Psi4 1.3.2 release

  ==> Input File <==

--------------------------------------------------------------------------
#psi4
#
memory 32 gb

molecule  {
0 1
  N       -3.2235750     0.0000070     0.0001520
  C       -0.6037160    -0.0000080    -0.0000850
  C        0.0916120    -1.2188480    -0.0000380
  C        0.0915980     1.2188410    -0.0000380
  C        1.4853760    -1.2105100     0.0000370
  C        1.4853620     1.2105190     0.0000370
  C        2.1831530     0.0000080     0.0000710
  C       -2.2399480    -0.0000148    -0.0001944
  H       -0.4610000    -2.1546890    -0.0000690
  H       -0.4610240     2.1546760    -0.0000680
  H        2.0281230    -2.1522080     0.0000640
  H        2.0281000     2.1522220     0.0000650
  H        3.2702100     0.0000140     0.0001300
units angstrom
no_reorient  #important for SAPT in psi4, default
symmetry c1  #important for SAPT in psi4, default
}

set PROPERTIES_ORIGIN ["COM"]
properties('MP2/aug-cc-pvtz', properties = ['dipole'])
--------------------------------------------------------------------------

    Molecular point group: c1
  Charge       = 0
  Multiplicity = 1
  Basis Set: AUG-CC-PVTZ
    Blend: AUG-CC-PVTZ
  Basis Set: (AUG-CC-PVTZ AUX)
    Blend: AUG-CC-PVTZ-JKFIT

    Orbital Energies [Eh]
    ---------------------

    Doubly Occupied:

       1A    -15.514637     2A    -11.312864     3A    -11.272145
       4A    -11.272113     5A    -11.266009     6A    -11.263526
       7A    -11.263228     8A    -11.228030     9A     -1.299540
      10A     -1.180318    11A     -1.045647    12A     -1.044814
      13A     -0.856420    14A     -0.854875    15A     -0.741461
      16A     -0.680090    17A     -0.655288    18A     -0.627963
      19A     -0.616765    20A     -0.562515    21A     -0.554614
      22A     -0.542958    23A     -0.529196    24A     -0.520000
      25A     -0.519399    26A     -0.366291    27A     -0.364864

  @DF-RHF Final Energy:  -322.44858112304064

   => Energetics <=

    Nuclear Repulsion Energy =            298.9242769450024184
    One-Electron Energy =               -1026.8345792404277290
    Two-Electron Energy =                 405.4617211723846140
    Total Energy =                       -322.4485811230406398
  Basis Set: (AUG-CC-PVTZ AUX)
    Blend: AUG-CC-PVTZ-RI
    Molecular point group: c1

    Geometry (in Angstrom), charge = 0, multiplicity = 1:

       Center              X                  Y                   Z               Mass
    ------------   -----------------  -----------------  -----------------  -----------------
         N           -3.138520608227     0.000007392665     0.000154653069    14.003074004430
         C           -0.518661608227    -0.000007607335    -0.000082346931    12.000000000000
         C            0.176666391773    -1.218847607335    -0.000035346931    12.000000000000
         C            0.176652391773     1.218841392665    -0.000035346931    12.000000000000
         C            1.570430391773    -1.210509607335     0.000039653069    12.000000000000
         C            1.570416391773     1.210519392665     0.000039653069    12.000000000000
         C            2.268207391773     0.000008392665     0.000073653069    12.000000000000
         C           -2.154893608227    -0.000014407335    -0.000191746931    12.000000000000
         H           -0.375945608227    -2.154688607335    -0.000066346931     1.007825032230
         H           -0.375969608227     2.154676392665    -0.000065346931     1.007825032230
         H            2.113177391773    -2.152207607335     0.000066653069     1.007825032230
         H            2.113154391773     2.152222392665     0.000067653069     1.007825032230
         H            3.355264391773     0.000014392665     0.000132653069     1.007825032230

  Basis Set: AUG-CC-PVTZ
    Blend: AUG-CC-PVTZ
  Basis Set: (AUG-CC-PVTZ AUX)
    Blend: AUG-CC-PVTZ-JKFIT
	 Reference Energy          =    -322.4485811230406398 [Eh]
	 Singles Energy            =      -0.0000000000000000 [Eh]
	 Same-Spin Energy          =      -0.3407923751950837 [Eh]
	 Opposite-Spin Energy      =      -1.0679537551998299 [Eh]
	 Correlation Energy        =      -1.4087461303949136 [Eh]
	 Total Energy              =    -323.8573272534355283 [Eh]

	 ================> DF-SCS-MP2 Energies <==================
	-----------------------------------------------------------
	 SCS Same-Spin Scale       =       0.3333333333333333 [-]
	 SCS Opposite-Spin Scale   =       1.2000000000000000 [-]
	 SCS Same-Spin Energy      =      -0.1135974583983612 [Eh]
	 SCS Opposite-Spin Energy  =      -1.2815445062397959 [Eh]
	 SCS Correlation Energy    =      -1.3951419646381571 [Eh]
	 SCS Total Energy          =    -323.8437230876788249 [Eh]
	-----------------------------------------------------------

  Dipole Moment: [D]
     X:     4.5421      Y:    -0.0000      Z:    -0.0005     Total:     4.5421

*** Psi4 exiting successfully. Buy a developer a beer!
