                               Psi4 1.3.2 release

  ==> Input File <==

--------------------------------------------------------------------------
#psi4
#
memory 32 gb

molecule  {
0 1
  N       -3.2234006    -0.0012909    -0.0204644
  C       -0.6037160    -0.0000080    -0.0000850
  C        0.0916120    -1.2188480    -0.0000380
  C        0.0915980     1.2188410    -0.0000380
  C        1.4853760    -1.2105100     0.0000370
  C        1.4853620     1.2105190     0.0000370
  C        2.1831530     0.0000080     0.0000710
  C       -2.0399480    -0.0000140    -0.0001810
  H       -0.4610000    -2.1546890    -0.0000690
  H       -0.4610240     2.1546760    -0.0000680
  H        2.0281230    -2.1522080     0.0000640
  H        2.0281000     2.1522220     0.0000650
  H        3.2702100     0.0000140     0.0001300
units angstrom
no_reorient  #important for SAPT in psi4, default
symmetry c1  #important for SAPT in psi4, default
}

set PROPERTIES_ORIGIN ["COM"]
properties('MP2/aug-cc-pvtz', properties = ['dipole'])
--------------------------------------------------------------------------

    Molecular point group: c1
  Charge       = 0
  Multiplicity = 1
  Basis Set: AUG-CC-PVTZ
    Blend: AUG-CC-PVTZ
  Basis Set: (AUG-CC-PVTZ AUX)
    Blend: AUG-CC-PVTZ-JKFIT

    Orbital Energies [Eh]
    ---------------------

    Doubly Occupied:

       1A    -15.582087     2A    -11.294211     3A    -11.287019
       4A    -11.275303     5A    -11.275253     6A    -11.270336
       7A    -11.264977     8A    -11.264834     9A     -1.214926
      10A     -1.179825    11A     -1.062628    12A     -1.047528
      13A     -0.888210    14A     -0.859500    15A     -0.765733
      16A     -0.700404    17A     -0.661189    18A     -0.637619
      19A     -0.618885    20A     -0.566876    21A     -0.552850
      22A     -0.535432    23A     -0.530821    24A     -0.476874
      25A     -0.460111    26A     -0.367034    27A     -0.358320

  @DF-RHF Final Energy:  -322.53689718651287

   => Energetics <=

    Nuclear Repulsion Energy =            298.6402896773914222
    One-Electron Energy =               -1026.3568086652055626
    Two-Electron Energy =                 405.1796218013013231
    Total Energy =                       -322.5368971865128742
  Basis Set: (AUG-CC-PVTZ AUX)
    Blend: AUG-CC-PVTZ-RI
    Molecular point group: c1

    Geometry (in Angstrom), charge = 0, multiplicity = 1:

       Center              X                  Y                   Z               Mass
    ------------   -----------------  -----------------  -----------------  -----------------
         N           -3.161661336937    -0.001114220436    -0.017661610897    14.003074004430
         C           -0.541976736937     0.000168679564     0.002717789103    12.000000000000
         C            0.153351263063    -1.218671320436     0.002764789103    12.000000000000
         C            0.153337263063     1.219017679564     0.002764789103    12.000000000000
         C            1.547115263063    -1.210333320436     0.002839789103    12.000000000000
         C            1.547101263063     1.210695679564     0.002839789103    12.000000000000
         C            2.244892263063     0.000184679564     0.002873789103    12.000000000000
         C           -1.978208736937     0.000162679564     0.002621789103    12.000000000000
         H           -0.399260736937    -2.154512320436     0.002733789103     1.007825032230
         H           -0.399284736937     2.154852679564     0.002734789103     1.007825032230
         H            2.089862263063    -2.152031320436     0.002866789103     1.007825032230
         H            2.089839263063     2.152398679564     0.002867789103     1.007825032230
         H            3.331949263063     0.000190679564     0.002932789103     1.007825032230

  Basis Set: AUG-CC-PVTZ
    Blend: AUG-CC-PVTZ
  Basis Set: (AUG-CC-PVTZ AUX)
    Blend: AUG-CC-PVTZ-JKFIT
	 Reference Energy          =    -322.5368971865128742 [Eh]
	 Singles Energy            =      -0.0000000000000000 [Eh]
	 Same-Spin Energy          =      -0.3530421380703185 [Eh]
	 Opposite-Spin Energy      =      -1.0914513561785228 [Eh]
	 Correlation Energy        =      -1.4444934942488414 [Eh]
	 Total Energy              =    -323.9813906807617059 [Eh]

	 ================> DF-SCS-MP2 Energies <==================
	-----------------------------------------------------------
	 SCS Same-Spin Scale       =       0.3333333333333333 [-]
	 SCS Opposite-Spin Scale   =       1.2000000000000000 [-]
	 SCS Same-Spin Energy      =      -0.1176807126901062 [Eh]
	 SCS Opposite-Spin Energy  =      -1.3097416274142273 [Eh]
	 SCS Correlation Energy    =      -1.4274223401043336 [Eh]
	 SCS Total Energy          =    -323.9643195266172029 [Eh]
	-----------------------------------------------------------

  Dipole Moment: [D]
     X:     4.5230      Y:     0.0017      Z:     0.0293     Total:     4.5231

*** Psi4 exiting successfully. Buy a developer a beer!
