                               Psi4 1.3.2 release

  ==> Input File <==

--------------------------------------------------------------------------
#psi4
#
memory 32 gb

molecule  {
0 1
  N       -3.0712460    -0.4855796     0.0000135
  C       -0.6037160    -0.0000080    -0.0000850
  C        0.0916120    -1.2188480    -0.0000380
  C        0.0915980     1.2188410    -0.0000380
  C        1.4853760    -1.2105100     0.0000370
  C        1.4853620     1.2105190     0.0000370
  C        2.1831530     0.0000080     0.0000710
  C       -2.0399480    -0.0000140    -0.0001810
  H       -0.4610000    -2.1546890    -0.0000690
  H       -0.4610240     2.1546760    -0.0000680
  H        2.0281230    -2.1522080     0.0000640
  H        2.0281000     2.1522220     0.0000650
  H        3.2702100     0.0000140     0.0001300
units angstrom
no_reorient  #important for SAPT in psi4, default
symmetry c1  #important for SAPT in psi4, default
}

set PROPERTIES_ORIGIN ["COM"]
properties('MP2/aug-cc-pvtz', properties = ['dipole'])
--------------------------------------------------------------------------

    Molecular point group: c1
  Charge       = 0
  Multiplicity = 1
  Basis Set: AUG-CC-PVTZ
    Blend: AUG-CC-PVTZ
  Basis Set: (AUG-CC-PVTZ AUX)
    Blend: AUG-CC-PVTZ-JKFIT

    Orbital Energies [Eh]
    ---------------------

    Doubly Occupied:

       1A    -15.572583     2A    -11.290983     3A    -11.271806
       4A    -11.271029     5A    -11.270966     6A    -11.267166
       7A    -11.262373     8A    -11.261802     9A     -1.237490
      10A     -1.179653    11A     -1.058261    12A     -1.044370
      13A     -0.882666    14A     -0.856344    15A     -0.760709
      16A     -0.696641    17A     -0.658498    18A     -0.634087
      19A     -0.615934    20A     -0.568489    21A     -0.553960
      22A     -0.533788    23A     -0.528478    24A     -0.486660
      25A     -0.472582    26A     -0.364179    27A     -0.357680

  @DF-RHF Final Energy:  -322.53377135491138

   => Energetics <=

    Nuclear Repulsion Energy =            300.6287433327383951
    One-Electron Energy =               -1030.4066774914504094
    Two-Electron Energy =                 407.2441628038006343
    Total Energy =                       -322.5337713549113801
  Basis Set: (AUG-CC-PVTZ AUX)
    Blend: AUG-CC-PVTZ-RI
    Molecular point group: c1

    Geometry (in Angstrom), charge = 0, multiplicity = 1:

       Center              X                  Y                   Z               Mass
    ------------   -----------------  -----------------  -----------------  -----------------
         N           -3.030184014219    -0.419589782124     0.000033414209    14.003074004430
         C           -0.562654014219     0.065981817876    -0.000065085791    12.000000000000
         C            0.132673985781    -1.152858182124    -0.000018085791    12.000000000000
         C            0.132659985781     1.284830817876    -0.000018085791    12.000000000000
         C            1.526437985781    -1.144520182124     0.000056914209    12.000000000000
         C            1.526423985781     1.276508817876     0.000056914209    12.000000000000
         C            2.224214985781     0.065997817876     0.000090914209    12.000000000000
         C           -1.998886014219     0.065975817876    -0.000161085791    12.000000000000
         H           -0.419938014219    -2.088699182124    -0.000049085791     1.007825032230
         H           -0.419962014219     2.220665817876    -0.000048085791     1.007825032230
         H            2.069184985781    -2.086218182124     0.000083914209     1.007825032230
         H            2.069161985781     2.218211817876     0.000084914209     1.007825032230
         H            3.311271985781     0.066003817876     0.000149914209     1.007825032230

  Basis Set: AUG-CC-PVTZ
    Blend: AUG-CC-PVTZ
  Basis Set: (AUG-CC-PVTZ AUX)
    Blend: AUG-CC-PVTZ-JKFIT
	 Reference Energy          =    -322.5337713549113801 [Eh]
	 Singles Energy            =      -0.0000000000000000 [Eh]
	 Same-Spin Energy          =      -0.3508476938468047 [Eh]
	 Opposite-Spin Energy      =      -1.0874063414143809 [Eh]
	 Correlation Energy        =      -1.4382540352611857 [Eh]
	 Total Energy              =    -323.9720253901725755 [Eh]

	 ================> DF-SCS-MP2 Energies <==================
	-----------------------------------------------------------
	 SCS Same-Spin Scale       =       0.3333333333333333 [-]
	 SCS Opposite-Spin Scale   =       1.2000000000000000 [-]
	 SCS Same-Spin Energy      =      -0.1169492312822682 [Eh]
	 SCS Opposite-Spin Energy  =      -1.3048876096972570 [Eh]
	 SCS Correlation Energy    =      -1.4218368409795252 [Eh]
	 SCS Total Energy          =    -323.9556081958909317 [Eh]
	-----------------------------------------------------------

  Dipole Moment: [D]
     X:     4.1658      Y:     0.6884      Z:    -0.0001     Total:     4.2223

*** Psi4 exiting successfully. Buy a developer a beer!
