                               Psi4 1.3.2 release

  ==> Input File <==

--------------------------------------------------------------------------
#psi4
#
memory 32 gb

molecule  {
0 1
  N       -3.2017315    -0.0819909     0.0001290
  C       -0.6037160    -0.0000080    -0.0000850
  C        0.0916120    -1.2188480    -0.0000380
  C        0.0915980     1.2188410    -0.0000380
  C        1.4853760    -1.2105100     0.0000370
  C        1.4853620     1.2105190     0.0000370
  C        2.1831530     0.0000080     0.0000710
  C       -2.0399480    -0.0000140    -0.0001810
  H       -0.4610000    -2.1546890    -0.0000690
  H       -0.4610240     2.1546760    -0.0000680
  H        2.0281230    -2.1522080     0.0000640
  H        2.0281000     2.1522220     0.0000650
  H        3.2702100     0.0000140     0.0001300
units angstrom
no_reorient  #important for SAPT in psi4, default
symmetry c1  #important for SAPT in psi4, default
}

set PROPERTIES_ORIGIN ["COM"]
properties('MP2/aug-cc-pvtz', properties = ['dipole'])
--------------------------------------------------------------------------

    Molecular point group: c1
  Charge       = 0
  Multiplicity = 1
  Basis Set: AUG-CC-PVTZ
    Blend: AUG-CC-PVTZ
  Basis Set: (AUG-CC-PVTZ AUX)
    Blend: AUG-CC-PVTZ-JKFIT

    Orbital Energies [Eh]
    ---------------------

    Doubly Occupied:

       1A    -15.576407     2A    -11.293482     3A    -11.280686
       4A    -11.274675     5A    -11.274545     6A    -11.269722
       7A    -11.264546     8A    -11.264376     9A     -1.222101
      10A     -1.181239    11A     -1.062186    12A     -1.047006
      13A     -0.887230    14A     -0.858993    15A     -0.764718
      16A     -0.699577    17A     -0.660779    18A     -0.636851
      19A     -0.618400    20A     -0.566357    21A     -0.553455
      22A     -0.535321    23A     -0.530637    24A     -0.480618
      25A     -0.465675    26A     -0.366564    27A     -0.358772

  @DF-RHF Final Energy:  -322.54070623238522

   => Energetics <=

    Nuclear Repulsion Energy =            299.1551509284615236
    One-Electron Energy =               -1027.4018791850016896
    Two-Electron Energy =                 405.7060220241548905
    Total Energy =                       -322.5407062323852188
  Basis Set: (AUG-CC-PVTZ AUX)
    Blend: AUG-CC-PVTZ-RI
    Molecular point group: c1

    Geometry (in Angstrom), charge = 0, multiplicity = 1:

       Center              X                  Y                   Z               Mass
    ------------   -----------------  -----------------  -----------------  -----------------
         N           -3.142936991740    -0.070847373054     0.000133218163    14.003074004430
         C           -0.544921491740     0.011135526946    -0.000080781837    12.000000000000
         C            0.150406508260    -1.207704473054    -0.000033781837    12.000000000000
         C            0.150392508260     1.229984526946    -0.000033781837    12.000000000000
         C            1.544170508260    -1.199366473054     0.000041218163    12.000000000000
         C            1.544156508260     1.221662526946     0.000041218163    12.000000000000
         C            2.241947508260     0.011151526946     0.000075218163    12.000000000000
         C           -1.981153491740     0.011129526946    -0.000176781837    12.000000000000
         H           -0.402205491740    -2.143545473054    -0.000064781837     1.007825032230
         H           -0.402229491740     2.165819526946    -0.000063781837     1.007825032230
         H            2.086917508260    -2.141064473054     0.000068218163     1.007825032230
         H            2.086894508260     2.163365526946     0.000069218163     1.007825032230
         H            3.329004508260     0.011157526946     0.000134218163     1.007825032230

  Basis Set: AUG-CC-PVTZ
    Blend: AUG-CC-PVTZ
  Basis Set: (AUG-CC-PVTZ AUX)
    Blend: AUG-CC-PVTZ-JKFIT
	 Reference Energy          =    -322.5407062323852188 [Eh]
	 Singles Energy            =      -0.0000000000000000 [Eh]
	 Same-Spin Energy          =      -0.3518636644267096 [Eh]
	 Opposite-Spin Energy      =      -1.0890192043842042 [Eh]
	 Correlation Energy        =      -1.4408828688109137 [Eh]
	 Total Energy              =    -323.9815891011961071 [Eh]

	 ================> DF-SCS-MP2 Energies <==================
	-----------------------------------------------------------
	 SCS Same-Spin Scale       =       0.3333333333333333 [-]
	 SCS Opposite-Spin Scale   =       1.2000000000000000 [-]
	 SCS Same-Spin Energy      =      -0.1172878881422365 [Eh]
	 SCS Opposite-Spin Energy  =      -1.3068230452610450 [Eh]
	 SCS Correlation Energy    =      -1.4241109334032815 [Eh]
	 SCS Total Energy          =    -323.9648171657884745 [Eh]
	-----------------------------------------------------------

  Dipole Moment: [D]
     X:     4.5040      Y:     0.1143      Z:    -0.0003     Total:     4.5055

*** Psi4 exiting successfully. Buy a developer a beer!
