                               Psi4 1.3.2 release

  ==> Input File <==

--------------------------------------------------------------------------
#psi4
#
memory 32 gb

molecule  {
0 1
  N       -3.2235750     0.0000070     0.0001520
  C       -0.6037160    -0.0000080    -0.0000850
  C        0.0916120    -1.2188480    -0.0000380
  C        0.0915980     1.2188410    -0.0000380
  C        1.4853760    -1.2105100     0.0000370
  C        1.4853620     1.2105190     0.0000370
  C        2.1831530     0.0000080     0.0000710
  C       -1.8399480    -0.0000175    -0.0002373
  H       -0.4610000    -2.1546890    -0.0000690
  H       -0.4610240     2.1546760    -0.0000680
  H        2.0281230    -2.1522080     0.0000640
  H        2.0281000     2.1522220     0.0000650
  H        3.2702100     0.0000140     0.0001300
units angstrom
no_reorient  #important for SAPT in psi4, default
symmetry c1  #important for SAPT in psi4, default
}

set PROPERTIES_ORIGIN ["COM"]
properties('MP2/aug-cc-pvtz', properties = ['dipole'])
--------------------------------------------------------------------------

    Molecular point group: c1
  Charge       = 0
  Multiplicity = 1
  Basis Set: AUG-CC-PVTZ
    Blend: AUG-CC-PVTZ
  Basis Set: (AUG-CC-PVTZ AUX)
    Blend: AUG-CC-PVTZ-JKFIT

    Orbital Energies [Eh]
    ---------------------

    Doubly Occupied:

       1A    -15.614630     2A    -11.316013     3A    -11.287418
       4A    -11.287392     5A    -11.283594     6A    -11.271506
       7A    -11.271439     8A    -11.270204     9A     -1.219942
      10A     -1.133831    11A     -1.062309    12A     -1.056775
      13A     -0.928363    14A     -0.871557    15A     -0.785730
      16A     -0.715322    17A     -0.676291    18A     -0.645662
      19A     -0.626803    20A     -0.569117    21A     -0.561401
      22A     -0.540871    23A     -0.536631    24A     -0.458918
      25A     -0.391465    26A     -0.374915    27A     -0.332428

  @DF-RHF Final Energy:  -322.40058738403383

   => Energetics <=

    Nuclear Repulsion Energy =            300.1879868627881365
    One-Electron Energy =               -1028.9960928266887095
    Two-Electron Energy =                 406.4075185798666894
    Total Energy =                       -322.4005873840338268
  Basis Set: (AUG-CC-PVTZ AUX)
    Blend: AUG-CC-PVTZ-RI
    Molecular point group: c1

    Geometry (in Angstrom), charge = 0, multiplicity = 1:

       Center              X                  Y                   Z               Mass
    ------------   -----------------  -----------------  -----------------  -----------------
         N           -3.185103464948     0.000007707100     0.000159649081    14.003074004430
         C           -0.565244464948    -0.000007292900    -0.000077350919    12.000000000000
         C            0.130083535052    -1.218847292900    -0.000030350919    12.000000000000
         C            0.130069535052     1.218841707100    -0.000030350919    12.000000000000
         C            1.523847535052    -1.210509292900     0.000044649081    12.000000000000
         C            1.523833535052     1.210519707100     0.000044649081    12.000000000000
         C            2.221624535052     0.000008707100     0.000078649081    12.000000000000
         C           -1.801476464948    -0.000016792900    -0.000229650919    12.000000000000
         H           -0.422528464948    -2.154688292900    -0.000061350919     1.007825032230
         H           -0.422552464948     2.154676707100    -0.000060350919     1.007825032230
         H            2.066594535052    -2.152207292900     0.000071649081     1.007825032230
         H            2.066571535052     2.152222707100     0.000072649081     1.007825032230
         H            3.308681535052     0.000014707100     0.000137649081     1.007825032230

  Basis Set: AUG-CC-PVTZ
    Blend: AUG-CC-PVTZ
  Basis Set: (AUG-CC-PVTZ AUX)
    Blend: AUG-CC-PVTZ-JKFIT
	 Reference Energy          =    -322.4005873840338268 [Eh]
	 Singles Energy            =      -0.0000000000000000 [Eh]
	 Same-Spin Energy          =      -0.3712632474076443 [Eh]
	 Opposite-Spin Energy      =      -1.1245065445392100 [Eh]
	 Correlation Energy        =      -1.4957697919468542 [Eh]
	 Total Energy              =    -323.8963571759806541 [Eh]

	 ================> DF-SCS-MP2 Energies <==================
	-----------------------------------------------------------
	 SCS Same-Spin Scale       =       0.3333333333333333 [-]
	 SCS Opposite-Spin Scale   =       1.2000000000000000 [-]
	 SCS Same-Spin Energy      =      -0.1237544158025481 [Eh]
	 SCS Opposite-Spin Energy  =      -1.3494078534470519 [Eh]
	 SCS Correlation Energy    =      -1.4731622692496000 [Eh]
	 SCS Total Energy          =    -323.8737496532834257 [Eh]
	-----------------------------------------------------------

  Dipole Moment: [D]
     X:     4.1843      Y:    -0.0000      Z:    -0.0001     Total:     4.1843

*** Psi4 exiting successfully. Buy a developer a beer!
