                               Psi4 1.4a3.dev225

  ==> Input File <==

--------------------------------------------------------------------------
#psi4
#
memory 32 gb

molecule  {
0 1
  N        3.2235920     0.0000000    -0.0000720
  C        0.6037120     0.0000010    -0.0000120
  C       -0.0916070     1.2188380     0.0000020
  C       -0.0916060    -1.2188370     0.0000020
  C       -1.4853720     1.2105070     0.0000330
  C       -1.4853700    -1.2105080     0.0000330
  C       -2.1831670    -0.0000010     0.0000480
  C        2.0599540     0.0000010    -0.0000445
  H        0.4610180     2.1546720    -0.0000100
  H        0.4610230    -2.1546690    -0.0000100
  H       -2.0281130     2.1522020     0.0000440
  H       -2.0281090    -2.1522040     0.0000440
  H       -3.2702320    -0.0000020     0.0000720
units angstrom
no_reorient  #important for SAPT in psi4, default
symmetry c1  #important for SAPT in psi4, default
}

set PROPERTIES_ORIGIN ["COM"]
properties('MP2/aug-cc-pvtz', properties = ['dipole'])
--------------------------------------------------------------------------

    Molecular point group: c1
  Charge       = 0
  Multiplicity = 1
  Basis Set: AUG-CC-PVTZ
    Blend: AUG-CC-PVTZ
  Basis Set: (AUG-CC-PVTZ AUX)
    Blend: AUG-CC-PVTZ-JKFIT

    Orbital Energies [Eh]
    ---------------------

    Doubly Occupied:

       1A    -15.576504     2A    -11.296308     3A    -11.281971
       4A    -11.274700     5A    -11.274654     6A    -11.269619
       7A    -11.264668     8A    -11.264515     9A     -1.221651
      10A     -1.181426    11A     -1.060499    12A     -1.047045
      13A     -0.884263    14A     -0.858793    15A     -0.763337
      16A     -0.698852    17A     -0.660274    18A     -0.636921
      19A     -0.618487    20A     -0.566556    21A     -0.552216
      22A     -0.534866    23A     -0.530380    24A     -0.480664
      25A     -0.466897    26A     -0.366633    27A     -0.359711

  @DF-RHF Final Energy:  -322.54094558439579

   => Energetics <=

    Nuclear Repulsion Energy =            298.5795252235201360
    One-Electron Energy =               -1026.2561233261344569
    Two-Electron Energy =                 405.1356525182185351
    Total Energy =                       -322.5409455843957858
  Basis Set: (AUG-CC-PVTZ AUX)
    Blend: AUG-CC-PVTZ-RI
    Molecular point group: c1

    Geometry (in Angstrom), charge = 0, multiplicity = 1:

       Center              X                  Y                   Z               Mass
    ------------   -----------------  -----------------  -----------------  -----------------
         N            3.159499835320    -0.000000106676    -0.000070746865    14.003074004430
         C            0.539619835320     0.000000893324    -0.000010746865    12.000000000000
         C           -0.155699164680     1.218837893324     0.000003253135    12.000000000000
         C           -0.155698164680    -1.218837106676     0.000003253135    12.000000000000
         C           -1.549464164680     1.210506893324     0.000034253135    12.000000000000
         C           -1.549462164680    -1.210508106676     0.000034253135    12.000000000000
         C           -2.247259164680    -0.000001106676     0.000049253135    12.000000000000
         C            1.995861835320     0.000000893324    -0.000043246865    12.000000000000
         H            0.396925835320     2.154671893324    -0.000008746865     1.007825032230
         H            0.396930835320    -2.154669106676    -0.000008746865     1.007825032230
         H           -2.092205164680     2.152201893324     0.000045253135     1.007825032230
         H           -2.092201164680    -2.152204106676     0.000045253135     1.007825032230
         H           -3.334324164680    -0.000002106676     0.000073253135     1.007825032230

  Basis Set: AUG-CC-PVTZ
    Blend: AUG-CC-PVTZ
  Basis Set: (AUG-CC-PVTZ AUX)
    Blend: AUG-CC-PVTZ-JKFIT
	 Reference Energy          =    -322.5409455843957858 [Eh]
	 Singles Energy            =      -0.0000000000000000 [Eh]
	 Same-Spin Energy          =      -0.3515115956305378 [Eh]
	 Opposite-Spin Energy      =      -1.0886345026560034 [Eh]
	 Correlation Energy        =      -1.4401460982865411 [Eh]
	 Total Energy              =    -323.9810916826823473 [Eh]

	 ================> DF-SCS-MP2 Energies <==================
	-----------------------------------------------------------
	 SCS Same-Spin Scale       =       0.3333333333333333 [-]
	 SCS Opposite-Spin Scale   =       1.2000000000000000 [-]
	 SCS Same-Spin Energy      =      -0.1171705318768459 [Eh]
	 SCS Opposite-Spin Energy  =      -1.3063614031872040 [Eh]
	 SCS Correlation Energy    =      -1.4235319350640498 [Eh]
	 SCS Total Energy          =    -323.9644775194598196 [Eh]
	-----------------------------------------------------------

  Dipole Moment: [D]
     X:    -4.5187      Y:     0.0000      Z:     0.0001     Total:     4.5187

*** Psi4 exiting successfully. Buy a developer a beer!
