                               Psi4 1.3.2 release

  ==> Input File <==

--------------------------------------------------------------------------
#psi4
#
memory 32 gb

molecule  {
0 1
  N       -3.1784602    -0.1635951     0.0001059
  C       -0.6037160    -0.0000080    -0.0000850
  C        0.0916120    -1.2188480    -0.0000380
  C        0.0915980     1.2188410    -0.0000380
  C        1.4853760    -1.2105100     0.0000370
  C        1.4853620     1.2105190     0.0000370
  C        2.1831530     0.0000080     0.0000710
  C       -2.0399480    -0.0000140    -0.0001810
  H       -0.4610000    -2.1546890    -0.0000690
  H       -0.4610240     2.1546760    -0.0000680
  H        2.0281230    -2.1522080     0.0000640
  H        2.0281000     2.1522220     0.0000650
  H        3.2702100     0.0000140     0.0001300
units angstrom
no_reorient  #important for SAPT in psi4, default
symmetry c1  #important for SAPT in psi4, default
}

set PROPERTIES_ORIGIN ["COM"]
properties('MP2/aug-cc-pvtz', properties = ['dipole'])
--------------------------------------------------------------------------

    Molecular point group: c1
  Charge       = 0
  Multiplicity = 1
  Basis Set: AUG-CC-PVTZ
    Blend: AUG-CC-PVTZ
  Basis Set: (AUG-CC-PVTZ AUX)
    Blend: AUG-CC-PVTZ-JKFIT

    Orbital Energies [Eh]
    ---------------------

    Doubly Occupied:

       1A    -15.572210     2A    -11.292818     3A    -11.275702
       4A    -11.274082     5A    -11.273814     6A    -11.269142
       7A    -11.264122     8A    -11.263888     9A     -1.228410
      10A     -1.181698    11A     -1.061603    12A     -1.046481
      13A     -0.886266    14A     -0.858477    15A     -0.763770
      16A     -0.698820    17A     -0.660359    18A     -0.636147
      19A     -0.617909    20A     -0.566066    21A     -0.553997
      22A     -0.535130    23A     -0.530414    24A     -0.483589
      25A     -0.469961    26A     -0.366090    27A     -0.358973

  @DF-RHF Final Energy:  -322.54197716103567

   => Energetics <=

    Nuclear Repulsion Energy =            299.6061859913040166
    One-Electron Energy =               -1028.3164522542338091
    Two-Electron Energy =                 406.1682891018940609
    Total Energy =                       -322.5419771610356747
  Basis Set: (AUG-CC-PVTZ AUX)
    Blend: AUG-CC-PVTZ-RI
    Molecular point group: c1

    Geometry (in Angstrom), charge = 0, multiplicity = 1:

       Center              X                  Y                   Z               Mass
    ------------   -----------------  -----------------  -----------------  -----------------
         N           -3.122828179912    -0.141361848058     0.000113257372    14.003074004430
         C           -0.548083979912     0.022225251942    -0.000077642628    12.000000000000
         C            0.147244020088    -1.196614748058    -0.000030642628    12.000000000000
         C            0.147230020088     1.241074251942    -0.000030642628    12.000000000000
         C            1.541008020088    -1.188276748058     0.000044357372    12.000000000000
         C            1.540994020088     1.232752251942     0.000044357372    12.000000000000
         C            2.238785020088     0.022241251942     0.000078357372    12.000000000000
         C           -1.984315979912     0.022219251942    -0.000173642628    12.000000000000
         H           -0.405367979912    -2.132455748058    -0.000061642628     1.007825032230
         H           -0.405391979912     2.176909251942    -0.000060642628     1.007825032230
         H            2.083755020088    -2.129974748058     0.000071357372     1.007825032230
         H            2.083732020088     2.174455251942     0.000072357372     1.007825032230
         H            3.325842020088     0.022247251942     0.000137357372     1.007825032230

  Basis Set: AUG-CC-PVTZ
    Blend: AUG-CC-PVTZ
  Basis Set: (AUG-CC-PVTZ AUX)
    Blend: AUG-CC-PVTZ-JKFIT
	 Reference Energy          =    -322.5419771610356747 [Eh]
	 Singles Energy            =      -0.0000000000000000 [Eh]
	 Same-Spin Energy          =      -0.3510269691855320 [Eh]
	 Opposite-Spin Energy      =      -1.0873121880037107 [Eh]
	 Correlation Energy        =      -1.4383391571892425 [Eh]
	 Total Energy              =    -323.9803163182249364 [Eh]

	 ================> DF-SCS-MP2 Energies <==================
	-----------------------------------------------------------
	 SCS Same-Spin Scale       =       0.3333333333333333 [-]
	 SCS Opposite-Spin Scale   =       1.2000000000000000 [-]
	 SCS Same-Spin Energy      =      -0.1170089897285107 [Eh]
	 SCS Opposite-Spin Energy  =      -1.3047746256044528 [Eh]
	 SCS Correlation Energy    =      -1.4217836153329635 [Eh]
	 SCS Total Energy          =    -323.9637607763686447 [Eh]
	-----------------------------------------------------------

  Dipole Moment: [D]
     X:     4.4669      Y:     0.2324      Z:    -0.0003     Total:     4.4730

*** Psi4 exiting successfully. Buy a developer a beer!
