                               Psi4 1.3.2 release

  ==> Input File <==

--------------------------------------------------------------------------
#psi4
#
memory 32 gb

molecule  {
0 1
  N       -3.2965453     0.3314346     0.0002437
  C       -0.6037160    -0.0000080    -0.0000850
  C        0.0916120    -1.2188480    -0.0000380
  C        0.0915980     1.2188410    -0.0000380
  C        1.4853760    -1.2105100     0.0000370
  C        1.4853620     1.2105190     0.0000370
  C        2.1831530     0.0000080     0.0000710
  C       -2.0399480    -0.0000140    -0.0001810
  H       -0.4610000    -2.1546890    -0.0000690
  H       -0.4610240     2.1546760    -0.0000680
  H        2.0281230    -2.1522080     0.0000640
  H        2.0281000     2.1522220     0.0000650
  H        3.2702100     0.0000140     0.0001300
units angstrom
no_reorient  #important for SAPT in psi4, default
symmetry c1  #important for SAPT in psi4, default
}

set PROPERTIES_ORIGIN ["COM"]
properties('MP2/aug-cc-pvtz', properties = ['dipole'])
--------------------------------------------------------------------------

    Molecular point group: c1
  Charge       = 0
  Multiplicity = 1
  Basis Set: AUG-CC-PVTZ
    Blend: AUG-CC-PVTZ
  Basis Set: (AUG-CC-PVTZ AUX)
    Blend: AUG-CC-PVTZ-JKFIT

    Orbital Energies [Eh]
    ---------------------

    Doubly Occupied:

       1A    -15.614641     2A    -11.321752     3A    -11.296862
       4A    -11.278358     5A    -11.278271     6A    -11.273531
       7A    -11.266800     8A    -11.266612     9A     -1.197562
      10A     -1.149814    11A     -1.061964    12A     -1.049751
      13A     -0.892381    14A     -0.861598    15A     -0.770612
      16A     -0.704533    17A     -0.663018    18A     -0.641319
      19A     -0.620963    20A     -0.568810    21A     -0.550928
      22A     -0.534781    23A     -0.531434    24A     -0.457189
      25A     -0.428636    26A     -0.369019    27A     -0.354092

  @DF-RHF Final Energy:  -322.48572806529836

   => Energetics <=

    Nuclear Repulsion Energy =            296.1311790212293431
    One-Electron Energy =               -1021.2233541918095625
    Two-Electron Energy =                 402.6064471052819158
    Total Energy =                       -322.4857280652983604
  Basis Set: (AUG-CC-PVTZ AUX)
    Blend: AUG-CC-PVTZ-RI
    Molecular point group: c1

    Geometry (in Angstrom), charge = 0, multiplicity = 1:

       Center              X                  Y                   Z               Mass
    ------------   -----------------  -----------------  -----------------  -----------------
         N           -3.224865928366     0.286395049346     0.000232330835    14.003074004430
         C           -0.532036628366    -0.045047550654    -0.000096369165    12.000000000000
         C            0.163291371634    -1.263887550654    -0.000049369165    12.000000000000
         C            0.163277371634     1.173801449346    -0.000049369165    12.000000000000
         C            1.557055371634    -1.255549550654     0.000025630835    12.000000000000
         C            1.557041371634     1.165479449346     0.000025630835    12.000000000000
         C            2.254832371634    -0.045031550654     0.000059630835    12.000000000000
         C           -1.968268628366    -0.045053550654    -0.000192369165    12.000000000000
         H           -0.389320628366    -2.199728550654    -0.000080369165     1.007825032230
         H           -0.389344628366     2.109636449346    -0.000079369165     1.007825032230
         H            2.099802371634    -2.197247550654     0.000052630835     1.007825032230
         H            2.099779371634     2.107182449346     0.000053630835     1.007825032230
         H            3.341889371634    -0.045025550654     0.000118630835     1.007825032230

  Basis Set: AUG-CC-PVTZ
    Blend: AUG-CC-PVTZ
  Basis Set: (AUG-CC-PVTZ AUX)
    Blend: AUG-CC-PVTZ-JKFIT
	 Reference Energy          =    -322.4857280652983604 [Eh]
	 Singles Energy            =      -0.0000000000000000 [Eh]
	 Same-Spin Energy          =      -0.3612788448754740 [Eh]
	 Opposite-Spin Energy      =      -1.1087582053103984 [Eh]
	 Correlation Energy        =      -1.4700370501858724 [Eh]
	 Total Energy              =    -323.9557651154842119 [Eh]

	 ================> DF-SCS-MP2 Energies <==================
	-----------------------------------------------------------
	 SCS Same-Spin Scale       =       0.3333333333333333 [-]
	 SCS Opposite-Spin Scale   =       1.2000000000000000 [-]
	 SCS Same-Spin Energy      =      -0.1204262816251580 [Eh]
	 SCS Opposite-Spin Energy  =      -1.3305098463724780 [Eh]
	 SCS Correlation Energy    =      -1.4509361279976360 [Eh]
	 SCS Total Energy          =    -323.9366641932959965 [Eh]
	-----------------------------------------------------------

  Dipole Moment: [D]
     X:     4.3833      Y:    -0.3883      Z:    -0.0003     Total:     4.4005

*** Psi4 exiting successfully. Buy a developer a beer!
