                               Psi4 1.3.2 release

  ==> Input File <==

--------------------------------------------------------------------------
#psi4
#
memory 32 gb

molecule  {
0 1
  N       -3.2235750     0.0000070     0.0001520
  C       -0.6037160    -0.0000080    -0.0000850
  C        0.0916120    -1.2188480    -0.0000380
  C        0.0915980     1.2188410    -0.0000380
  C        1.4853760    -1.2105100     0.0000370
  C        1.4853620     1.2105190     0.0000370
  C        2.1831530     0.0000080     0.0000710
  C       -2.1399480    -0.0000144    -0.0001877
  H       -0.4610000    -2.1546890    -0.0000690
  H       -0.4610240     2.1546760    -0.0000680
  H        2.0281230    -2.1522080     0.0000640
  H        2.0281000     2.1522220     0.0000650
  H        3.2702100     0.0000140     0.0001300
units angstrom
no_reorient  #important for SAPT in psi4, default
symmetry c1  #important for SAPT in psi4, default
}

set PROPERTIES_ORIGIN ["COM"]
properties('MP2/aug-cc-pvtz', properties = ['dipole'])
--------------------------------------------------------------------------

    Molecular point group: c1
  Charge       = 0
  Multiplicity = 1
  Basis Set: AUG-CC-PVTZ
    Blend: AUG-CC-PVTZ
  Basis Set: (AUG-CC-PVTZ AUX)
    Blend: AUG-CC-PVTZ-JKFIT

    Orbital Energies [Eh]
    ---------------------

    Doubly Occupied:

       1A    -15.551062     2A    -11.304231     3A    -11.273020
       4A    -11.272984     5A    -11.267470     6A    -11.263852
       7A    -11.263644     8A    -11.259146     9A     -1.256062
      10A     -1.181900    11A     -1.052785    12A     -1.045654
      13A     -0.869939    14A     -0.856574    15A     -0.753246
      16A     -0.691700    17A     -0.657400    18A     -0.633789
      19A     -0.617370    20A     -0.563255    21A     -0.552037
      22A     -0.532501    23A     -0.529961    24A     -0.498190
      25A     -0.494323    26A     -0.365499    27A     -0.363685

  @DF-RHF Final Energy:  -322.53310302094877

   => Energetics <=

    Nuclear Repulsion Energy =            298.5286169580396063
    One-Electron Energy =               -1026.1808810359891595
    Two-Electron Energy =                 405.1191610570007811
    Total Energy =                       -322.5331030209487722
  Basis Set: (AUG-CC-PVTZ AUX)
    Blend: AUG-CC-PVTZ-RI
    Molecular point group: c1

    Geometry (in Angstrom), charge = 0, multiplicity = 1:

       Center              X                  Y                   Z               Mass
    ------------   -----------------  -----------------  -----------------  -----------------
         N           -3.150166322407     0.000007346083     0.000153872806    14.003074004430
         C           -0.530307322407    -0.000007653917    -0.000083127194    12.000000000000
         C            0.165020677593    -1.218847653917    -0.000036127194    12.000000000000
         C            0.165006677593     1.218841346083    -0.000036127194    12.000000000000
         C            1.558784677593    -1.210509653917     0.000038872806    12.000000000000
         C            1.558770677593     1.210519346083     0.000038872806    12.000000000000
         C            2.256561677593     0.000008346083     0.000072872806    12.000000000000
         C           -2.066539322407    -0.000014053917    -0.000185827194    12.000000000000
         H           -0.387591322407    -2.154688653917    -0.000067127194     1.007825032230
         H           -0.387615322407     2.154676346083    -0.000066127194     1.007825032230
         H            2.101531677593    -2.152207653917     0.000065872806     1.007825032230
         H            2.101508677593     2.152222346083     0.000066872806     1.007825032230
         H            3.343618677593     0.000014346083     0.000131872806     1.007825032230

  Basis Set: AUG-CC-PVTZ
    Blend: AUG-CC-PVTZ
  Basis Set: (AUG-CC-PVTZ AUX)
    Blend: AUG-CC-PVTZ-JKFIT
	 Reference Energy          =    -322.5331030209487722 [Eh]
	 Singles Energy            =      -0.0000000000000000 [Eh]
	 Same-Spin Energy          =      -0.3460708974005230 [Eh]
	 Opposite-Spin Energy      =      -1.0784029678666274 [Eh]
	 Correlation Energy        =      -1.4244738652671503 [Eh]
	 Total Energy              =    -323.9575768862159180 [Eh]

	 ================> DF-SCS-MP2 Energies <==================
	-----------------------------------------------------------
	 SCS Same-Spin Scale       =       0.3333333333333333 [-]
	 SCS Opposite-Spin Scale   =       1.2000000000000000 [-]
	 SCS Same-Spin Energy      =      -0.1153569658001743 [Eh]
	 SCS Opposite-Spin Energy  =      -1.2940835614399528 [Eh]
	 SCS Correlation Energy    =      -1.4094405272401271 [Eh]
	 SCS Total Energy          =    -323.9425435481888940 [Eh]
	-----------------------------------------------------------

  Dipole Moment: [D]
     X:     4.5119      Y:    -0.0000      Z:    -0.0004     Total:     4.5119

*** Psi4 exiting successfully. Buy a developer a beer!
