                               Psi4 1.3.2 release

  ==> Input File <==

--------------------------------------------------------------------------
#psi4
#
memory 32 gb

molecule  {
0 1
  N       -3.2439842     0.0823736     0.0001750
  C       -0.6037160    -0.0000080    -0.0000850
  C        0.0916120    -1.2188480    -0.0000380
  C        0.0915980     1.2188410    -0.0000380
  C        1.4853760    -1.2105100     0.0000370
  C        1.4853620     1.2105190     0.0000370
  C        2.1831530     0.0000080     0.0000710
  C       -2.0399480    -0.0000140    -0.0001810
  H       -0.4610000    -2.1546890    -0.0000690
  H       -0.4610240     2.1546760    -0.0000680
  H        2.0281230    -2.1522080     0.0000640
  H        2.0281000     2.1522220     0.0000650
  H        3.2702100     0.0000140     0.0001300
units angstrom
no_reorient  #important for SAPT in psi4, default
symmetry c1  #important for SAPT in psi4, default
}

set PROPERTIES_ORIGIN ["COM"]
properties('MP2/aug-cc-pvtz', properties = ['dipole'])
--------------------------------------------------------------------------

    Molecular point group: c1
  Charge       = 0
  Multiplicity = 1
  Basis Set: AUG-CC-PVTZ
    Blend: AUG-CC-PVTZ
  Basis Set: (AUG-CC-PVTZ AUX)
    Blend: AUG-CC-PVTZ-JKFIT

    Orbital Energies [Eh]
    ---------------------

    Doubly Occupied:

       1A    -15.589014     2A    -11.295230     3A    -11.294273
       4A    -11.276026     5A    -11.275925     6A    -11.271009
       7A    -11.265428     8A    -11.265274     9A     -1.207892
      10A     -1.176637    11A     -1.062910    12A     -1.048061
      13A     -0.889221    14A     -0.860012    15A     -0.766831
      16A     -0.701314    17A     -0.661610    18A     -0.638457
      19A     -0.619380    20A     -0.567494    21A     -0.552259
      22A     -0.535457    23A     -0.530999    24A     -0.472483
      25A     -0.453425    26A     -0.367512    27A     -0.357624

  @DF-RHF Final Energy:  -322.52992063953639

   => Energetics <=

    Nuclear Repulsion Energy =            298.0682165100159295
    One-Electron Energy =               -1025.1927546824001638
    Two-Electron Energy =                 404.5946175328479057
    Total Energy =                       -322.5299206395363854
  Basis Set: (AUG-CC-PVTZ AUX)
    Blend: AUG-CC-PVTZ-RI
    Molecular point group: c1

    Geometry (in Angstrom), charge = 0, multiplicity = 1:

       Center              X                  Y                   Z               Mass
    ------------   -----------------  -----------------  -----------------  -----------------
         N           -3.179447697782     0.071180567014     0.000172966924    14.003074004430
         C           -0.539179497782    -0.011201032986    -0.000087033076    12.000000000000
         C            0.156148502218    -1.230041032986    -0.000040033076    12.000000000000
         C            0.156134502218     1.207647967014    -0.000040033076    12.000000000000
         C            1.549912502218    -1.221703032986     0.000034966924    12.000000000000
         C            1.549898502218     1.199325967014     0.000034966924    12.000000000000
         C            2.247689502218    -0.011185032986     0.000068966924    12.000000000000
         C           -1.975411497782    -0.011207032986    -0.000183033076    12.000000000000
         H           -0.396463497782    -2.165882032986    -0.000071033076     1.007825032230
         H           -0.396487497782     2.143482967014    -0.000070033076     1.007825032230
         H            2.092659502218    -2.163401032986     0.000061966924     1.007825032230
         H            2.092636502218     2.141028967014     0.000062966924     1.007825032230
         H            3.334746502218    -0.011179032986     0.000127966924     1.007825032230

  Basis Set: AUG-CC-PVTZ
    Blend: AUG-CC-PVTZ
  Basis Set: (AUG-CC-PVTZ AUX)
    Blend: AUG-CC-PVTZ-JKFIT
	 Reference Energy          =    -322.5299206395363854 [Eh]
	 Singles Energy            =      -0.0000000000000000 [Eh]
	 Same-Spin Energy          =      -0.3545716526727540 [Eh]
	 Opposite-Spin Energy      =      -1.0946287338578096 [Eh]
	 Correlation Energy        =      -1.4492003865305636 [Eh]
	 Total Energy              =    -323.9791210260669345 [Eh]

	 ================> DF-SCS-MP2 Energies <==================
	-----------------------------------------------------------
	 SCS Same-Spin Scale       =       0.3333333333333333 [-]
	 SCS Opposite-Spin Scale   =       1.2000000000000000 [-]
	 SCS Same-Spin Energy      =      -0.1181905508909180 [Eh]
	 SCS Opposite-Spin Energy  =      -1.3135544806293715 [Eh]
	 SCS Correlation Energy    =      -1.4317450315202895 [Eh]
	 SCS Total Energy          =    -323.9616656710566645 [Eh]
	-----------------------------------------------------------

  Dipole Moment: [D]
     X:     4.5242      Y:    -0.1081      Z:    -0.0003     Total:     4.5255

*** Psi4 exiting successfully. Buy a developer a beer!
