                               Psi4 1.3.2 release

  ==> Input File <==

--------------------------------------------------------------------------
#psi4
#
memory 32 gb

molecule  {
0 1
  O       -1.4489980    -1.3596060     0.4723610
  O       -2.3691670     0.4939580    -0.4217430
  C        1.1321160    -0.2196140    -0.0405290
  C       -0.0105280     0.5069120     0.0326710
  C        2.4766970     0.4535350     0.0627600
  C        1.2313970    -1.7075980    -0.2583110
  C       -0.0156040     2.0162910     0.1296940
  C       -1.3692178    -0.1085155     0.2273864
  H        2.9277060     0.5711490    -0.9308000
  H        2.4285750     1.4356710     0.5340320
  H        3.1575210    -0.1728930     0.6488100
  H        0.3470430    -2.1345670    -0.7252240
  H        1.3871470    -2.2249860     0.6954000
  H        2.1022510    -1.9178450    -0.8884640
  H        0.7095660     2.4663690    -0.5519310
  H        0.2213140     2.3529670     1.1451890
  H       -1.0053580     2.3925600    -0.1303250
  H       -2.3942410    -1.6004330     0.3722060
units angstrom
no_reorient  #important for SAPT in psi4, default
symmetry c1  #important for SAPT in psi4, default
}

set PROPERTIES_ORIGIN ["COM"]
properties('MP2/aug-cc-pvtz', properties = ['dipole'])
--------------------------------------------------------------------------

    Molecular point group: c1
  Charge       = 0
  Multiplicity = 1
  Basis Set: AUG-CC-PVTZ
    Blend: AUG-CC-PVTZ
  Basis Set: (AUG-CC-PVTZ AUX)
    Blend: AUG-CC-PVTZ-JKFIT

    Orbital Energies [Eh]
    ---------------------

    Doubly Occupied:

       1A    -20.635832     2A    -20.525810     3A    -11.394971
       4A    -11.267151     5A    -11.247756     6A    -11.234136
       7A    -11.230116     8A    -11.216636     9A     -1.492425
      10A     -1.288758    11A     -1.122248    12A     -1.013586
      13A     -0.957502    14A     -0.915099    15A     -0.850934
      16A     -0.748643    17A     -0.713200    18A     -0.663583
      19A     -0.648249    20A     -0.605976    21A     -0.593431
      22A     -0.581483    23A     -0.563068    24A     -0.549671
      25A     -0.541544    26A     -0.538643    27A     -0.509425
      28A     -0.487154    29A     -0.446873    30A     -0.435336
      31A     -0.343995

  @DF-RHF Final Energy:  -382.85525102968012

   => Energetics <=

    Nuclear Repulsion Energy =            377.9615490080950622
    One-Electron Energy =               -1270.9071327951594412
    Two-Electron Energy =                 510.0903327573842603
    Total Energy =                       -382.8552510296801188
  Basis Set: (AUG-CC-PVTZ AUX)
    Blend: AUG-CC-PVTZ-RI
    Molecular point group: c1

    Geometry (in Angstrom), charge = 0, multiplicity = 1:

       Center              X                  Y                   Z               Mass
    ------------   -----------------  -----------------  -----------------  -----------------
         O           -1.363311859125    -1.347536819202     0.447604714173    15.994914619570
         O           -2.283480859125     0.506027180798    -0.446499285827    15.994914619570
         C            1.217802140875    -0.207544819202    -0.065285285827    12.000000000000
         C            0.075158140875     0.518981180798     0.007914714173    12.000000000000
         C            2.562383140875     0.465604180798     0.038003714173    12.000000000000
         C            1.317083140875    -1.695528819202    -0.283067285827    12.000000000000
         C            0.070082140875     2.028360180798     0.104937714173    12.000000000000
         C           -1.283531659125    -0.096446319202     0.202630114173    12.000000000000
         H            3.013392140875     0.583218180798    -0.955556285827     1.007825032230
         H            2.514261140875     1.447740180798     0.509275714173     1.007825032230
         H            3.243207140875    -0.160823819202     0.624053714173     1.007825032230
         H            0.432729140875    -2.122497819202    -0.749980285827     1.007825032230
         H            1.472833140875    -2.212916819202     0.670643714173     1.007825032230
         H            2.187937140875    -1.905775819202    -0.913220285827     1.007825032230
         H            0.795252140875     2.478438180798    -0.576687285827     1.007825032230
         H            0.307000140875     2.365036180798     1.120432714173     1.007825032230
         H           -0.919671859125     2.404629180798    -0.155081285827     1.007825032230
         H           -2.308554859125    -1.588363819202     0.347449714173     1.007825032230

  Basis Set: AUG-CC-PVTZ
    Blend: AUG-CC-PVTZ
  Basis Set: (AUG-CC-PVTZ AUX)
    Blend: AUG-CC-PVTZ-JKFIT
	 Reference Energy          =    -382.8552510296801188 [Eh]
	 Singles Energy            =      -0.0000000000000000 [Eh]
	 Same-Spin Energy          =      -0.3906124033631607 [Eh]
	 Opposite-Spin Energy      =      -1.2660596261235959 [Eh]
	 Correlation Energy        =      -1.6566720294867565 [Eh]
	 Total Energy              =    -384.5119230591668611 [Eh]

	 ================> DF-SCS-MP2 Energies <==================
	-----------------------------------------------------------
	 SCS Same-Spin Scale       =       0.3333333333333333 [-]
	 SCS Opposite-Spin Scale   =       1.2000000000000000 [-]
	 SCS Same-Spin Energy      =      -0.1302041344543869 [Eh]
	 SCS Opposite-Spin Energy  =      -1.5192715513483150 [Eh]
	 SCS Correlation Energy    =      -1.6494756858027020 [Eh]
	 SCS Total Energy          =    -384.5047267154828319 [Eh]
	-----------------------------------------------------------

  Dipole Moment: [D]
     X:     2.1471      Y:    -1.5193      Z:     0.9775     Total:     2.8060

*** Psi4 exiting successfully. Buy a developer a beer!
