                               Psi4 1.3.2 release

  ==> Input File <==

--------------------------------------------------------------------------
#psi4
#
memory 32 gb

molecule  {
0 1
  O       -1.4489980    -1.3596060     0.4723610
  O       -2.3691670     0.4939580    -0.4217430
  C        1.1321160    -0.2196140    -0.0405290
  C       -0.0105280     0.5069120     0.0326710
  C        2.4766970     0.4535350     0.0627600
  C        1.2313970    -1.7075980    -0.2583110
  C       -0.0156040     2.0162910     0.1296940
  C       -1.3695755    -0.1011069     0.1276618
  H        2.9277060     0.5711490    -0.9308000
  H        2.4285750     1.4356710     0.5340320
  H        3.1575210    -0.1728930     0.6488100
  H        0.3470430    -2.1345670    -0.7252240
  H        1.3871470    -2.2249860     0.6954000
  H        2.1022510    -1.9178450    -0.8884640
  H        0.7095660     2.4663690    -0.5519310
  H        0.2213140     2.3529670     1.1451890
  H       -1.0053580     2.3925600    -0.1303250
  H       -2.3942410    -1.6004330     0.3722060
units angstrom
no_reorient  #important for SAPT in psi4, default
symmetry c1  #important for SAPT in psi4, default
}

set PROPERTIES_ORIGIN ["COM"]
properties('MP2/aug-cc-pvtz', properties = ['dipole'])
--------------------------------------------------------------------------

    Molecular point group: c1
  Charge       = 0
  Multiplicity = 1
  Basis Set: AUG-CC-PVTZ
    Blend: AUG-CC-PVTZ
  Basis Set: (AUG-CC-PVTZ AUX)
    Blend: AUG-CC-PVTZ-JKFIT

    Orbital Energies [Eh]
    ---------------------

    Doubly Occupied:

       1A    -20.625780     2A    -20.530828     3A    -11.389804
       4A    -11.267968     5A    -11.244746     6A    -11.234287
       7A    -11.229557     8A    -11.217663     9A     -1.475085
      10A     -1.315320    11A     -1.123000    12A     -1.014615
      13A     -0.957308    14A     -0.912381    15A     -0.843760
      16A     -0.745053    17A     -0.706718    18A     -0.663127
      19A     -0.642312    20A     -0.605478    21A     -0.594109
      22A     -0.589770    23A     -0.563059    24A     -0.549658
      25A     -0.543708    26A     -0.541753    27A     -0.511613
      28A     -0.489799    29A     -0.459296    30A     -0.441500
      31A     -0.347236

  @DF-RHF Final Energy:  -382.88252226785636

   => Energetics <=

    Nuclear Repulsion Energy =            378.4150711111348073
    One-Electron Energy =               -1271.8426113069770054
    Two-Electron Energy =                 510.5450179279858389
    Total Energy =                       -382.8825222678563591
  Basis Set: (AUG-CC-PVTZ AUX)
    Blend: AUG-CC-PVTZ-RI
    Molecular point group: c1

    Geometry (in Angstrom), charge = 0, multiplicity = 1:

       Center              X                  Y                   Z               Mass
    ------------   -----------------  -----------------  -----------------  -----------------
         O           -1.363274228966    -1.348316206392     0.458095775341    15.994914619570
         O           -2.283443228966     0.505247793608    -0.436008224659    15.994914619570
         C            1.217839771034    -0.208324206392    -0.054794224659    12.000000000000
         C            0.075195771034     0.518201793608     0.018405775341    12.000000000000
         C            2.562420771034     0.464824793608     0.048494775341    12.000000000000
         C            1.317120771034    -1.696308206392    -0.272576224659    12.000000000000
         C            0.070119771034     2.027580793608     0.115428775341    12.000000000000
         C           -1.283851728966    -0.089817106392     0.113396575341    12.000000000000
         H            3.013429771034     0.582438793608    -0.945065224659     1.007825032230
         H            2.514298771034     1.446960793608     0.519766775341     1.007825032230
         H            3.243244771034    -0.161603206392     0.634544775341     1.007825032230
         H            0.432766771034    -2.123277206392    -0.739489224659     1.007825032230
         H            1.472870771034    -2.213696206392     0.681134775341     1.007825032230
         H            2.187974771034    -1.906555206392    -0.902729224659     1.007825032230
         H            0.795289771034     2.477658793608    -0.566196224659     1.007825032230
         H            0.307037771034     2.364256793608     1.130923775341     1.007825032230
         H           -0.919634228966     2.403849793608    -0.144590224659     1.007825032230
         H           -2.308517228966    -1.589143206392     0.357940775341     1.007825032230

  Basis Set: AUG-CC-PVTZ
    Blend: AUG-CC-PVTZ
  Basis Set: (AUG-CC-PVTZ AUX)
    Blend: AUG-CC-PVTZ-JKFIT
	 Reference Energy          =    -382.8825222678563591 [Eh]
	 Singles Energy            =      -0.0000000000000000 [Eh]
	 Same-Spin Energy          =      -0.3892379259527486 [Eh]
	 Opposite-Spin Energy      =      -1.2627758425954039 [Eh]
	 Correlation Energy        =      -1.6520137685481524 [Eh]
	 Total Energy              =    -384.5345360364045177 [Eh]

	 ================> DF-SCS-MP2 Energies <==================
	-----------------------------------------------------------
	 SCS Same-Spin Scale       =       0.3333333333333333 [-]
	 SCS Opposite-Spin Scale   =       1.2000000000000000 [-]
	 SCS Same-Spin Energy      =      -0.1297459753175829 [Eh]
	 SCS Opposite-Spin Energy  =      -1.5153310111144846 [Eh]
	 SCS Correlation Energy    =      -1.6450769864320676 [Eh]
	 SCS Total Energy          =    -384.5275992542884183 [Eh]
	-----------------------------------------------------------

  Dipole Moment: [D]
     X:     2.1531      Y:    -1.3079      Z:     0.8016     Total:     2.6436

*** Psi4 exiting successfully. Buy a developer a beer!
