                               Psi4 1.3.2 release

  ==> Input File <==

--------------------------------------------------------------------------
#psi4
#
memory 32 gb

molecule  {
0 1
  O       -1.4489980    -1.3596060     0.4723610
  O       -2.3691670     0.4939580    -0.4217430
  C        1.1321160    -0.2196140    -0.0405290
  C       -0.0015879     0.4892099    -0.0132279
  C        2.4766970     0.4535350     0.0627600
  C        1.2313970    -1.7075980    -0.2583110
  C       -0.0156040     2.0162910     0.1296940
  C       -1.3701120    -0.0899940    -0.0219250
  H        2.9277060     0.5711490    -0.9308000
  H        2.4285750     1.4356710     0.5340320
  H        3.1575210    -0.1728930     0.6488100
  H        0.3470430    -2.1345670    -0.7252240
  H        1.3871470    -2.2249860     0.6954000
  H        2.1022510    -1.9178450    -0.8884640
  H        0.7095660     2.4663690    -0.5519310
  H        0.2213140     2.3529670     1.1451890
  H       -1.0053580     2.3925600    -0.1303250
  H       -2.3942410    -1.6004330     0.3722060
units angstrom
no_reorient  #important for SAPT in psi4, default
symmetry c1  #important for SAPT in psi4, default
}

set PROPERTIES_ORIGIN ["COM"]
properties('MP2/aug-cc-pvtz', properties = ['dipole'])
--------------------------------------------------------------------------

    Molecular point group: c1
  Charge       = 0
  Multiplicity = 1
  Basis Set: AUG-CC-PVTZ
    Blend: AUG-CC-PVTZ
  Basis Set: (AUG-CC-PVTZ AUX)
    Blend: AUG-CC-PVTZ-JKFIT

    Orbital Energies [Eh]
    ---------------------

    Doubly Occupied:

       1A    -20.608985     2A    -20.542140     3A    -11.385274
       4A    -11.265344     5A    -11.241550     6A    -11.234264
       7A    -11.227437     8A    -11.220356     9A     -1.453231
      10A     -1.346747    11A     -1.125072    12A     -1.012298
      13A     -0.956566    14A     -0.908371    15A     -0.836260
      16A     -0.734265    17A     -0.699745    18A     -0.662361
      19A     -0.634153    20A     -0.610086    21A     -0.600926
      22A     -0.588146    23A     -0.561400    24A     -0.549577
      25A     -0.546797    26A     -0.541911    27A     -0.514464
      28A     -0.489818    29A     -0.475806    30A     -0.446862
      31A     -0.355107

  @DF-RHF Final Energy:  -382.89929835771045

   => Energetics <=

    Nuclear Repulsion Energy =            378.7874184503457400
    One-Electron Energy =               -1272.6227976427726389
    Two-Electron Energy =                 510.9360808347164493
    Total Energy =                       -382.8992983577104496
  Basis Set: (AUG-CC-PVTZ AUX)
    Blend: AUG-CC-PVTZ-RI
    Molecular point group: c1

    Geometry (in Angstrom), charge = 0, multiplicity = 1:

       Center              X                  Y                   Z               Mass
    ------------   -----------------  -----------------  -----------------  -----------------
         O           -1.364158290487    -1.347623020355     0.478660936156    15.994914619570
         O           -2.284327290487     0.505940979645    -0.415443063844    15.994914619570
         C            1.216955709513    -0.207631020355    -0.034229063844    12.000000000000
         C            0.083251809513     0.501192879645    -0.006927963844    12.000000000000
         C            2.561536709513     0.465517979645     0.069059936156    12.000000000000
         C            1.316236709513    -1.695615020355    -0.252011063844    12.000000000000
         C            0.069235709513     2.028273979645     0.135993936156    12.000000000000
         C           -1.285272290487    -0.078011020355    -0.015625063844    12.000000000000
         H            3.012545709513     0.583131979645    -0.924500063844     1.007825032230
         H            2.513414709513     1.447653979645     0.540331936156     1.007825032230
         H            3.242360709513    -0.160910020355     0.655109936156     1.007825032230
         H            0.431882709513    -2.122584020355    -0.718924063844     1.007825032230
         H            1.471986709513    -2.213003020355     0.701699936156     1.007825032230
         H            2.187090709513    -1.905862020355    -0.882164063844     1.007825032230
         H            0.794405709513     2.478351979645    -0.545631063844     1.007825032230
         H            0.306153709513     2.364949979645     1.151488936156     1.007825032230
         H           -0.920518290487     2.404542979645    -0.124025063844     1.007825032230
         H           -2.309401290487    -1.588450020355     0.378505936156     1.007825032230

  Basis Set: AUG-CC-PVTZ
    Blend: AUG-CC-PVTZ
  Basis Set: (AUG-CC-PVTZ AUX)
    Blend: AUG-CC-PVTZ-JKFIT
	 Reference Energy          =    -382.8992983577104496 [Eh]
	 Singles Energy            =      -0.0000000000000000 [Eh]
	 Same-Spin Energy          =      -0.3877152980281307 [Eh]
	 Opposite-Spin Energy      =      -1.2600891016525249 [Eh]
	 Correlation Energy        =      -1.6478043996806555 [Eh]
	 Total Energy              =    -384.5471027573910874 [Eh]

	 ================> DF-SCS-MP2 Energies <==================
	-----------------------------------------------------------
	 SCS Same-Spin Scale       =       0.3333333333333333 [-]
	 SCS Opposite-Spin Scale   =       1.2000000000000000 [-]
	 SCS Same-Spin Energy      =      -0.1292384326760435 [Eh]
	 SCS Opposite-Spin Energy  =      -1.5121069219830299 [Eh]
	 SCS Correlation Energy    =      -1.6413453546590735 [Eh]
	 SCS Total Energy          =    -384.5406437123695014 [Eh]
	-----------------------------------------------------------

  Dipole Moment: [D]
     X:     2.0994      Y:    -0.9334      Z:     0.4848     Total:     2.3482

*** Psi4 exiting successfully. Buy a developer a beer!
