                               Psi4 1.3.2 release

  ==> Input File <==

--------------------------------------------------------------------------
#psi4
#
memory 32 gb

molecule  {
0 1
  O       -1.4489980    -1.3596060     0.4723610
  O       -2.3691670     0.4939580    -0.4217430
  C        1.1321160    -0.2196140    -0.0405290
  C        0.0073522     0.4715078    -0.0591268
  C        2.4766970     0.4535350     0.0627600
  C        1.2313970    -1.7075980    -0.2583110
  C       -0.0156040     2.0162910     0.1296940
  C       -1.3701120    -0.0899940    -0.0219250
  H        2.9277060     0.5711490    -0.9308000
  H        2.4285750     1.4356710     0.5340320
  H        3.1575210    -0.1728930     0.6488100
  H        0.3470430    -2.1345670    -0.7252240
  H        1.3871470    -2.2249860     0.6954000
  H        2.1022510    -1.9178450    -0.8884640
  H        0.7095660     2.4663690    -0.5519310
  H        0.2213140     2.3529670     1.1451890
  H       -1.0053580     2.3925600    -0.1303250
  H       -2.3942410    -1.6004330     0.3722060
units angstrom
no_reorient  #important for SAPT in psi4, default
symmetry c1  #important for SAPT in psi4, default
}

set PROPERTIES_ORIGIN ["COM"]
properties('MP2/aug-cc-pvtz', properties = ['dipole'])
--------------------------------------------------------------------------

    Molecular point group: c1
  Charge       = 0
  Multiplicity = 1
  Basis Set: AUG-CC-PVTZ
    Blend: AUG-CC-PVTZ
  Basis Set: (AUG-CC-PVTZ AUX)
    Blend: AUG-CC-PVTZ-JKFIT

    Orbital Energies [Eh]
    ---------------------

    Doubly Occupied:

       1A    -20.609441     2A    -20.542850     3A    -11.386237
       4A    -11.262651     5A    -11.240743     6A    -11.234290
       7A    -11.226687     8A    -11.221249     9A     -1.453705
      10A     -1.347268    11A     -1.126876    12A     -1.009263
      13A     -0.956651    14A     -0.907753    15A     -0.839391
      16A     -0.734308    17A     -0.700169    18A     -0.661992
      19A     -0.633615    20A     -0.610225    21A     -0.601559
      22A     -0.588607    23A     -0.559991    24A     -0.548778
      25A     -0.546605    26A     -0.540977    27A     -0.514595
      28A     -0.486694    29A     -0.475769    30A     -0.445960
      31A     -0.359767

  @DF-RHF Final Energy:  -382.89642182835530

   => Energetics <=

    Nuclear Repulsion Energy =            378.8450434033240981
    One-Electron Energy =               -1272.7335956410004201
    Two-Electron Energy =                 510.9921304093210210
    Total Energy =                       -382.8964218283553009
  Basis Set: (AUG-CC-PVTZ AUX)
    Blend: AUG-CC-PVTZ-RI
    Molecular point group: c1

    Geometry (in Angstrom), charge = 0, multiplicity = 1:

       Center              X                  Y                   Z               Mass
    ------------   -----------------  -----------------  -----------------  -----------------
         O           -1.365098791988    -1.345760753533     0.483489515738    15.994914619570
         O           -2.285267791988     0.507803246467    -0.410614484262    15.994914619570
         C            1.216015208012    -0.205768753533    -0.029400484262    12.000000000000
         C            0.091251408012     0.485353046467    -0.047998284262    12.000000000000
         C            2.560596208012     0.467380246467     0.073888515738    12.000000000000
         C            1.315296208012    -1.693752753533    -0.247182484262    12.000000000000
         C            0.068295208012     2.030136246467     0.140822515738    12.000000000000
         C           -1.286212791988    -0.076148753533    -0.010796484262    12.000000000000
         H            3.011605208012     0.584994246467    -0.919671484262     1.007825032230
         H            2.512474208012     1.449516246467     0.545160515738     1.007825032230
         H            3.241420208012    -0.159047753533     0.659938515738     1.007825032230
         H            0.430942208012    -2.120721753533    -0.714095484262     1.007825032230
         H            1.471046208012    -2.211140753533     0.706528515738     1.007825032230
         H            2.186150208012    -1.903999753533    -0.877335484262     1.007825032230
         H            0.793465208012     2.480214246467    -0.540802484262     1.007825032230
         H            0.305213208012     2.366812246467     1.156317515738     1.007825032230
         H           -0.921458791988     2.406405246467    -0.119196484262     1.007825032230
         H           -2.310341791988    -1.586587753533     0.383334515738     1.007825032230

  Basis Set: AUG-CC-PVTZ
    Blend: AUG-CC-PVTZ
  Basis Set: (AUG-CC-PVTZ AUX)
    Blend: AUG-CC-PVTZ-JKFIT
	 Reference Energy          =    -382.8964218283553009 [Eh]
	 Singles Energy            =      -0.0000000000000000 [Eh]
	 Same-Spin Energy          =      -0.3874857997874318 [Eh]
	 Opposite-Spin Energy      =      -1.2599456094530113 [Eh]
	 Correlation Energy        =      -1.6474314092404430 [Eh]
	 Total Energy              =    -384.5438532375957266 [Eh]

	 ================> DF-SCS-MP2 Energies <==================
	-----------------------------------------------------------
	 SCS Same-Spin Scale       =       0.3333333333333333 [-]
	 SCS Opposite-Spin Scale   =       1.2000000000000000 [-]
	 SCS Same-Spin Energy      =      -0.1291619332624773 [Eh]
	 SCS Opposite-Spin Energy  =      -1.5119347313436136 [Eh]
	 SCS Correlation Energy    =      -1.6410966646060907 [Eh]
	 SCS Total Energy          =    -384.5375184929613965 [Eh]
	-----------------------------------------------------------

  Dipole Moment: [D]
     X:     2.0879      Y:    -0.9540      Z:     0.5026     Total:     2.3499

*** Psi4 exiting successfully. Buy a developer a beer!
