                               Psi4 1.3.2 release

  ==> Input File <==

--------------------------------------------------------------------------
#psi4
#
memory 32 gb

molecule  {
0 1
  O       -1.4489980    -1.3596060     0.4723610
  O       -2.3691670     0.4939580    -0.4217430
  C        1.1321160    -0.2196140    -0.0405290
  C       -0.0105280     0.5069120     0.0326710
  C        2.4766970     0.4535350     0.0627600
  C        1.2313970    -1.7075980    -0.2583110
  C       -0.0156040     2.0162910     0.1296940
  C       -1.3699332    -0.0936983     0.0279373
  H        2.9277060     0.5711490    -0.9308000
  H        2.4285750     1.4356710     0.5340320
  H        3.1575210    -0.1728930     0.6488100
  H        0.3470430    -2.1345670    -0.7252240
  H        1.3871470    -2.2249860     0.6954000
  H        2.1022510    -1.9178450    -0.8884640
  H        0.7095660     2.4663690    -0.5519310
  H        0.2213140     2.3529670     1.1451890
  H       -1.0053580     2.3925600    -0.1303250
  H       -2.3942410    -1.6004330     0.3722060
units angstrom
no_reorient  #important for SAPT in psi4, default
symmetry c1  #important for SAPT in psi4, default
}

set PROPERTIES_ORIGIN ["COM"]
properties('MP2/aug-cc-pvtz', properties = ['dipole'])
--------------------------------------------------------------------------

    Molecular point group: c1
  Charge       = 0
  Multiplicity = 1
  Basis Set: AUG-CC-PVTZ
    Blend: AUG-CC-PVTZ
  Basis Set: (AUG-CC-PVTZ AUX)
    Blend: AUG-CC-PVTZ-JKFIT

    Orbital Energies [Eh]
    ---------------------

    Doubly Occupied:

       1A    -20.614495     2A    -20.537468     3A    -11.385782
       4A    -11.268432     5A    -11.242973     6A    -11.234360
       7A    -11.228777     8A    -11.218784     9A     -1.458750
      10A     -1.338030    11A     -1.123316    12A     -1.015194
      13A     -0.956856    14A     -0.909890    15A     -0.836297
      16A     -0.738339    17A     -0.701249    18A     -0.662866
      19A     -0.636800    20A     -0.607134    21A     -0.599861
      22A     -0.589018    23A     -0.563128    24A     -0.549982
      25A     -0.546363    26A     -0.542451    27A     -0.513166
      28A     -0.491756    29A     -0.470876    30A     -0.445868
      31A     -0.349555

  @DF-RHF Final Energy:  -382.89718837452551

   => Energetics <=

    Nuclear Repulsion Energy =            378.6497495259740163
    One-Electron Energy =               -1272.3382399141523820
    Two-Electron Energy =                 510.7913020136528530
    Total Energy =                       -382.8971883745255127
  Basis Set: (AUG-CC-PVTZ AUX)
    Blend: AUG-CC-PVTZ-RI
    Molecular point group: c1

    Geometry (in Angstrom), charge = 0, multiplicity = 1:

       Center              X                  Y                   Z               Mass
    ------------   -----------------  -----------------  -----------------  -----------------
         O           -1.363236598806    -1.349095593582     0.468586825989    15.994914619570
         O           -2.283405598806     0.504468406418    -0.425517174011    15.994914619570
         C            1.217877401194    -0.209103593582    -0.044303174011    12.000000000000
         C            0.075233401194     0.517422406418     0.028896825989    12.000000000000
         C            2.562458401194     0.464045406418     0.058985825989    12.000000000000
         C            1.317158401194    -1.697087593582    -0.262085174011    12.000000000000
         C            0.070157401194     2.026801406418     0.125919825989    12.000000000000
         C           -1.284171798806    -0.083187893582     0.024163125989    12.000000000000
         H            3.013467401194     0.581659406418    -0.934574174011     1.007825032230
         H            2.514336401194     1.446181406418     0.530257825989     1.007825032230
         H            3.243282401194    -0.162382593582     0.645035825989     1.007825032230
         H            0.432804401194    -2.124056593582    -0.728998174011     1.007825032230
         H            1.472908401194    -2.214475593582     0.691625825989     1.007825032230
         H            2.188012401194    -1.907334593582    -0.892238174011     1.007825032230
         H            0.795327401194     2.476879406418    -0.555705174011     1.007825032230
         H            0.307075401194     2.363477406418     1.141414825989     1.007825032230
         H           -0.919596598806     2.403070406418    -0.134099174011     1.007825032230
         H           -2.308479598806    -1.589922593582     0.368431825989     1.007825032230

  Basis Set: AUG-CC-PVTZ
    Blend: AUG-CC-PVTZ
  Basis Set: (AUG-CC-PVTZ AUX)
    Blend: AUG-CC-PVTZ-JKFIT
	 Reference Energy          =    -382.8971883745255127 [Eh]
	 Singles Energy            =      -0.0000000000000000 [Eh]
	 Same-Spin Energy          =      -0.3883200883070625 [Eh]
	 Opposite-Spin Energy      =      -1.2609079126453464 [Eh]
	 Correlation Energy        =      -1.6492280009524090 [Eh]
	 Total Energy              =    -384.5464163754779179 [Eh]

	 ================> DF-SCS-MP2 Energies <==================
	-----------------------------------------------------------
	 SCS Same-Spin Scale       =       0.3333333333333333 [-]
	 SCS Opposite-Spin Scale   =       1.2000000000000000 [-]
	 SCS Same-Spin Energy      =      -0.1294400294356875 [Eh]
	 SCS Opposite-Spin Energy  =      -1.5130894951744156 [Eh]
	 SCS Correlation Energy    =      -1.6425295246101030 [Eh]
	 SCS Total Energy          =    -384.5397178991356100 [Eh]
	-----------------------------------------------------------

  Dipole Moment: [D]
     X:     2.1323      Y:    -1.0558      Z:     0.5862     Total:     2.4505

*** Psi4 exiting successfully. Buy a developer a beer!
