                               Psi4 1.3.2 release

  ==> Input File <==

--------------------------------------------------------------------------
#psi4
#
memory 32 gb

molecule  {
0 1
  O       -1.4489980    -1.3596060     0.4723610
  O       -2.3691670     0.4939580    -0.4217430
  C        1.1321160    -0.2196140    -0.0405290
  C       -0.0105280     0.5069120     0.0326710
  C        2.4766970     0.4535350     0.0627600
  C        1.2313970    -1.7075980    -0.2583110
  C       -0.0156040     2.0162910     0.1296940
  C       -1.3693967    -0.1048112     0.1775241
  H        2.9277060     0.5711490    -0.9308000
  H        2.4285750     1.4356710     0.5340320
  H        3.1575210    -0.1728930     0.6488100
  H        0.3470430    -2.1345670    -0.7252240
  H        1.3871470    -2.2249860     0.6954000
  H        2.1022510    -1.9178450    -0.8884640
  H        0.7095660     2.4663690    -0.5519310
  H        0.2213140     2.3529670     1.1451890
  H       -1.0053580     2.3925600    -0.1303250
  H       -2.3942410    -1.6004330     0.3722060
units angstrom
no_reorient  #important for SAPT in psi4, default
symmetry c1  #important for SAPT in psi4, default
}

set PROPERTIES_ORIGIN ["COM"]
properties('MP2/aug-cc-pvtz', properties = ['dipole'])
--------------------------------------------------------------------------

    Molecular point group: c1
  Charge       = 0
  Multiplicity = 1
  Basis Set: AUG-CC-PVTZ
    Blend: AUG-CC-PVTZ
  Basis Set: (AUG-CC-PVTZ AUX)
    Blend: AUG-CC-PVTZ-JKFIT

    Orbital Energies [Eh]
    ---------------------

    Doubly Occupied:

       1A    -20.630975     2A    -20.528101     3A    -11.392290
       4A    -11.267606     5A    -11.246113     6A    -11.234223
       7A    -11.229868     8A    -11.217138     9A     -1.483878
      10A     -1.302254    11A     -1.122680    12A     -1.014157
      13A     -0.957440    14A     -0.913716    15A     -0.847442
      16A     -0.747248    17A     -0.709913    18A     -0.663319
      19A     -0.645347    20A     -0.605694    21A     -0.593135
      22A     -0.586377    23A     -0.563061    24A     -0.549661
      25A     -0.542209    26A     -0.540824    27A     -0.510627
      28A     -0.488612    29A     -0.453034    30A     -0.438597
      31A     -0.345717

  @DF-RHF Final Energy:  -382.87037306718224

   => Energetics <=

    Nuclear Repulsion Energy =            378.2152308399144545
    One-Electron Energy =               -1271.4286947269381471
    Two-Electron Energy =                 510.3430908198413931
    Total Energy =                       -382.8703730671822427
  Basis Set: (AUG-CC-PVTZ AUX)
    Blend: AUG-CC-PVTZ-RI
    Molecular point group: c1

    Geometry (in Angstrom), charge = 0, multiplicity = 1:

       Center              X                  Y                   Z               Mass
    ------------   -----------------  -----------------  -----------------  -----------------
         O           -1.363293038785    -1.347926512797     0.452850244757    15.994914619570
         O           -2.283462038785     0.505637487203    -0.441253755243    15.994914619570
         C            1.217820961215    -0.207934512797    -0.060039755243    12.000000000000
         C            0.075176961215     0.518591487203     0.013160244757    12.000000000000
         C            2.562401961215     0.465214487203     0.043249244757    12.000000000000
         C            1.317101961215    -1.695918512797    -0.277821755243    12.000000000000
         C            0.070100961215     2.027970487203     0.110183244757    12.000000000000
         C           -1.283691738785    -0.093131712797     0.158013344757    12.000000000000
         H            3.013410961215     0.582828487203    -0.950310755243     1.007825032230
         H            2.514279961215     1.447350487203     0.514521244757     1.007825032230
         H            3.243225961215    -0.161213512797     0.629299244757     1.007825032230
         H            0.432747961215    -2.122887512797    -0.744734755243     1.007825032230
         H            1.472851961215    -2.213306512797     0.675889244757     1.007825032230
         H            2.187955961215    -1.906165512797    -0.907974755243     1.007825032230
         H            0.795270961215     2.478048487203    -0.571441755243     1.007825032230
         H            0.307018961215     2.364646487203     1.125678244757     1.007825032230
         H           -0.919653038785     2.404239487203    -0.149835755243     1.007825032230
         H           -2.308536038785    -1.588753512797     0.352695244757     1.007825032230

  Basis Set: AUG-CC-PVTZ
    Blend: AUG-CC-PVTZ
  Basis Set: (AUG-CC-PVTZ AUX)
    Blend: AUG-CC-PVTZ-JKFIT
	 Reference Energy          =    -382.8703730671822427 [Eh]
	 Singles Energy            =      -0.0000000000000000 [Eh]
	 Same-Spin Energy          =      -0.3898740215416114 [Eh]
	 Opposite-Spin Energy      =      -1.2642407712506563 [Eh]
	 Correlation Energy        =      -1.6541147927922677 [Eh]
	 Total Energy              =    -384.5244878599744993 [Eh]

	 ================> DF-SCS-MP2 Energies <==================
	-----------------------------------------------------------
	 SCS Same-Spin Scale       =       0.3333333333333333 [-]
	 SCS Opposite-Spin Scale   =       1.2000000000000000 [-]
	 SCS Same-Spin Energy      =      -0.1299580071805371 [Eh]
	 SCS Opposite-Spin Energy  =      -1.5170889255007876 [Eh]
	 SCS Correlation Energy    =      -1.6470469326813246 [Eh]
	 SCS Total Energy          =    -384.5174199998635913 [Eh]
	-----------------------------------------------------------

  Dipole Moment: [D]
     X:     2.1538      Y:    -1.4190      Z:     0.8949     Total:     2.7301

*** Psi4 exiting successfully. Buy a developer a beer!
