                               Psi4 1.3.2 release

  ==> Input File <==

--------------------------------------------------------------------------
#psi4
#
memory 32 gb

molecule  {
0 1
  O       -1.4489980    -1.3596060     0.4723610
  O       -2.3691670     0.4939580    -0.4217430
  C        1.1321160    -0.2196140    -0.0405290
  C        0.0162922     0.4538056    -0.1050257
  C        2.4766970     0.4535350     0.0627600
  C        1.2313970    -1.7075980    -0.2583110
  C       -0.0156040     2.0162910     0.1296940
  C       -1.3701120    -0.0899940    -0.0219250
  H        2.9277060     0.5711490    -0.9308000
  H        2.4285750     1.4356710     0.5340320
  H        3.1575210    -0.1728930     0.6488100
  H        0.3470430    -2.1345670    -0.7252240
  H        1.3871470    -2.2249860     0.6954000
  H        2.1022510    -1.9178450    -0.8884640
  H        0.7095660     2.4663690    -0.5519310
  H        0.2213140     2.3529670     1.1451890
  H       -1.0053580     2.3925600    -0.1303250
  H       -2.3942410    -1.6004330     0.3722060
units angstrom
no_reorient  #important for SAPT in psi4, default
symmetry c1  #important for SAPT in psi4, default
}

set PROPERTIES_ORIGIN ["COM"]
properties('MP2/aug-cc-pvtz', properties = ['dipole'])
--------------------------------------------------------------------------

    Molecular point group: c1
  Charge       = 0
  Multiplicity = 1
  Basis Set: AUG-CC-PVTZ
    Blend: AUG-CC-PVTZ
  Basis Set: (AUG-CC-PVTZ AUX)
    Blend: AUG-CC-PVTZ-JKFIT

    Orbital Energies [Eh]
    ---------------------

    Doubly Occupied:

       1A    -20.609839     2A    -20.543470     3A    -11.387291
       4A    -11.260497     5A    -11.240229     6A    -11.234448
       7A    -11.226077     8A    -11.222057     9A     -1.454093
      10A     -1.347703    11A     -1.128714    12A     -1.006226
      13A     -0.956800    14A     -0.906931    15A     -0.842046
      16A     -0.734098    17A     -0.700528    18A     -0.661680
      19A     -0.633099    20A     -0.610283    21A     -0.602158
      22A     -0.589279    23A     -0.558901    24A     -0.548242
      25A     -0.546290    26A     -0.540000    27A     -0.514340
      28A     -0.483675    29A     -0.475190    30A     -0.444242
      31A     -0.364257

  @DF-RHF Final Energy:  -382.89101852747530

   => Energetics <=

    Nuclear Repulsion Energy =            378.8547966897867241
    One-Electron Energy =               -1272.7462678235776821
    Two-Electron Energy =                 511.0004526063156050
    Total Energy =                       -382.8910185274752962
  Basis Set: (AUG-CC-PVTZ AUX)
    Blend: AUG-CC-PVTZ-RI
    Molecular point group: c1

    Geometry (in Angstrom), charge = 0, multiplicity = 1:

       Center              X                  Y                   Z               Mass
    ------------   -----------------  -----------------  -----------------  -----------------
         O           -1.366039282969    -1.343898476191     0.488318095321    15.994914619570
         O           -2.286208282969     0.509665523809    -0.405785904679    15.994914619570
         C            1.215074717031    -0.203906476191    -0.024571904679    12.000000000000
         C            0.099250917031     0.469513123809    -0.089068604679    12.000000000000
         C            2.559655717031     0.469242523809     0.078717095321    12.000000000000
         C            1.314355717031    -1.691890476191    -0.242353904679    12.000000000000
         C            0.067354717031     2.031998523809     0.145651095321    12.000000000000
         C           -1.287153282969    -0.074286476191    -0.005967904679    12.000000000000
         H            3.010664717031     0.586856523809    -0.914842904679     1.007825032230
         H            2.511533717031     1.451378523809     0.549989095321     1.007825032230
         H            3.240479717031    -0.157185476191     0.664767095321     1.007825032230
         H            0.430001717031    -2.118859476191    -0.709266904679     1.007825032230
         H            1.470105717031    -2.209278476191     0.711357095321     1.007825032230
         H            2.185209717031    -1.902137476191    -0.872506904679     1.007825032230
         H            0.792524717031     2.482076523809    -0.535973904679     1.007825032230
         H            0.304272717031     2.368674523809     1.161146095321     1.007825032230
         H           -0.922399282969     2.408267523809    -0.114367904679     1.007825032230
         H           -2.311282282969    -1.584725476191     0.388163095321     1.007825032230

  Basis Set: AUG-CC-PVTZ
    Blend: AUG-CC-PVTZ
  Basis Set: (AUG-CC-PVTZ AUX)
    Blend: AUG-CC-PVTZ-JKFIT
	 Reference Energy          =    -382.8910185274752962 [Eh]
	 Singles Energy            =      -0.0000000000000000 [Eh]
	 Same-Spin Energy          =      -0.3873684441755564 [Eh]
	 Opposite-Spin Energy      =      -1.2600549698560419 [Eh]
	 Correlation Energy        =      -1.6474234140315982 [Eh]
	 Total Energy              =    -384.5384419415069033 [Eh]

	 ================> DF-SCS-MP2 Energies <==================
	-----------------------------------------------------------
	 SCS Same-Spin Scale       =       0.3333333333333333 [-]
	 SCS Opposite-Spin Scale   =       1.2000000000000000 [-]
	 SCS Same-Spin Energy      =      -0.1291228147251854 [Eh]
	 SCS Opposite-Spin Energy  =      -1.5120659638272502 [Eh]
	 SCS Correlation Energy    =      -1.6411887785524357 [Eh]
	 SCS Total Energy          =    -384.5322073060277148 [Eh]
	-----------------------------------------------------------

  Dipole Moment: [D]
     X:     2.0799      Y:    -0.9785      Z:     0.5198     Total:     2.3566

*** Psi4 exiting successfully. Buy a developer a beer!
