                               Psi4 1.3.2 release

  ==> Input File <==

--------------------------------------------------------------------------
#psi4
#
memory 32 gb

molecule  {
0 1
  O       -1.4489980    -1.3596060     0.4723610
  O       -2.3691670     0.4939580    -0.4217430
  C        1.1321160    -0.2196140    -0.0405290
  C       -0.0105280     0.5069120     0.0326710
  C        2.4766970     0.4535350     0.0627600
  C        1.2313970    -1.7075980    -0.2583110
  C       -0.0156040     2.0162910     0.1296940
  C       -1.3697543    -0.0974026     0.0777995
  H        2.9277060     0.5711490    -0.9308000
  H        2.4285750     1.4356710     0.5340320
  H        3.1575210    -0.1728930     0.6488100
  H        0.3470430    -2.1345670    -0.7252240
  H        1.3871470    -2.2249860     0.6954000
  H        2.1022510    -1.9178450    -0.8884640
  H        0.7095660     2.4663690    -0.5519310
  H        0.2213140     2.3529670     1.1451890
  H       -1.0053580     2.3925600    -0.1303250
  H       -2.3942410    -1.6004330     0.3722060
units angstrom
no_reorient  #important for SAPT in psi4, default
symmetry c1  #important for SAPT in psi4, default
}

set PROPERTIES_ORIGIN ["COM"]
properties('MP2/aug-cc-pvtz', properties = ['dipole'])
--------------------------------------------------------------------------

    Molecular point group: c1
  Charge       = 0
  Multiplicity = 1
  Basis Set: AUG-CC-PVTZ
    Blend: AUG-CC-PVTZ
  Basis Set: (AUG-CC-PVTZ AUX)
    Blend: AUG-CC-PVTZ-JKFIT

    Orbital Energies [Eh]
    ---------------------

    Doubly Occupied:

       1A    -20.620276     2A    -20.533959     3A    -11.387608
       4A    -11.268242     5A    -11.243689     6A    -11.234332
       7A    -11.229191     8A    -11.218211     9A     -1.466501
      10A     -1.327467    11A     -1.123211    12A     -1.014960
      13A     -0.957111    14A     -0.911105    15A     -0.840008
      16A     -0.742067    17A     -0.703778    18A     -0.662981
      19A     -0.639390    20A     -0.605669    21A     -0.597482
      22A     -0.589892    23A     -0.563079    24A     -0.549728
      25A     -0.545265    26A     -0.542147    27A     -0.512440
      28A     -0.490824    29A     -0.465345    30A     -0.443960
      31A     -0.348521

  @DF-RHF Final Energy:  -382.89150066684653

   => Energetics <=

    Nuclear Repulsion Energy =            378.5602166339899668
    One-Electron Energy =               -1272.1465609388326357
    Two-Electron Energy =                 510.6948436379961436
    Total Energy =                       -382.8915006668465253
  Basis Set: (AUG-CC-PVTZ AUX)
    Blend: AUG-CC-PVTZ-RI
    Molecular point group: c1

    Geometry (in Angstrom), charge = 0, multiplicity = 1:

       Center              X                  Y                   Z               Mass
    ------------   -----------------  -----------------  -----------------  -----------------
         O           -1.363255419146    -1.348705899987     0.463341305925    15.994914619570
         O           -2.283424419146     0.504858100013    -0.430762694075    15.994914619570
         C            1.217858580854    -0.208713899987    -0.049548694075    12.000000000000
         C            0.075214580854     0.517812100013     0.023651305925    12.000000000000
         C            2.562439580854     0.464435100013     0.053740305925    12.000000000000
         C            1.317139580854    -1.696697899987    -0.267330694075    12.000000000000
         C            0.070138580854     2.027191100013     0.120674305925    12.000000000000
         C           -1.284011719146    -0.086502499987     0.068779805925    12.000000000000
         H            3.013448580854     0.582049100013    -0.939819694075     1.007825032230
         H            2.514317580854     1.446571100013     0.525012305925     1.007825032230
         H            3.243263580854    -0.161992899987     0.639790305925     1.007825032230
         H            0.432785580854    -2.123666899987    -0.734243694075     1.007825032230
         H            1.472889580854    -2.214085899987     0.686380305925     1.007825032230
         H            2.187993580854    -1.906944899987    -0.897483694075     1.007825032230
         H            0.795308580854     2.477269100013    -0.560950694075     1.007825032230
         H            0.307056580854     2.363867100013     1.136169305925     1.007825032230
         H           -0.919615419146     2.403460100013    -0.139344694075     1.007825032230
         H           -2.308498419146    -1.589532899987     0.363186305925     1.007825032230

  Basis Set: AUG-CC-PVTZ
    Blend: AUG-CC-PVTZ
  Basis Set: (AUG-CC-PVTZ AUX)
    Blend: AUG-CC-PVTZ-JKFIT
	 Reference Energy          =    -382.8915006668465253 [Eh]
	 Singles Energy            =      -0.0000000000000000 [Eh]
	 Same-Spin Energy          =      -0.3887169257381289 [Eh]
	 Opposite-Spin Energy      =      -1.2616678676884989 [Eh]
	 Correlation Energy        =      -1.6503847934266278 [Eh]
	 Total Energy              =    -384.5418854602731358 [Eh]

	 ================> DF-SCS-MP2 Energies <==================
	-----------------------------------------------------------
	 SCS Same-Spin Scale       =       0.3333333333333333 [-]
	 SCS Opposite-Spin Scale   =       1.2000000000000000 [-]
	 SCS Same-Spin Energy      =      -0.1295723085793763 [Eh]
	 SCS Opposite-Spin Energy  =      -1.5140014412261986 [Eh]
	 SCS Correlation Energy    =      -1.6435737498055749 [Eh]
	 SCS Total Energy          =    -384.5350744166520940 [Eh]
	-----------------------------------------------------------

  Dipole Moment: [D]
     X:     2.1456      Y:    -1.1865      Z:     0.6983     Total:     2.5493

*** Psi4 exiting successfully. Buy a developer a beer!
