                               Psi4 1.3.2 release

  ==> Input File <==

--------------------------------------------------------------------------
#psi4
#
memory 32 gb

molecule  {
0 1
  O       -1.4489980    -1.3596060     0.4723610
  O       -2.3691670     0.4939580    -0.4217430
  C        1.1321160    -0.2196140    -0.0405290
  C        0.0341724     0.4184014    -0.1968235
  C        2.4766970     0.4535350     0.0627600
  C        1.2313970    -1.7075980    -0.2583110
  C       -0.0156040     2.0162910     0.1296940
  C       -1.3701120    -0.0899940    -0.0219250
  H        2.9277060     0.5711490    -0.9308000
  H        2.4285750     1.4356710     0.5340320
  H        3.1575210    -0.1728930     0.6488100
  H        0.3470430    -2.1345670    -0.7252240
  H        1.3871470    -2.2249860     0.6954000
  H        2.1022510    -1.9178450    -0.8884640
  H        0.7095660     2.4663690    -0.5519310
  H        0.2213140     2.3529670     1.1451890
  H       -1.0053580     2.3925600    -0.1303250
  H       -2.3942410    -1.6004330     0.3722060
units angstrom
no_reorient  #important for SAPT in psi4, default
symmetry c1  #important for SAPT in psi4, default
}

set PROPERTIES_ORIGIN ["COM"]
properties('MP2/aug-cc-pvtz', properties = ['dipole'])
--------------------------------------------------------------------------

    Molecular point group: c1
  Charge       = 0
  Multiplicity = 1
  Basis Set: AUG-CC-PVTZ
    Blend: AUG-CC-PVTZ
  Basis Set: (AUG-CC-PVTZ AUX)
    Blend: AUG-CC-PVTZ-JKFIT

    Orbital Energies [Eh]
    ---------------------

    Doubly Occupied:

       1A    -20.610494     2A    -20.544457     3A    -11.389692
       4A    -11.257906     5A    -11.240135     6A    -11.235135
       7A    -11.225292     8A    -11.223379     9A     -1.454640
      10A     -1.348337    11A     -1.132404    12A     -1.000202
      13A     -0.957294    14A     -0.904852    15A     -0.845749
      16A     -0.732904    17A     -0.701070    18A     -0.661253
      19A     -0.632154    20A     -0.610109    21A     -0.603264
      22A     -0.591055    23A     -0.557275    24A     -0.547984
      25A     -0.545322    26A     -0.538187    27A     -0.513227
      28A     -0.480339    29A     -0.471095    30A     -0.437433
      31A     -0.372543

  @DF-RHF Final Energy:  -382.87324971587589

   => Energetics <=

    Nuclear Repulsion Energy =            378.7283211057822996
    One-Electron Energy =               -1272.4727748494765365
    Two-Electron Energy =                 510.8712040278184077
    Total Energy =                       -382.8732497158758861
  Basis Set: (AUG-CC-PVTZ AUX)
    Blend: AUG-CC-PVTZ-RI
    Molecular point group: c1

    Geometry (in Angstrom), charge = 0, multiplicity = 1:

       Center              X                  Y                   Z               Mass
    ------------   -----------------  -----------------  -----------------  -----------------
         O           -1.367920285970    -1.340173942547     0.497975254486    15.994914619570
         O           -2.288089285970     0.513390057453    -0.396128745514    15.994914619570
         C            1.213193714030    -0.200181942547    -0.014914745514    12.000000000000
         C            0.115250114030     0.437833457453    -0.171209245514    12.000000000000
         C            2.557774714030     0.472967057453     0.088374254486    12.000000000000
         C            1.312474714030    -1.688165942547    -0.232696745514    12.000000000000
         C            0.065473714030     2.035723057453     0.155308254486    12.000000000000
         C           -1.289034285970    -0.070561942547     0.003689254486    12.000000000000
         H            3.008783714030     0.590581057453    -0.905185745514     1.007825032230
         H            2.509652714030     1.455103057453     0.559646254486     1.007825032230
         H            3.238598714030    -0.153460942547     0.674424254486     1.007825032230
         H            0.428120714030    -2.115134942547    -0.699609745514     1.007825032230
         H            1.468224714030    -2.205553942547     0.721014254486     1.007825032230
         H            2.183328714030    -1.898412942547    -0.862849745514     1.007825032230
         H            0.790643714030     2.485801057453    -0.526316745514     1.007825032230
         H            0.302391714030     2.372399057453     1.170803254486     1.007825032230
         H           -0.924280285970     2.411992057453    -0.104710745514     1.007825032230
         H           -2.313163285970    -1.581000942547     0.397820254486     1.007825032230

  Basis Set: AUG-CC-PVTZ
    Blend: AUG-CC-PVTZ
  Basis Set: (AUG-CC-PVTZ AUX)
    Blend: AUG-CC-PVTZ-JKFIT
	 Reference Energy          =    -382.8732497158758861 [Eh]
	 Singles Energy            =      -0.0000000000000000 [Eh]
	 Same-Spin Energy          =      -0.3874786377617065 [Eh]
	 Opposite-Spin Energy      =      -1.2610178337756341 [Eh]
	 Correlation Energy        =      -1.6484964715373407 [Eh]
	 Total Energy              =    -384.5217461874132141 [Eh]

	 ================> DF-SCS-MP2 Energies <==================
	-----------------------------------------------------------
	 SCS Same-Spin Scale       =       0.3333333333333333 [-]
	 SCS Opposite-Spin Scale   =       1.2000000000000000 [-]
	 SCS Same-Spin Energy      =      -0.1291595459205688 [Eh]
	 SCS Opposite-Spin Energy  =      -1.5132214005307609 [Eh]
	 SCS Correlation Energy    =      -1.6423809464513297 [Eh]
	 SCS Total Energy          =    -384.5156306623272258 [Eh]
	-----------------------------------------------------------

  Dipole Moment: [D]
     X:     2.0744      Y:    -1.0390      Z:     0.5525     Total:     2.3850

*** Psi4 exiting successfully. Buy a developer a beer!
