                               Psi4 1.3.2 release

  ==> Input File <==

--------------------------------------------------------------------------
#psi4
#
memory 32 gb

molecule  {
0 1
  O       -1.4489980    -1.3596060     0.4723610
  O       -2.3691670     0.4939580    -0.4217430
  C        1.1321160    -0.2196140    -0.0405290
  C        0.0252323     0.4361035    -0.1509246
  C        2.4766970     0.4535350     0.0627600
  C        1.2313970    -1.7075980    -0.2583110
  C       -0.0156040     2.0162910     0.1296940
  C       -1.3701120    -0.0899940    -0.0219250
  H        2.9277060     0.5711490    -0.9308000
  H        2.4285750     1.4356710     0.5340320
  H        3.1575210    -0.1728930     0.6488100
  H        0.3470430    -2.1345670    -0.7252240
  H        1.3871470    -2.2249860     0.6954000
  H        2.1022510    -1.9178450    -0.8884640
  H        0.7095660     2.4663690    -0.5519310
  H        0.2213140     2.3529670     1.1451890
  H       -1.0053580     2.3925600    -0.1303250
  H       -2.3942410    -1.6004330     0.3722060
units angstrom
no_reorient  #important for SAPT in psi4, default
symmetry c1  #important for SAPT in psi4, default
}

set PROPERTIES_ORIGIN ["COM"]
properties('MP2/aug-cc-pvtz', properties = ['dipole'])
--------------------------------------------------------------------------

    Molecular point group: c1
  Charge       = 0
  Multiplicity = 1
  Basis Set: AUG-CC-PVTZ
    Blend: AUG-CC-PVTZ
  Basis Set: (AUG-CC-PVTZ AUX)
    Blend: AUG-CC-PVTZ-JKFIT

    Orbital Energies [Eh]
    ---------------------

    Doubly Occupied:

       1A    -20.610187     2A    -20.544002     3A    -11.388441
       4A    -11.258908     5A    -11.240023     6A    -11.234732
       7A    -11.225610     8A    -11.222771     9A     -1.454401
      10A     -1.348056    11A     -1.130565    12A     -1.003201
      13A     -0.957013    14A     -0.905951    15A     -0.844176
      16A     -0.733629    17A     -0.700826    18A     -0.661432
      19A     -0.632611    20A     -0.610246    21A     -0.602725
      22A     -0.590112    23A     -0.558024    24A     -0.548005
      25A     -0.545842    26A     -0.539057    27A     -0.513840
      28A     -0.481456    29A     -0.473624    30A     -0.441477
      31A     -0.368529

  @DF-RHF Final Energy:  -382.88323308312249

   => Energetics <=

    Nuclear Repulsion Energy =            378.8160455290902178
    One-Electron Energy =               -1272.6596100288406888
    Two-Electron Energy =                 510.9603314166280370
    Total Energy =                       -382.8832330831224908
  Basis Set: (AUG-CC-PVTZ AUX)
    Blend: AUG-CC-PVTZ-RI
    Molecular point group: c1

    Geometry (in Angstrom), charge = 0, multiplicity = 1:

       Center              X                  Y                   Z               Mass
    ------------   -----------------  -----------------  -----------------  -----------------
         O           -1.366979784469    -1.342036209369     0.493146674903    15.994914619570
         O           -2.287148784469     0.511527790631    -0.400957325097    15.994914619570
         C            1.214134215531    -0.202044209369    -0.019743325097    12.000000000000
         C            0.107250515531     0.453673290631    -0.130138925097    12.000000000000
         C            2.558715215531     0.471104790631     0.083545674903    12.000000000000
         C            1.313415215531    -1.690028209369    -0.237525325097    12.000000000000
         C            0.066414215531     2.033860790631     0.150479674903    12.000000000000
         C           -1.288093784469    -0.072424209369    -0.001139325097    12.000000000000
         H            3.009724215531     0.588718790631    -0.910014325097     1.007825032230
         H            2.510593215531     1.453240790631     0.554817674903     1.007825032230
         H            3.239539215531    -0.155323209369     0.669595674903     1.007825032230
         H            0.429061215531    -2.116997209369    -0.704438325097     1.007825032230
         H            1.469165215531    -2.207416209369     0.716185674903     1.007825032230
         H            2.184269215531    -1.900275209369    -0.867678325097     1.007825032230
         H            0.791584215531     2.483938790631    -0.531145325097     1.007825032230
         H            0.303332215531     2.370536790631     1.165974674903     1.007825032230
         H           -0.923339784469     2.410129790631    -0.109539325097     1.007825032230
         H           -2.312222784469    -1.582863209369     0.392991674903     1.007825032230

  Basis Set: AUG-CC-PVTZ
    Blend: AUG-CC-PVTZ
  Basis Set: (AUG-CC-PVTZ AUX)
    Blend: AUG-CC-PVTZ-JKFIT
	 Reference Energy          =    -382.8832330831224908 [Eh]
	 Singles Energy            =      -0.0000000000000000 [Eh]
	 Same-Spin Energy          =      -0.3873656966953133 [Eh]
	 Opposite-Spin Energy      =      -1.2604134406891117 [Eh]
	 Correlation Energy        =      -1.6477791373844251 [Eh]
	 Total Energy              =    -384.5310122205069092 [Eh]

	 ================> DF-SCS-MP2 Energies <==================
	-----------------------------------------------------------
	 SCS Same-Spin Scale       =       0.3333333333333333 [-]
	 SCS Opposite-Spin Scale   =       1.2000000000000000 [-]
	 SCS Same-Spin Energy      =      -0.1291218988984378 [Eh]
	 SCS Opposite-Spin Energy  =      -1.5124961288269338 [Eh]
	 SCS Correlation Energy    =      -1.6416180277253716 [Eh]
	 SCS Total Energy          =    -384.5248511108478624 [Eh]
	-----------------------------------------------------------

  Dipole Moment: [D]
     X:     2.0755      Y:    -1.0068      Z:     0.5364     Total:     2.3683

*** Psi4 exiting successfully. Buy a developer a beer!
