                               Psi4 1.3.2 release

  ==> Input File <==

--------------------------------------------------------------------------
#psi4
#
memory 32 gb

molecule  {
0 1
 Cl        2.2431418    -0.1820616    -0.0000464
  C        0.5109380    -0.0000600    -0.0000110
  C       -0.1739820    -1.2154480     0.0000200
  C       -0.1739300     1.2154130    -0.0000130
  C       -1.5696810    -1.2075560     0.0000510
  C       -1.5696010     1.2076130     0.0000180
  C       -2.2707960     0.0000350     0.0000490
  H        0.3801350    -2.1498460     0.0000230
  H        0.3803180     2.1497300    -0.0000380
  H       -2.1080660    -2.1520820     0.0000750
  H       -2.1079470     2.1521620     0.0000170
  H       -3.3576350     0.0000600     0.0000720
units angstrom
no_reorient  #important for SAPT in psi4, default
symmetry c1  #important for SAPT in psi4, default
}

set PROPERTIES_ORIGIN ["COM"]
properties('MP2/aug-cc-pvtz', properties = ['dipole'])
--------------------------------------------------------------------------

    Molecular point group: c1
  Charge       = 0
  Multiplicity = 1
  Basis Set: AUG-CC-PVTZ
    Blend: AUG-CC-PVTZ
  Basis Set: (AUG-CC-PVTZ AUX)
    Blend: AUG-CC-PVTZ-JKFIT

    Orbital Energies [Eh]
    ---------------------

    Doubly Occupied:

       1A   -104.841831     2A    -11.306873     3A    -11.255535
       4A    -11.253293     5A    -11.251674     6A    -11.250186
       7A    -11.248196     8A    -10.565729     9A     -8.032627
      10A     -8.030729    11A     -8.030713    12A     -1.190334
      13A     -1.119314    14A     -1.031631    15A     -0.996534
      16A     -0.845797    17A     -0.820074    18A     -0.710604
      19A     -0.648637    20A     -0.647253    21A     -0.603382
      22A     -0.588849    23A     -0.544928    24A     -0.516962
      25A     -0.512223    26A     -0.469966    27A     -0.454024
      28A     -0.352425    29A     -0.336919

  @DF-RHF Final Energy:  -689.71324582778004

   => Energetics <=

    Nuclear Repulsion Energy =            315.3714215710165831
    One-Electron Energy =               -1571.2548534509387537
    Two-Electron Energy =                 566.1701860521421850
    Total Energy =                       -689.7132458277800424
  Basis Set: (AUG-CC-PVTZ AUX)
    Blend: AUG-CC-PVTZ-RI
    Molecular point group: c1

    Geometry (in Angstrom), charge = 0, multiplicity = 1:

       Center              X                  Y                   Z               Mass
    ------------   -----------------  -----------------  -----------------  -----------------
         CL           2.166281536612    -0.125221924789    -0.000045468023    34.968852682000
         C            0.434077736612     0.056779675211    -0.000010068023    12.000000000000
         C           -0.250842263388    -1.158608324789     0.000020931977    12.000000000000
         C           -0.250790263388     1.272252675211    -0.000012068023    12.000000000000
         C           -1.646541263388    -1.150716324789     0.000051931977    12.000000000000
         C           -1.646461263388     1.264452675211     0.000018931977    12.000000000000
         C           -2.347656263388     0.056874675211     0.000049931977    12.000000000000
         H            0.303274736612    -2.093006324789     0.000023931977     1.007825032230
         H            0.303457736612     2.206569675211    -0.000037068023     1.007825032230
         H           -2.184926263388    -2.095242324789     0.000075931977     1.007825032230
         H           -2.184807263388     2.209001675211     0.000017931977     1.007825032230
         H           -3.434495263388     0.056899675211     0.000072931977     1.007825032230

  Basis Set: AUG-CC-PVTZ
    Blend: AUG-CC-PVTZ
  Basis Set: (AUG-CC-PVTZ AUX)
    Blend: AUG-CC-PVTZ-JKFIT
	 Reference Energy          =    -689.7132458277800424 [Eh]
	 Singles Energy            =      -0.0000000000000000 [Eh]
	 Same-Spin Energy          =      -0.3206802053696579 [Eh]
	 Opposite-Spin Energy      =      -0.9812107118246434 [Eh]
	 Correlation Energy        =      -1.3018909171943012 [Eh]
	 Total Energy              =    -691.0151367449743702 [Eh]

	 ================> DF-SCS-MP2 Energies <==================
	-----------------------------------------------------------
	 SCS Same-Spin Scale       =       0.3333333333333333 [-]
	 SCS Opposite-Spin Scale   =       1.2000000000000000 [-]
	 SCS Same-Spin Energy      =      -0.1068934017898860 [Eh]
	 SCS Opposite-Spin Energy  =      -1.1774528541895719 [Eh]
	 SCS Correlation Energy    =      -1.2843462559794578 [Eh]
	 SCS Total Energy          =    -690.9975920837595140 [Eh]
	-----------------------------------------------------------

  Dipole Moment: [D]
     X:    -1.7063      Y:     0.0767      Z:     0.0000     Total:     1.7080

*** Psi4 exiting successfully. Buy a developer a beer!
