                               Psi4 1.3.2 release

  ==> Input File <==

--------------------------------------------------------------------------
#psi4
#
memory 32 gb

molecule  {
0 1
 Cl        2.2526770     0.0000000    -0.0000490
  C        0.4109380    -0.0000634    -0.0000088
  C       -0.1739820    -1.2154480     0.0000200
  C       -0.1739300     1.2154130    -0.0000130
  C       -1.5696810    -1.2075560     0.0000510
  C       -1.5696010     1.2076130     0.0000180
  C       -2.2707960     0.0000350     0.0000490
  H        0.3801350    -2.1498460     0.0000230
  H        0.3803180     2.1497300    -0.0000380
  H       -2.1080660    -2.1520820     0.0000750
  H       -2.1079470     2.1521620     0.0000170
  H       -3.3576350     0.0000600     0.0000720
units angstrom
no_reorient  #important for SAPT in psi4, default
symmetry c1  #important for SAPT in psi4, default
}

set PROPERTIES_ORIGIN ["COM"]
properties('MP2/aug-cc-pvtz', properties = ['dipole'])
--------------------------------------------------------------------------

    Molecular point group: c1
  Charge       = 0
  Multiplicity = 1
  Basis Set: AUG-CC-PVTZ
    Blend: AUG-CC-PVTZ
  Basis Set: (AUG-CC-PVTZ AUX)
    Blend: AUG-CC-PVTZ-JKFIT

    Orbital Energies [Eh]
    ---------------------

    Doubly Occupied:

       1A   -104.828780     2A    -11.306764     3A    -11.256790
       4A    -11.256683     5A    -11.252404     6A    -11.252385
       7A    -11.250838     8A    -10.551749     9A     -8.018442
      10A     -8.016830    11A     -8.016804    12A     -1.195558
      13A     -1.102234    14A     -1.043034    15A     -1.002949
      16A     -0.856082    17A     -0.823371    18A     -0.716748
      19A     -0.656871    20A     -0.647212    21A     -0.613455
      22A     -0.581157    23A     -0.548767    24A     -0.526730
      25A     -0.492657    26A     -0.460802    27A     -0.447338
      28A     -0.357965    29A     -0.348858

  @DF-RHF Final Energy:  -689.70884458369699

   => Energetics <=

    Nuclear Repulsion Energy =            315.3619579611122958
    One-Electron Energy =               -1571.2810932932145533
    Two-Electron Energy =                 566.2102907484053276
    Total Energy =                       -689.7088445836969868
  Basis Set: (AUG-CC-PVTZ AUX)
    Blend: AUG-CC-PVTZ-RI
    Molecular point group: c1

    Geometry (in Angstrom), charge = 0, multiplicity = 1:

       Center              X                  Y                   Z               Mass
    ------------   -----------------  -----------------  -----------------  -----------------
         CL           2.183553372989     0.000000469718    -0.000047492002    34.968852682000
         C            0.341814372989    -0.000062930282    -0.000007292002    12.000000000000
         C           -0.243105627011    -1.215447530282     0.000021507998    12.000000000000
         C           -0.243053627011     1.215413469718    -0.000011492002    12.000000000000
         C           -1.638804627011    -1.207555530282     0.000052507998    12.000000000000
         C           -1.638724627011     1.207613469718     0.000019507998    12.000000000000
         C           -2.339919627011     0.000035469718     0.000050507998    12.000000000000
         H            0.311011372989    -2.149845530282     0.000024507998     1.007825032230
         H            0.311194372989     2.149730469718    -0.000036492002     1.007825032230
         H           -2.177189627011    -2.152081530282     0.000076507998     1.007825032230
         H           -2.177070627011     2.152162469718     0.000018507998     1.007825032230
         H           -3.426758627011     0.000060469718     0.000073507998     1.007825032230

  Basis Set: AUG-CC-PVTZ
    Blend: AUG-CC-PVTZ
  Basis Set: (AUG-CC-PVTZ AUX)
    Blend: AUG-CC-PVTZ-JKFIT
	 Reference Energy          =    -689.7088445836969868 [Eh]
	 Singles Energy            =      -0.0000000000000000 [Eh]
	 Same-Spin Energy          =      -0.3201153059492194 [Eh]
	 Opposite-Spin Energy      =      -0.9803374946142166 [Eh]
	 Correlation Energy        =      -1.3004528005634359 [Eh]
	 Total Energy              =    -691.0092973842604351 [Eh]

	 ================> DF-SCS-MP2 Energies <==================
	-----------------------------------------------------------
	 SCS Same-Spin Scale       =       0.3333333333333333 [-]
	 SCS Opposite-Spin Scale   =       1.2000000000000000 [-]
	 SCS Same-Spin Energy      =      -0.1067051019830731 [Eh]
	 SCS Opposite-Spin Energy  =      -1.1764049935370600 [Eh]
	 SCS Correlation Energy    =      -1.2831100955201331 [Eh]
	 SCS Total Energy          =    -690.9919546792170877 [Eh]
	-----------------------------------------------------------

  Dipole Moment: [D]
     X:    -2.2632      Y:    -0.0000      Z:     0.0000     Total:     2.2632

*** Psi4 exiting successfully. Buy a developer a beer!
