                               Psi4 1.3.2 release

  ==> Input File <==

--------------------------------------------------------------------------
#psi4
#
memory 32 gb

molecule  {
0 1
 Cl        2.2526770     0.0000000    -0.0000490
  C        0.5109380    -0.0000600    -0.0000110
  C       -0.1739820    -1.2154480     0.0000200
  C       -0.1739300     1.2154130    -0.0000130
  C       -1.5696810    -1.2075560     0.0000510
  C       -1.5696010     1.2076130     0.0000180
  C       -2.2707960     0.0000350     0.0000490
  H        0.3801350    -2.1498460     0.0000230
  H        0.3803180     2.1497300    -0.0000380
  H       -2.1080660    -2.1520820     0.0000750
  H       -2.1079470     2.1521620     0.0000170
  H       -3.3576350     0.0000600     0.0000720
units angstrom
no_reorient  #important for SAPT in psi4, default
symmetry c1  #important for SAPT in psi4, default
}

set PROPERTIES_ORIGIN ["COM"]
properties('MP2/aug-cc-pvtz', properties = ['dipole'])
--------------------------------------------------------------------------

    Molecular point group: c1
  Charge       = 0
  Multiplicity = 1
  Basis Set: AUG-CC-PVTZ
    Blend: AUG-CC-PVTZ
  Basis Set: (AUG-CC-PVTZ AUX)
    Blend: AUG-CC-PVTZ-JKFIT

    Orbital Energies [Eh]
    ---------------------

    Doubly Occupied:

       1A   -104.842052     2A    -11.306918     3A    -11.253369
       4A    -11.253360     5A    -11.252161     6A    -11.252028
       7A    -11.248252     8A    -10.565883     9A     -8.032788
      10A     -8.030892    11A     -8.030885    12A     -1.189908
      13A     -1.119168    14A     -1.031699    15A     -0.996857
      16A     -0.845784    17A     -0.820077    18A     -0.710623
      19A     -0.648174    20A     -0.647408    21A     -0.603306
      22A     -0.589300    23A     -0.544757    24A     -0.517150
      25A     -0.511940    26A     -0.470030    27A     -0.455250
      28A     -0.352412    29A     -0.337106

  @DF-RHF Final Energy:  -689.71571899724279

   => Energetics <=

    Nuclear Repulsion Energy =            315.1952060050890054
    One-Electron Energy =               -1570.9027720077108370
    Two-Electron Energy =                 565.9918470053790998
    Total Energy =                       -689.7157189972427886
  Basis Set: (AUG-CC-PVTZ AUX)
    Blend: AUG-CC-PVTZ-RI
    Molecular point group: c1

    Geometry (in Angstrom), charge = 0, multiplicity = 1:

       Center              X                  Y                   Z               Mass
    ------------   -----------------  -----------------  -----------------  -----------------
         CL           2.172839850407     0.000000105459    -0.000047256304    34.968852682000
         C            0.431100850407    -0.000059894541    -0.000009256304    12.000000000000
         C           -0.253819149593    -1.215447894541     0.000021743696    12.000000000000
         C           -0.253767149593     1.215413105459    -0.000011256304    12.000000000000
         C           -1.649518149593    -1.207555894541     0.000052743696    12.000000000000
         C           -1.649438149593     1.207613105459     0.000019743696    12.000000000000
         C           -2.350633149593     0.000035105459     0.000050743696    12.000000000000
         H            0.300297850407    -2.149845894541     0.000024743696     1.007825032230
         H            0.300480850407     2.149730105459    -0.000036256304     1.007825032230
         H           -2.187903149593    -2.152081894541     0.000076743696     1.007825032230
         H           -2.187784149593     2.152162105459     0.000018743696     1.007825032230
         H           -3.437472149593     0.000060105459     0.000073743696     1.007825032230

  Basis Set: AUG-CC-PVTZ
    Blend: AUG-CC-PVTZ
  Basis Set: (AUG-CC-PVTZ AUX)
    Blend: AUG-CC-PVTZ-JKFIT
	 Reference Energy          =    -689.7157189972427886 [Eh]
	 Singles Energy            =      -0.0000000000000000 [Eh]
	 Same-Spin Energy          =      -0.3205674139080973 [Eh]
	 Opposite-Spin Energy      =      -0.9809960480767599 [Eh]
	 Correlation Energy        =      -1.3015634619848573 [Eh]
	 Total Energy              =    -691.0172824592276584 [Eh]

	 ================> DF-SCS-MP2 Energies <==================
	-----------------------------------------------------------
	 SCS Same-Spin Scale       =       0.3333333333333333 [-]
	 SCS Opposite-Spin Scale   =       1.2000000000000000 [-]
	 SCS Same-Spin Energy      =      -0.1068558046360324 [Eh]
	 SCS Opposite-Spin Energy  =      -1.1771952576921119 [Eh]
	 SCS Correlation Energy    =      -1.2840510623281443 [Eh]
	 SCS Total Energy          =    -690.9997700595708920 [Eh]
	-----------------------------------------------------------

  Dipole Moment: [D]
     X:    -1.7067      Y:    -0.0000      Z:     0.0000     Total:     1.7067

*** Psi4 exiting successfully. Buy a developer a beer!
