                               Psi4 1.4a3.dev225

  ==> Input File <==

--------------------------------------------------------------------------
#psi4
#
memory 32 gb

molecule  {
0 1
 Cl        2.2528770    -0.0000010    -0.0000490
  C        0.5603710     0.0000009    -0.0000121
  C       -0.1739040    -1.2155620     0.0000200
  C       -0.1739050     1.2155640    -0.0000130
  C       -1.5696920    -1.2075950     0.0000510
  C       -1.5696910     1.2075950     0.0000170
  C       -2.2707750    -0.0000010     0.0000490
  H        0.3801340    -2.1498420     0.0000210
  H        0.3801360     2.1498430    -0.0000380
  H       -2.1080360    -2.1520700     0.0000760
  H       -2.1080390     2.1520680     0.0000160
  H       -3.3575250     0.0000000     0.0000730
units angstrom
no_reorient  #important for SAPT in psi4, default
symmetry c1  #important for SAPT in psi4, default
}

set PROPERTIES_ORIGIN ["COM"]
properties('MP2/aug-cc-pvtz', properties = ['dipole'])
--------------------------------------------------------------------------

    Molecular point group: c1
  Charge       = 0
  Multiplicity = 1
  Basis Set: AUG-CC-PVTZ
    Blend: AUG-CC-PVTZ
  Basis Set: (AUG-CC-PVTZ AUX)
    Blend: AUG-CC-PVTZ-JKFIT

    Orbital Energies [Eh]
    ---------------------

    Doubly Occupied:

       1A   -104.847453     2A    -11.308148     3A    -11.253837
       4A    -11.253812     5A    -11.250904     6A    -11.250714
       7A    -11.247063     8A    -10.572019     9A     -8.039054
      10A     -8.036981    11A     -8.036975    12A     -1.192625
      13A     -1.125273    14A     -1.027130    15A     -0.992702
      16A     -0.840945    17A     -0.818566    18A     -0.708087
      19A     -0.650673    20A     -0.644482    21A     -0.598199
      22A     -0.593860    23A     -0.545690    24A     -0.518207
      25A     -0.513813    26A     -0.472976    27A     -0.456076
      28A     -0.350132    29A     -0.330737

  @DF-RHF Final Energy:  -689.71172778455207

   => Energetics <=

    Nuclear Repulsion Energy =            315.1744291675490786
    One-Electron Energy =               -1570.8180495413894278
    Two-Electron Energy =                 565.9318925892882817
    Total Energy =                       -689.7117277845520675
  Basis Set: (AUG-CC-PVTZ AUX)
    Blend: AUG-CC-PVTZ-RI
    Molecular point group: c1

    Geometry (in Angstrom), charge = 0, multiplicity = 1:

       Center              X                  Y                   Z               Mass
    ------------   -----------------  -----------------  -----------------  -----------------
         CL           2.167680145449    -0.000000882359    -0.000047022322    34.968852682000
         C            0.475174145449     0.000001017641    -0.000010122322    12.000000000000
         C           -0.259100854551    -1.215561882359     0.000021977678    12.000000000000
         C           -0.259101854551     1.215564117641    -0.000011022322    12.000000000000
         C           -1.654888854551    -1.207594882359     0.000052977678    12.000000000000
         C           -1.654887854551     1.207595117641     0.000018977678    12.000000000000
         C           -2.355971854551    -0.000000882359     0.000050977678    12.000000000000
         H            0.294937145449    -2.149841882359     0.000022977678     1.007825032230
         H            0.294939145449     2.149843117641    -0.000036022322     1.007825032230
         H           -2.193232854551    -2.152069882359     0.000077977678     1.007825032230
         H           -2.193235854551     2.152068117641     0.000017977678     1.007825032230
         H           -3.442721854551     0.000000117641     0.000074977678     1.007825032230

  Basis Set: AUG-CC-PVTZ
    Blend: AUG-CC-PVTZ
  Basis Set: (AUG-CC-PVTZ AUX)
    Blend: AUG-CC-PVTZ-JKFIT
	 Reference Energy          =    -689.7117277845520675 [Eh]
	 Singles Energy            =      -0.0000000000000000 [Eh]
	 Same-Spin Energy          =      -0.3211274035924189 [Eh]
	 Opposite-Spin Energy      =      -0.9818264686632105 [Eh]
	 Correlation Energy        =      -1.3029538722556295 [Eh]
	 Total Energy              =    -691.0146816568077384 [Eh]

	 ================> DF-SCS-MP2 Energies <==================
	-----------------------------------------------------------
	 SCS Same-Spin Scale       =       0.3333333333333333 [-]
	 SCS Opposite-Spin Scale   =       1.2000000000000000 [-]
	 SCS Same-Spin Energy      =      -0.1070424678641396 [Eh]
	 SCS Opposite-Spin Energy  =      -1.1781917623958527 [Eh]
	 SCS Correlation Energy    =      -1.2852342302599924 [Eh]
	 SCS Total Energy          =    -690.9969620148120839 [Eh]
	-----------------------------------------------------------

  Dipole Moment: [D]
     X:    -1.4481      Y:    -0.0000      Z:     0.0000     Total:     1.4481

*** Psi4 exiting successfully. Buy a developer a beer!
