                               Psi4 1.3.2 release

  ==> Input File <==

--------------------------------------------------------------------------
#psi4
#
memory 32 gb

molecule  {
0 1
 Cl        2.2484384    -0.1214977    -0.0000473
  C        0.5109380    -0.0000600    -0.0000110
  C       -0.1739820    -1.2154480     0.0000200
  C       -0.1739300     1.2154130    -0.0000130
  C       -1.5696810    -1.2075560     0.0000510
  C       -1.5696010     1.2076130     0.0000180
  C       -2.2707960     0.0000350     0.0000490
  H        0.3801350    -2.1498460     0.0000230
  H        0.3803180     2.1497300    -0.0000380
  H       -2.1080660    -2.1520820     0.0000750
  H       -2.1079470     2.1521620     0.0000170
  H       -3.3576350     0.0000600     0.0000720
units angstrom
no_reorient  #important for SAPT in psi4, default
symmetry c1  #important for SAPT in psi4, default
}

set PROPERTIES_ORIGIN ["COM"]
properties('MP2/aug-cc-pvtz', properties = ['dipole'])
--------------------------------------------------------------------------

    Molecular point group: c1
  Charge       = 0
  Multiplicity = 1
  Basis Set: AUG-CC-PVTZ
    Blend: AUG-CC-PVTZ
  Basis Set: (AUG-CC-PVTZ AUX)
    Blend: AUG-CC-PVTZ-JKFIT

    Orbital Energies [Eh]
    ---------------------

    Doubly Occupied:

       1A   -104.841953     2A    -11.306898     3A    -11.254780
       4A    -11.252955     5A    -11.252183     6A    -11.250898
       7A    -11.248228     8A    -10.565814     9A     -8.032716
      10A     -8.030819    11A     -8.030809    12A     -1.190096
      13A     -1.119232    14A     -1.031669    15A     -0.996714
      16A     -0.845790    17A     -0.820075    18A     -0.710614
      19A     -0.648405    20A     -0.647313    21A     -0.603339
      22A     -0.589099    23A     -0.544833    24A     -0.517058
      25A     -0.512073    26A     -0.470001    27A     -0.454709
      28A     -0.352418    29A     -0.337023

  @DF-RHF Final Energy:  -689.71462596208971

   => Energetics <=

    Nuclear Repulsion Energy =            315.2733826234518801
    One-Electron Energy =               -1571.0589863110285478
    Two-Electron Energy =                 566.0709777254869550
    Total Energy =                       -689.7146259620897126
  Basis Set: (AUG-CC-PVTZ AUX)
    Blend: AUG-CC-PVTZ-RI
    Molecular point group: c1

    Geometry (in Angstrom), charge = 0, multiplicity = 1:

       Center              X                  Y                   Z               Mass
    ------------   -----------------  -----------------  -----------------  -----------------
         CL           2.169924539889    -0.083566053822    -0.000046087044    34.968852682000
         C            0.432424139889     0.037871646178    -0.000009787044    12.000000000000
         C           -0.252495860111    -1.177516353822     0.000021212956    12.000000000000
         C           -0.252443860111     1.253344646178    -0.000011787044    12.000000000000
         C           -1.648194860111    -1.169624353822     0.000052212956    12.000000000000
         C           -1.648114860111     1.245544646178     0.000019212956    12.000000000000
         C           -2.349309860111     0.037966646178     0.000050212956    12.000000000000
         H            0.301621139889    -2.111914353822     0.000024212956     1.007825032230
         H            0.301804139889     2.187661646178    -0.000036787044     1.007825032230
         H           -2.186579860111    -2.114150353822     0.000076212956     1.007825032230
         H           -2.186460860111     2.190093646178     0.000018212956     1.007825032230
         H           -3.436148860111     0.037991646178     0.000073212956     1.007825032230

  Basis Set: AUG-CC-PVTZ
    Blend: AUG-CC-PVTZ
  Basis Set: (AUG-CC-PVTZ AUX)
    Blend: AUG-CC-PVTZ-JKFIT
	 Reference Energy          =    -689.7146259620897126 [Eh]
	 Singles Energy            =      -0.0000000000000000 [Eh]
	 Same-Spin Energy          =      -0.3206169809149864 [Eh]
	 Opposite-Spin Energy      =      -0.9810909490796560 [Eh]
	 Correlation Energy        =      -1.3017079299946424 [Eh]
	 Total Energy              =    -691.0163338920843898 [Eh]

	 ================> DF-SCS-MP2 Energies <==================
	-----------------------------------------------------------
	 SCS Same-Spin Scale       =       0.3333333333333333 [-]
	 SCS Opposite-Spin Scale   =       1.2000000000000000 [-]
	 SCS Same-Spin Energy      =      -0.1068723269716621 [Eh]
	 SCS Opposite-Spin Energy  =      -1.1773091388955872 [Eh]
	 SCS Correlation Energy    =      -1.2841814658672492 [Eh]
	 SCS Total Energy          =    -690.9988074279569901 [Eh]
	-----------------------------------------------------------

  Dipole Moment: [D]
     X:    -1.7065      Y:     0.0513      Z:     0.0000     Total:     1.7073

*** Psi4 exiting successfully. Buy a developer a beer!
