                               Psi4 1.3.2 release

  ==> Input File <==

--------------------------------------------------------------------------
#psi4
#
memory 32 gb

molecule  {
0 1
 Cl        2.2524107     0.0303975    -0.0000494
  C        0.5109380    -0.0000600    -0.0000110
  C       -0.1739820    -1.2154480     0.0000200
  C       -0.1739300     1.2154130    -0.0000130
  C       -1.5696810    -1.2075560     0.0000510
  C       -1.5696010     1.2076130     0.0000180
  C       -2.2707960     0.0000350     0.0000490
  H        0.3801350    -2.1498460     0.0000230
  H        0.3803180     2.1497300    -0.0000380
  H       -2.1080660    -2.1520820     0.0000750
  H       -2.1079470     2.1521620     0.0000170
  H       -3.3576350     0.0000600     0.0000720
units angstrom
no_reorient  #important for SAPT in psi4, default
symmetry c1  #important for SAPT in psi4, default
}

set PROPERTIES_ORIGIN ["COM"]
properties('MP2/aug-cc-pvtz', properties = ['dipole'])
--------------------------------------------------------------------------

    Molecular point group: c1
  Charge       = 0
  Multiplicity = 1
  Basis Set: AUG-CC-PVTZ
    Blend: AUG-CC-PVTZ
  Basis Set: (AUG-CC-PVTZ AUX)
    Blend: AUG-CC-PVTZ-JKFIT

    Orbital Energies [Eh]
    ---------------------

    Doubly Occupied:

       1A   -104.842046     2A    -11.306916     3A    -11.253700
       4A    -11.253047     5A    -11.252342     6A    -11.251823
       7A    -11.248251     8A    -10.565879     9A     -8.032783
      10A     -8.030888    11A     -8.030881    12A     -1.189920
      13A     -1.119172    14A     -1.031697    15A     -0.996848
      16A     -0.845784    17A     -0.820077    18A     -0.710623
      19A     -0.648190    20A     -0.647401    21A     -0.603308
      22A     -0.589288    23A     -0.544762    24A     -0.517144
      25A     -0.511949    26A     -0.470029    27A     -0.455216
      28A     -0.352413    29A     -0.337101

  @DF-RHF Final Energy:  -689.71565041033716

   => Energetics <=

    Nuclear Repulsion Energy =            315.2001342048995980
    One-Electron Energy =               -1570.9126201184963065
    Two-Electron Energy =                 565.9968355032596037
    Total Energy =                       -689.7156504103371617
  Basis Set: (AUG-CC-PVTZ AUX)
    Blend: AUG-CC-PVTZ-RI
    Molecular point group: c1

    Geometry (in Angstrom), charge = 0, multiplicity = 1:

       Center              X                  Y                   Z               Mass
    ------------   -----------------  -----------------  -----------------  -----------------
         CL           2.172656689177     0.020907516271    -0.000047531424    34.968852682000
         C            0.431183989177    -0.009549983729    -0.000009131424    12.000000000000
         C           -0.253736010823    -1.224937983729     0.000021868576    12.000000000000
         C           -0.253684010823     1.205923016271    -0.000011131424    12.000000000000
         C           -1.649435010823    -1.217045983729     0.000052868576    12.000000000000
         C           -1.649355010823     1.198123016271     0.000019868576    12.000000000000
         C           -2.350550010823    -0.009454983729     0.000050868576    12.000000000000
         H            0.300380989177    -2.159335983729     0.000024868576     1.007825032230
         H            0.300563989177     2.140240016271    -0.000036131424     1.007825032230
         H           -2.187820010823    -2.161571983729     0.000076868576     1.007825032230
         H           -2.187701010823     2.142672016271     0.000018868576     1.007825032230
         H           -3.437389010823    -0.009429983729     0.000073868576     1.007825032230

  Basis Set: AUG-CC-PVTZ
    Blend: AUG-CC-PVTZ
  Basis Set: (AUG-CC-PVTZ AUX)
    Blend: AUG-CC-PVTZ-JKFIT
	 Reference Energy          =    -689.7156504103371617 [Eh]
	 Singles Energy            =      -0.0000000000000000 [Eh]
	 Same-Spin Energy          =      -0.3205705098089939 [Eh]
	 Opposite-Spin Energy      =      -0.9810020094018858 [Eh]
	 Correlation Energy        =      -1.3015725192108796 [Eh]
	 Total Energy              =    -691.0172229295480975 [Eh]

	 ================> DF-SCS-MP2 Energies <==================
	-----------------------------------------------------------
	 SCS Same-Spin Scale       =       0.3333333333333333 [-]
	 SCS Opposite-Spin Scale   =       1.2000000000000000 [-]
	 SCS Same-Spin Energy      =      -0.1068568366029980 [Eh]
	 SCS Opposite-Spin Energy  =      -1.1772024112822628 [Eh]
	 SCS Correlation Energy    =      -1.2840592478852608 [Eh]
	 SCS Total Energy          =    -690.9997096582224003 [Eh]
	-----------------------------------------------------------

  Dipole Moment: [D]
     X:    -1.7067      Y:    -0.0129      Z:     0.0000     Total:     1.7067

*** Psi4 exiting successfully. Buy a developer a beer!
