                               Psi4 1.3.2 release

  ==> Input File <==

--------------------------------------------------------------------------
#psi4
#
memory 32 gb

molecule  {
0 1
 Cl        2.2526770     0.0000000    -0.0000490
  C        0.7109380    -0.0000531    -0.0000154
  C       -0.1739820    -1.2154480     0.0000200
  C       -0.1739300     1.2154130    -0.0000130
  C       -1.5696810    -1.2075560     0.0000510
  C       -1.5696010     1.2076130     0.0000180
  C       -2.2707960     0.0000350     0.0000490
  H        0.3801350    -2.1498460     0.0000230
  H        0.3803180     2.1497300    -0.0000380
  H       -2.1080660    -2.1520820     0.0000750
  H       -2.1079470     2.1521620     0.0000170
  H       -3.3576350     0.0000600     0.0000720
units angstrom
no_reorient  #important for SAPT in psi4, default
symmetry c1  #important for SAPT in psi4, default
}

set PROPERTIES_ORIGIN ["COM"]
properties('MP2/aug-cc-pvtz', properties = ['dipole'])
--------------------------------------------------------------------------

    Molecular point group: c1
  Charge       = 0
  Multiplicity = 1
  Basis Set: AUG-CC-PVTZ
    Blend: AUG-CC-PVTZ
  Basis Set: (AUG-CC-PVTZ AUX)
    Blend: AUG-CC-PVTZ-JKFIT

    Orbital Energies [Eh]
    ---------------------

    Doubly Occupied:

       1A   -104.861452     2A    -11.314839     3A    -11.256574
       4A    -11.256558     5A    -11.247085     6A    -11.246917
       7A    -11.242801     8A    -10.589812     9A     -8.057394
      10A     -8.054507    11A     -8.054437    12A     -1.231695
      13A     -1.128304    14A     -1.016005    15A     -0.976407
      16A     -0.827199    17A     -0.813992    18A     -0.702692
      19A     -0.667594    20A     -0.641095    21A     -0.600867
      22A     -0.584828    23A     -0.562319    24A     -0.527137
      25A     -0.516197    26A     -0.475541    27A     -0.439521
      28A     -0.344476    29A     -0.308868

  @DF-RHF Final Energy:  -689.66309280616895

   => Energetics <=

    Nuclear Repulsion Energy =            315.5627000190138460
    One-Electron Energy =               -1571.3573595808259142
    Two-Electron Energy =                 566.1315667556431208
    Total Energy =                       -689.6630928061689474
  Basis Set: (AUG-CC-PVTZ AUX)
    Blend: AUG-CC-PVTZ-RI
    Molecular point group: c1

    Geometry (in Angstrom), charge = 0, multiplicity = 1:

       Center              X                  Y                   Z               Mass
    ------------   -----------------  -----------------  -----------------  -----------------
         CL           2.151412805243    -0.000000633775    -0.000046784909    34.968852682000
         C            0.609673805243    -0.000053733775    -0.000013184909    12.000000000000
         C           -0.275246194757    -1.215448633775     0.000022215091    12.000000000000
         C           -0.275194194757     1.215412366225    -0.000010784909    12.000000000000
         C           -1.670945194757    -1.207556633775     0.000053215091    12.000000000000
         C           -1.670865194757     1.207612366225     0.000020215091    12.000000000000
         C           -2.372060194757     0.000034366225     0.000051215091    12.000000000000
         H            0.278870805243    -2.149846633775     0.000025215091     1.007825032230
         H            0.279053805243     2.149729366225    -0.000035784909     1.007825032230
         H           -2.209330194757    -2.152082633775     0.000077215091     1.007825032230
         H           -2.209211194757     2.152161366225     0.000019215091     1.007825032230
         H           -3.458899194757     0.000059366225     0.000074215091     1.007825032230

  Basis Set: AUG-CC-PVTZ
    Blend: AUG-CC-PVTZ
  Basis Set: (AUG-CC-PVTZ AUX)
    Blend: AUG-CC-PVTZ-JKFIT
	 Reference Energy          =    -689.6630928061689474 [Eh]
	 Singles Energy            =      -0.0000000000000000 [Eh]
	 Same-Spin Energy          =      -0.3244313414080953 [Eh]
	 Opposite-Spin Energy      =      -0.9868604641655591 [Eh]
	 Correlation Energy        =      -1.3112918055736544 [Eh]
	 Total Energy              =    -690.9743846117426074 [Eh]

	 ================> DF-SCS-MP2 Energies <==================
	-----------------------------------------------------------
	 SCS Same-Spin Scale       =       0.3333333333333333 [-]
	 SCS Opposite-Spin Scale   =       1.2000000000000000 [-]
	 SCS Same-Spin Energy      =      -0.1081437804693651 [Eh]
	 SCS Opposite-Spin Energy  =      -1.1842325569986709 [Eh]
	 SCS Correlation Energy    =      -1.2923763374680359 [Eh]
	 SCS Total Energy          =    -690.9554691436369467 [Eh]
	-----------------------------------------------------------

  Dipole Moment: [D]
     X:    -0.6547      Y:     0.0000      Z:     0.0000     Total:     0.6547

*** Psi4 exiting successfully. Buy a developer a beer!
