                               Psi4 1.3.2 release

  ==> Input File <==

--------------------------------------------------------------------------
#psi4
#
memory 32 gb

molecule  {
0 1
 Cl        2.2526770     0.0000000    -0.0000490
  C        0.6109380    -0.0000566    -0.0000132
  C       -0.1739820    -1.2154480     0.0000200
  C       -0.1739300     1.2154130    -0.0000130
  C       -1.5696810    -1.2075560     0.0000510
  C       -1.5696010     1.2076130     0.0000180
  C       -2.2707960     0.0000350     0.0000490
  H        0.3801350    -2.1498460     0.0000230
  H        0.3803180     2.1497300    -0.0000380
  H       -2.1080660    -2.1520820     0.0000750
  H       -2.1079470     2.1521620     0.0000170
  H       -3.3576350     0.0000600     0.0000720
units angstrom
no_reorient  #important for SAPT in psi4, default
symmetry c1  #important for SAPT in psi4, default
}

set PROPERTIES_ORIGIN ["COM"]
properties('MP2/aug-cc-pvtz', properties = ['dipole'])
--------------------------------------------------------------------------

    Molecular point group: c1
  Charge       = 0
  Multiplicity = 1
  Basis Set: AUG-CC-PVTZ
    Blend: AUG-CC-PVTZ
  Basis Set: (AUG-CC-PVTZ AUX)
    Blend: AUG-CC-PVTZ-JKFIT

    Orbital Energies [Eh]
    ---------------------

    Doubly Occupied:

       1A   -104.852443     2A    -11.309924     3A    -11.254710
       4A    -11.254688     5A    -11.249527     6A    -11.249327
       7A    -11.245821     8A    -10.578008     9A     -8.045200
      10A     -8.042911    11A     -8.042888    12A     -1.200791
      13A     -1.128744    14A     -1.023016    15A     -0.987788
      16A     -0.836134    17A     -0.817040    18A     -0.705792
      19A     -0.654926    20A     -0.642511    21A     -0.597748
      22A     -0.593204    23A     -0.548987    24A     -0.522702
      25A     -0.512283    26A     -0.474857    27A     -0.453816
      28A     -0.348077    29A     -0.323794

  @DF-RHF Final Energy:  -689.70190609658641

   => Energetics <=

    Nuclear Repulsion Energy =            315.2420596313367014
    One-Electron Energy =               -1570.8926198995284267
    Two-Electron Energy =                 565.9486541716054262
    Total Energy =                       -689.7019060965864128
  Basis Set: (AUG-CC-PVTZ AUX)
    Blend: AUG-CC-PVTZ-RI
    Molecular point group: c1

    Geometry (in Angstrom), charge = 0, multiplicity = 1:

       Center              X                  Y                   Z               Mass
    ------------   -----------------  -----------------  -----------------  -----------------
         CL           2.162126327825    -0.000000258801    -0.000047020607    34.968852682000
         C            0.520387327825    -0.000056858801    -0.000011220607    12.000000000000
         C           -0.264532672175    -1.215448258801     0.000021979393    12.000000000000
         C           -0.264480672175     1.215412741199    -0.000011020607    12.000000000000
         C           -1.660231672175    -1.207556258801     0.000052979393    12.000000000000
         C           -1.660151672175     1.207612741199     0.000019979393    12.000000000000
         C           -2.361346672175     0.000034741199     0.000050979393    12.000000000000
         H            0.289584327825    -2.149846258801     0.000024979393     1.007825032230
         H            0.289767327825     2.149729741199    -0.000036020607     1.007825032230
         H           -2.198616672175    -2.152082258801     0.000076979393     1.007825032230
         H           -2.198497672175     2.152161741199     0.000018979393     1.007825032230
         H           -3.448185672175     0.000059741199     0.000073979393     1.007825032230

  Basis Set: AUG-CC-PVTZ
    Blend: AUG-CC-PVTZ
  Basis Set: (AUG-CC-PVTZ AUX)
    Blend: AUG-CC-PVTZ-JKFIT
	 Reference Energy          =    -689.7019060965864128 [Eh]
	 Singles Energy            =      -0.0000000000000000 [Eh]
	 Same-Spin Energy          =      -0.3219652916926975 [Eh]
	 Opposite-Spin Energy      =      -0.9830813448505199 [Eh]
	 Correlation Energy        =      -1.3050466365432174 [Eh]
	 Total Energy              =    -691.0069527331296513 [Eh]

	 ================> DF-SCS-MP2 Energies <==================
	-----------------------------------------------------------
	 SCS Same-Spin Scale       =       0.3333333333333333 [-]
	 SCS Opposite-Spin Scale   =       1.2000000000000000 [-]
	 SCS Same-Spin Energy      =      -0.1073217638975658 [Eh]
	 SCS Opposite-Spin Energy  =      -1.1796976138206239 [Eh]
	 SCS Correlation Energy    =      -1.2870193777181897 [Eh]
	 SCS Total Energy          =    -690.9889254743045512 [Eh]
	-----------------------------------------------------------

  Dipole Moment: [D]
     X:    -1.1847      Y:    -0.0000      Z:     0.0000     Total:     1.1847

*** Psi4 exiting successfully. Buy a developer a beer!
