                               Psi4 1.3.2 release

  ==> Input File <==

--------------------------------------------------------------------------
#psi4
#
memory 32 gb

molecule  {
0 1
 Cl        2.2516181    -0.0607859    -0.0000482
  C        0.5109380    -0.0000600    -0.0000110
  C       -0.1739820    -1.2154480     0.0000200
  C       -0.1739300     1.2154130    -0.0000130
  C       -1.5696810    -1.2075560     0.0000510
  C       -1.5696010     1.2076130     0.0000180
  C       -2.2707960     0.0000350     0.0000490
  H        0.3801350    -2.1498460     0.0000230
  H        0.3803180     2.1497300    -0.0000380
  H       -2.1080660    -2.1520820     0.0000750
  H       -2.1079470     2.1521620     0.0000170
  H       -3.3576350     0.0000600     0.0000720
units angstrom
no_reorient  #important for SAPT in psi4, default
symmetry c1  #important for SAPT in psi4, default
}

set PROPERTIES_ORIGIN ["COM"]
properties('MP2/aug-cc-pvtz', properties = ['dipole'])
--------------------------------------------------------------------------

    Molecular point group: c1
  Charge       = 0
  Multiplicity = 1
  Basis Set: AUG-CC-PVTZ
    Blend: AUG-CC-PVTZ
  Basis Set: (AUG-CC-PVTZ AUX)
    Blend: AUG-CC-PVTZ-JKFIT

    Orbital Energies [Eh]
    ---------------------

    Doubly Occupied:

       1A   -104.842027     2A    -11.306913     3A    -11.254050
       4A    -11.252756     5A    -11.252547     6A    -11.251540
       7A    -11.248246     8A    -10.565866     9A     -8.032770
      10A     -8.030874    11A     -8.030866    12A     -1.189954
      13A     -1.119184    14A     -1.031691    15A     -0.996821
      16A     -0.845786    17A     -0.820076    18A     -0.710621
      19A     -0.648239    20A     -0.647378    21A     -0.603314
      22A     -0.589250    23A     -0.544776    24A     -0.517126
      25A     -0.511974    26A     -0.470023    27A     -0.455115
      28A     -0.352414    29A     -0.337086

  @DF-RHF Final Energy:  -689.71544699704236

   => Energetics <=

    Nuclear Repulsion Energy =            315.2146977407036843
    One-Electron Energy =               -1570.9417235029693529
    Two-Electron Energy =                 566.0115787652232484
    Total Energy =                       -689.7154469970423634
  Basis Set: (AUG-CC-PVTZ AUX)
    Blend: AUG-CC-PVTZ-RI
    Molecular point group: c1

    Geometry (in Angstrom), charge = 0, multiplicity = 1:

       Center              X                  Y                   Z               Mass
    ------------   -----------------  -----------------  -----------------  -----------------
         CL           2.172111538628    -0.041808457184    -0.000046706064    34.968852682000
         C            0.431431438628     0.018917442816    -0.000009506064    12.000000000000
         C           -0.253488561372    -1.196470557184     0.000021493936    12.000000000000
         C           -0.253436561372     1.234390442816    -0.000011506064    12.000000000000
         C           -1.649187561372    -1.188578557184     0.000052493936    12.000000000000
         C           -1.649107561372     1.226590442816     0.000019493936    12.000000000000
         C           -2.350302561372     0.019012442816     0.000050493936    12.000000000000
         H            0.300628438628    -2.130868557184     0.000024493936     1.007825032230
         H            0.300811438628     2.168707442816    -0.000036506064     1.007825032230
         H           -2.187572561372    -2.133104557184     0.000076493936     1.007825032230
         H           -2.187453561372     2.171139442816     0.000018493936     1.007825032230
         H           -3.437141561372     0.019037442816     0.000073493936     1.007825032230

  Basis Set: AUG-CC-PVTZ
    Blend: AUG-CC-PVTZ
  Basis Set: (AUG-CC-PVTZ AUX)
    Blend: AUG-CC-PVTZ-JKFIT
	 Reference Energy          =    -689.7154469970423634 [Eh]
	 Singles Energy            =      -0.0000000000000000 [Eh]
	 Same-Spin Energy          =      -0.3205797027571087 [Eh]
	 Opposite-Spin Energy      =      -0.9810196659864893 [Eh]
	 Correlation Energy        =      -1.3015993687435978 [Eh]
	 Total Energy              =    -691.0170463657859727 [Eh]

	 ================> DF-SCS-MP2 Energies <==================
	-----------------------------------------------------------
	 SCS Same-Spin Scale       =       0.3333333333333333 [-]
	 SCS Opposite-Spin Scale   =       1.2000000000000000 [-]
	 SCS Same-Spin Energy      =      -0.1068599009190362 [Eh]
	 SCS Opposite-Spin Energy  =      -1.1772235991837872 [Eh]
	 SCS Correlation Energy    =      -1.2840835001028235 [Eh]
	 SCS Total Energy          =    -690.9995304971452015 [Eh]
	-----------------------------------------------------------

  Dipole Moment: [D]
     X:    -1.7066      Y:     0.0257      Z:     0.0000     Total:     1.7068

*** Psi4 exiting successfully. Buy a developer a beer!
