                               Psi4 1.3.2 release

  ==> Input File <==

--------------------------------------------------------------------------
#psi4
#
memory 32 gb

molecule  {
0 1
 Cl        2.2526770     0.0000000    -0.0000490
  C        0.3109380    -0.0000669    -0.0000066
  C       -0.1739820    -1.2154480     0.0000200
  C       -0.1739300     1.2154130    -0.0000130
  C       -1.5696810    -1.2075560     0.0000510
  C       -1.5696010     1.2076130     0.0000180
  C       -2.2707960     0.0000350     0.0000490
  H        0.3801350    -2.1498460     0.0000230
  H        0.3803180     2.1497300    -0.0000380
  H       -2.1080660    -2.1520820     0.0000750
  H       -2.1079470     2.1521620     0.0000170
  H       -3.3576350     0.0000600     0.0000720
units angstrom
no_reorient  #important for SAPT in psi4, default
symmetry c1  #important for SAPT in psi4, default
}

set PROPERTIES_ORIGIN ["COM"]
properties('MP2/aug-cc-pvtz', properties = ['dipole'])
--------------------------------------------------------------------------

    Molecular point group: c1
  Charge       = 0
  Multiplicity = 1
  Basis Set: AUG-CC-PVTZ
    Blend: AUG-CC-PVTZ
  Basis Set: (AUG-CC-PVTZ AUX)
    Blend: AUG-CC-PVTZ-JKFIT

    Orbital Energies [Eh]
    ---------------------

    Doubly Occupied:

       1A   -104.811487     2A    -11.310281     3A    -11.262491
       4A    -11.262415     5A    -11.254253     6A    -11.254145
       7A    -11.254067     8A    -10.534317     9A     -8.000857
      10A     -7.999458    11A     -7.999418    12A     -1.209767
      13A     -1.085514    14A     -1.057915    15A     -1.004967
      16A     -0.866802    17A     -0.827449    18A     -0.724215
      19A     -0.671732    20A     -0.649564    21A     -0.621647
      22A     -0.577412    23A     -0.559226    24A     -0.536862
      25A     -0.465956    26A     -0.448116    27A     -0.434415
      28A     -0.365177    29A     -0.359100

  @DF-RHF Final Energy:  -689.68516214027204

   => Energetics <=

    Nuclear Repulsion Energy =            315.6861526774448521
    One-Electron Energy =               -1571.9245808187558850
    Two-Electron Energy =                 566.5532660010389918
    Total Energy =                       -689.6851621402720411
  Basis Set: (AUG-CC-PVTZ AUX)
    Blend: AUG-CC-PVTZ-RI
    Molecular point group: c1

    Geometry (in Angstrom), charge = 0, multiplicity = 1:

       Center              X                  Y                   Z               Mass
    ------------   -----------------  -----------------  -----------------  -----------------
         CL           2.194266895571     0.000000844692    -0.000047727699    34.968852682000
         C            0.252527895571    -0.000066055308    -0.000005327699    12.000000000000
         C           -0.232392104429    -1.215447155308     0.000021272301    12.000000000000
         C           -0.232340104429     1.215413844692    -0.000011727699    12.000000000000
         C           -1.628091104429    -1.207555155308     0.000052272301    12.000000000000
         C           -1.628011104429     1.207613844692     0.000019272301    12.000000000000
         C           -2.329206104429     0.000035844692     0.000050272301    12.000000000000
         H            0.321724895571    -2.149845155308     0.000024272301     1.007825032230
         H            0.321907895571     2.149730844692    -0.000036727699     1.007825032230
         H           -2.166476104429    -2.152081155308     0.000076272301     1.007825032230
         H           -2.166357104429     2.152162844692     0.000018272301     1.007825032230
         H           -3.416045104429     0.000060844692     0.000073272301     1.007825032230

  Basis Set: AUG-CC-PVTZ
    Blend: AUG-CC-PVTZ
  Basis Set: (AUG-CC-PVTZ AUX)
    Blend: AUG-CC-PVTZ-JKFIT
	 Reference Energy          =    -689.6851621402720411 [Eh]
	 Singles Energy            =      -0.0000000000000000 [Eh]
	 Same-Spin Energy          =      -0.3204115810571243 [Eh]
	 Opposite-Spin Energy      =      -0.9806137825222843 [Eh]
	 Correlation Energy        =      -1.3010253635794085 [Eh]
	 Total Energy              =    -690.9861875038513972 [Eh]

	 ================> DF-SCS-MP2 Energies <==================
	-----------------------------------------------------------
	 SCS Same-Spin Scale       =       0.3333333333333333 [-]
	 SCS Opposite-Spin Scale   =       1.2000000000000000 [-]
	 SCS Same-Spin Energy      =      -0.1068038603523748 [Eh]
	 SCS Opposite-Spin Energy  =      -1.1767365390267410 [Eh]
	 SCS Correlation Energy    =      -1.2835403993791159 [Eh]
	 SCS Total Energy          =    -690.9687025396511899 [Eh]
	-----------------------------------------------------------

  Dipole Moment: [D]
     X:    -2.9010      Y:    -0.0000      Z:     0.0001     Total:     2.9010

*** Psi4 exiting successfully. Buy a developer a beer!
