                               Psi4 1.3.2 release

  ==> Input File <==

--------------------------------------------------------------------------
#psi4
#
memory 32 gb

molecule  {
0 1
 Cl        2.2431293     0.1820610    -0.0000512
  C        0.5109380    -0.0000600    -0.0000110
  C       -0.1739820    -1.2154480     0.0000200
  C       -0.1739300     1.2154130    -0.0000130
  C       -1.5696810    -1.2075560     0.0000510
  C       -1.5696010     1.2076130     0.0000180
  C       -2.2707960     0.0000350     0.0000490
  H        0.3801350    -2.1498460     0.0000230
  H        0.3803180     2.1497300    -0.0000380
  H       -2.1080660    -2.1520820     0.0000750
  H       -2.1079470     2.1521620     0.0000170
  H       -3.3576350     0.0000600     0.0000720
units angstrom
no_reorient  #important for SAPT in psi4, default
symmetry c1  #important for SAPT in psi4, default
}

set PROPERTIES_ORIGIN ["COM"]
properties('MP2/aug-cc-pvtz', properties = ['dipole'])
--------------------------------------------------------------------------

    Molecular point group: c1
  Charge       = 0
  Multiplicity = 1
  Basis Set: AUG-CC-PVTZ
    Blend: AUG-CC-PVTZ
  Basis Set: (AUG-CC-PVTZ AUX)
    Blend: AUG-CC-PVTZ-JKFIT

    Orbital Energies [Eh]
    ---------------------

    Doubly Occupied:

       1A   -104.841831     2A    -11.306873     3A    -11.255535
       4A    -11.253292     5A    -11.251674     6A    -11.250186
       7A    -11.248196     8A    -10.565729     9A     -8.032627
      10A     -8.030729    11A     -8.030713    12A     -1.190335
      13A     -1.119314    14A     -1.031631    15A     -0.996534
      16A     -0.845797    17A     -0.820074    18A     -0.710604
      19A     -0.648635    20A     -0.647256    21A     -0.603382
      22A     -0.588847    23A     -0.544928    24A     -0.516962
      25A     -0.512223    26A     -0.469966    27A     -0.454021
      28A     -0.352425    29A     -0.336919

  @DF-RHF Final Energy:  -689.71324054686272

   => Energetics <=

    Nuclear Repulsion Energy =            315.3718754922447260
    One-Electron Energy =               -1571.2557572403193262
    Two-Electron Energy =                 566.1706412012118790
    Total Energy =                       -689.7132405468627212
  Basis Set: (AUG-CC-PVTZ AUX)
    Blend: AUG-CC-PVTZ-RI
    Molecular point group: c1

    Geometry (in Angstrom), charge = 0, multiplicity = 1:

       Center              X                  Y                   Z               Mass
    ------------   -----------------  -----------------  -----------------  -----------------
         CL           2.166272939108     0.125221723026    -0.000048769465    34.968852682000
         C            0.434081639108    -0.056899276974    -0.000008569465    12.000000000000
         C           -0.250838360892    -1.272287276974     0.000022430535    12.000000000000
         C           -0.250786360892     1.158573723026    -0.000010569465    12.000000000000
         C           -1.646537360892    -1.264395276974     0.000053430535    12.000000000000
         C           -1.646457360892     1.150773723026     0.000020430535    12.000000000000
         C           -2.347652360892    -0.056804276974     0.000051430535    12.000000000000
         H            0.303278639108    -2.206685276974     0.000025430535     1.007825032230
         H            0.303461639108     2.092890723026    -0.000035569465     1.007825032230
         H           -2.184922360892    -2.208921276974     0.000077430535     1.007825032230
         H           -2.184803360892     2.095322723026     0.000019430535     1.007825032230
         H           -3.434491360892    -0.056779276974     0.000074430535     1.007825032230

  Basis Set: AUG-CC-PVTZ
    Blend: AUG-CC-PVTZ
  Basis Set: (AUG-CC-PVTZ AUX)
    Blend: AUG-CC-PVTZ-JKFIT
	 Reference Energy          =    -689.7132405468627212 [Eh]
	 Singles Energy            =      -0.0000000000000000 [Eh]
	 Same-Spin Energy          =      -0.3206804478969033 [Eh]
	 Opposite-Spin Energy      =      -0.9812112056239026 [Eh]
	 Correlation Energy        =      -1.3018916535208058 [Eh]
	 Total Energy              =    -691.0151322003835048 [Eh]

	 ================> DF-SCS-MP2 Energies <==================
	-----------------------------------------------------------
	 SCS Same-Spin Scale       =       0.3333333333333333 [-]
	 SCS Opposite-Spin Scale   =       1.2000000000000000 [-]
	 SCS Same-Spin Energy      =      -0.1068934826323011 [Eh]
	 SCS Opposite-Spin Energy  =      -1.1774534467486830 [Eh]
	 SCS Correlation Energy    =      -1.2843469293809842 [Eh]
	 SCS Total Energy          =    -690.9975874762436661 [Eh]
	-----------------------------------------------------------

  Dipole Moment: [D]
     X:    -1.7063      Y:    -0.0768      Z:     0.0000     Total:     1.7080

*** Psi4 exiting successfully. Buy a developer a beer!
