                               Psi4 1.3.2 release

  ==> Input File <==

--------------------------------------------------------------------------
#psi4
#
memory 32 gb

molecule  {
0 1
 Cl        2.2484300     0.1214974    -0.0000505
  C        0.5109380    -0.0000600    -0.0000110
  C       -0.1739820    -1.2154480     0.0000200
  C       -0.1739300     1.2154130    -0.0000130
  C       -1.5696810    -1.2075560     0.0000510
  C       -1.5696010     1.2076130     0.0000180
  C       -2.2707960     0.0000350     0.0000490
  H        0.3801350    -2.1498460     0.0000230
  H        0.3803180     2.1497300    -0.0000380
  H       -2.1080660    -2.1520820     0.0000750
  H       -2.1079470     2.1521620     0.0000170
  H       -3.3576350     0.0000600     0.0000720
units angstrom
no_reorient  #important for SAPT in psi4, default
symmetry c1  #important for SAPT in psi4, default
}

set PROPERTIES_ORIGIN ["COM"]
properties('MP2/aug-cc-pvtz', properties = ['dipole'])
--------------------------------------------------------------------------

    Molecular point group: c1
  Charge       = 0
  Multiplicity = 1
  Basis Set: AUG-CC-PVTZ
    Blend: AUG-CC-PVTZ
  Basis Set: (AUG-CC-PVTZ AUX)
    Blend: AUG-CC-PVTZ-JKFIT

    Orbital Energies [Eh]
    ---------------------

    Doubly Occupied:

       1A   -104.841953     2A    -11.306898     3A    -11.254780
       4A    -11.252954     5A    -11.252183     6A    -11.250898
       7A    -11.248228     8A    -10.565814     9A     -8.032716
      10A     -8.030819    11A     -8.030809    12A     -1.190096
      13A     -1.119232    14A     -1.031669    15A     -0.996713
      16A     -0.845790    17A     -0.820075    18A     -0.710614
      19A     -0.648403    20A     -0.647316    21A     -0.603339
      22A     -0.589098    23A     -0.544833    24A     -0.517058
      25A     -0.512073    26A     -0.470001    27A     -0.454708
      28A     -0.352418    29A     -0.337023

  @DF-RHF Final Energy:  -689.71462248551268

   => Energetics <=

    Nuclear Repulsion Energy =            315.2736870869961763
    One-Electron Energy =               -1571.0595926328564929
    Two-Electron Energy =                 566.0712830603475822
    Total Energy =                       -689.7146224855126775
  Basis Set: (AUG-CC-PVTZ AUX)
    Blend: AUG-CC-PVTZ-RI
    Molecular point group: c1

    Geometry (in Angstrom), charge = 0, multiplicity = 1:

       Center              X                  Y                   Z               Mass
    ------------   -----------------  -----------------  -----------------  -----------------
         CL           2.169918762366     0.083566058399    -0.000048288005    34.968852682000
         C            0.432426762366    -0.037991341601    -0.000008788005    12.000000000000
         C           -0.252493237634    -1.253379341601     0.000022211995    12.000000000000
         C           -0.252441237634     1.177481658399    -0.000010788005    12.000000000000
         C           -1.648192237634    -1.245487341601     0.000053211995    12.000000000000
         C           -1.648112237634     1.169681658399     0.000020211995    12.000000000000
         C           -2.349307237634    -0.037896341601     0.000051211995    12.000000000000
         H            0.301623762366    -2.187777341601     0.000025211995     1.007825032230
         H            0.301806762366     2.111798658399    -0.000035788005     1.007825032230
         H           -2.186577237634    -2.190013341601     0.000077211995     1.007825032230
         H           -2.186458237634     2.114230658399     0.000019211995     1.007825032230
         H           -3.436146237634    -0.037871341601     0.000074211995     1.007825032230

  Basis Set: AUG-CC-PVTZ
    Blend: AUG-CC-PVTZ
  Basis Set: (AUG-CC-PVTZ AUX)
    Blend: AUG-CC-PVTZ-JKFIT
	 Reference Energy          =    -689.7146224855126775 [Eh]
	 Singles Energy            =      -0.0000000000000000 [Eh]
	 Same-Spin Energy          =      -0.3206171390925343 [Eh]
	 Opposite-Spin Energy      =      -0.9810912741059291 [Eh]
	 Correlation Energy        =      -1.3017084131984635 [Eh]
	 Total Energy              =    -691.0163308987110895 [Eh]

	 ================> DF-SCS-MP2 Energies <==================
	-----------------------------------------------------------
	 SCS Same-Spin Scale       =       0.3333333333333333 [-]
	 SCS Opposite-Spin Scale   =       1.2000000000000000 [-]
	 SCS Same-Spin Energy      =      -0.1068723796975114 [Eh]
	 SCS Opposite-Spin Energy  =      -1.1773095289271149 [Eh]
	 SCS Correlation Energy    =      -1.2841819086246264 [Eh]
	 SCS Total Energy          =    -690.9988043941373235 [Eh]
	-----------------------------------------------------------

  Dipole Moment: [D]
     X:    -1.7065      Y:    -0.0514      Z:     0.0000     Total:     1.7073

*** Psi4 exiting successfully. Buy a developer a beer!
