                               Psi4 1.4a3.dev225

  ==> Input File <==

--------------------------------------------------------------------------
#psi4
#
memory 32 gb

molecule  {
0 1
 Cl        2.2528770    -0.0000010    -0.0000490
  C        0.4603710     0.0000011    -0.0000099
  C       -0.1739040    -1.2155620     0.0000200
  C       -0.1739050     1.2155640    -0.0000130
  C       -1.5696920    -1.2075950     0.0000510
  C       -1.5696910     1.2075950     0.0000170
  C       -2.2707750    -0.0000010     0.0000490
  H        0.3801340    -2.1498420     0.0000210
  H        0.3801360     2.1498430    -0.0000380
  H       -2.1080360    -2.1520700     0.0000760
  H       -2.1080390     2.1520680     0.0000160
  H       -3.3575250     0.0000000     0.0000730
units angstrom
no_reorient  #important for SAPT in psi4, default
symmetry c1  #important for SAPT in psi4, default
}

set PROPERTIES_ORIGIN ["COM"]
properties('MP2/aug-cc-pvtz', properties = ['dipole'])
--------------------------------------------------------------------------

    Molecular point group: c1
  Charge       = 0
  Multiplicity = 1
  Basis Set: AUG-CC-PVTZ
    Blend: AUG-CC-PVTZ
  Basis Set: (AUG-CC-PVTZ AUX)
    Blend: AUG-CC-PVTZ-JKFIT

    Orbital Energies [Eh]
    ---------------------

    Doubly Occupied:

       1A   -104.835772     2A    -11.306474     3A    -11.254678
       4A    -11.254567     5A    -11.252342     6A    -11.252339
       7A    -11.249489     8A    -10.559064     9A     -8.025853
      10A     -8.024113    11A     -8.024096    12A     -1.191250
      13A     -1.110940    14A     -1.037033    15A     -1.000361
      16A     -0.850938    17A     -0.821678    18A     -0.713581
      19A     -0.651515    20A     -0.647189    21A     -0.608611
      22A     -0.584747    23A     -0.545825    24A     -0.521821
      25A     -0.503253    26A     -0.465855    27A     -0.452048
      28A     -0.355025    29A     -0.343246

  @DF-RHF Final Energy:  -689.71458370101379

   => Energetics <=

    Nuclear Repulsion Energy =            315.2429609775088579
    One-Electron Energy =               -1571.0276902616412826
    Two-Electron Energy =                 566.0701455831186877
    Total Energy =                       -689.7145837010137939
  Basis Set: (AUG-CC-PVTZ AUX)
    Blend: AUG-CC-PVTZ-RI
    Molecular point group: c1

    Geometry (in Angstrom), charge = 0, multiplicity = 1:

       Center              X                  Y                   Z               Mass
    ------------   -----------------  -----------------  -----------------  -----------------
         CL           2.178393668031    -0.000000903787    -0.000047258020    34.968852682000
         C            0.385887668031     0.000001196213    -0.000008158020    12.000000000000
         C           -0.248387331969    -1.215561903787     0.000021741980    12.000000000000
         C           -0.248388331969     1.215564096213    -0.000011258020    12.000000000000
         C           -1.644175331969    -1.207594903787     0.000052741980    12.000000000000
         C           -1.644174331969     1.207595096213     0.000018741980    12.000000000000
         C           -2.345258331969    -0.000000903787     0.000050741980    12.000000000000
         H            0.305650668031    -2.149841903787     0.000022741980     1.007825032230
         H            0.305652668031     2.149843096213    -0.000036258020     1.007825032230
         H           -2.182519331969    -2.152069903787     0.000077741980     1.007825032230
         H           -2.182522331969     2.152068096213     0.000017741980     1.007825032230
         H           -3.432008331969     0.000000096213     0.000074741980     1.007825032230

  Basis Set: AUG-CC-PVTZ
    Blend: AUG-CC-PVTZ
  Basis Set: (AUG-CC-PVTZ AUX)
    Blend: AUG-CC-PVTZ-JKFIT
	 Reference Energy          =    -689.7145837010137939 [Eh]
	 Singles Energy            =      -0.0000000000000000 [Eh]
	 Same-Spin Energy          =      -0.3202291059894387 [Eh]
	 Opposite-Spin Energy      =      -0.9805117392090639 [Eh]
	 Correlation Energy        =      -1.3007408451985025 [Eh]
	 Total Energy              =    -691.0153245462122413 [Eh]

	 ================> DF-SCS-MP2 Energies <==================
	-----------------------------------------------------------
	 SCS Same-Spin Scale       =       0.3333333333333333 [-]
	 SCS Opposite-Spin Scale   =       1.2000000000000000 [-]
	 SCS Same-Spin Energy      =      -0.1067430353298129 [Eh]
	 SCS Opposite-Spin Energy  =      -1.1766140870508766 [Eh]
	 SCS Correlation Energy    =      -1.2833571223806894 [Eh]
	 SCS Total Energy          =    -690.9979408233945151 [Eh]
	-----------------------------------------------------------

  Dipole Moment: [D]
     X:    -1.9818      Y:    -0.0000      Z:     0.0000     Total:     1.9818

*** Psi4 exiting successfully. Buy a developer a beer!
