                               Psi4 1.4a3.dev225

  ==> Input File <==

--------------------------------------------------------------------------
#psi4
#
memory 32 gb

molecule  {
0 1
 Cl        2.2528770    -0.0000010    -0.0000490
  C        0.5303710     0.0000010    -0.0000114
  C       -0.1739040    -1.2155620     0.0000200
  C       -0.1739050     1.2155640    -0.0000130
  C       -1.5696920    -1.2075950     0.0000510
  C       -1.5696910     1.2075950     0.0000170
  C       -2.2707750    -0.0000010     0.0000490
  H        0.3801340    -2.1498420     0.0000210
  H        0.3801360     2.1498430    -0.0000380
  H       -2.1080360    -2.1520700     0.0000760
  H       -2.1080390     2.1520680     0.0000160
  H       -3.3575250     0.0000000     0.0000730
units angstrom
no_reorient  #important for SAPT in psi4, default
symmetry c1  #important for SAPT in psi4, default
}

set PROPERTIES_ORIGIN ["COM"]
properties('MP2/aug-cc-pvtz', properties = ['dipole'])
--------------------------------------------------------------------------

    Molecular point group: c1
  Charge       = 0
  Multiplicity = 1
  Basis Set: AUG-CC-PVTZ
    Blend: AUG-CC-PVTZ
  Basis Set: (AUG-CC-PVTZ AUX)
    Blend: AUG-CC-PVTZ-JKFIT

    Orbital Energies [Eh]
    ---------------------

    Doubly Occupied:

       1A   -104.844245     2A    -11.307351     3A    -11.253458
       4A    -11.253438     5A    -11.251733     6A    -11.251562
       7A    -11.247778     8A    -10.568336     9A     -8.035289
      10A     -8.033326    11A     -8.033324    12A     -1.190385
      13A     -1.121834    14A     -1.029828    15A     -0.995305
      16A     -0.843873    17A     -0.819477    18A     -0.709602
      19A     -0.648992    20A     -0.646122    21A     -0.601298
      22A     -0.591119    23A     -0.544848    24A     -0.515692
      25A     -0.514634    26A     -0.471315    27A     -0.455882
      28A     -0.351475    29A     -0.334655

  @DF-RHF Final Energy:  -689.71477764180713

   => Energetics <=

    Nuclear Repulsion Energy =            315.1722236330741680
    One-Electron Energy =               -1570.8416506326157105
    Two-Electron Energy =                 565.9546493577342972
    Total Energy =                       -689.7147776418071317
  Basis Set: (AUG-CC-PVTZ AUX)
    Blend: AUG-CC-PVTZ-RI
    Molecular point group: c1

    Geometry (in Angstrom), charge = 0, multiplicity = 1:

       Center              X                  Y                   Z               Mass
    ------------   -----------------  -----------------  -----------------  -----------------
         CL           2.170894202224    -0.000000893073    -0.000047097317    34.968852682000
         C            0.448388202224     0.000001106927    -0.000009497317    12.000000000000
         C           -0.255886797776    -1.215561893073     0.000021902683    12.000000000000
         C           -0.255887797776     1.215564106927    -0.000011097317    12.000000000000
         C           -1.651674797776    -1.207594893073     0.000052902683    12.000000000000
         C           -1.651673797776     1.207595106927     0.000018902683    12.000000000000
         C           -2.352757797776    -0.000000893073     0.000050902683    12.000000000000
         H            0.298151202224    -2.149841893073     0.000022902683     1.007825032230
         H            0.298153202224     2.149843106927    -0.000036097317     1.007825032230
         H           -2.190018797776    -2.152069893073     0.000077902683     1.007825032230
         H           -2.190021797776     2.152068106927     0.000017902683     1.007825032230
         H           -3.439507797776     0.000000106927     0.000074902683     1.007825032230

  Basis Set: AUG-CC-PVTZ
    Blend: AUG-CC-PVTZ
  Basis Set: (AUG-CC-PVTZ AUX)
    Blend: AUG-CC-PVTZ-JKFIT
	 Reference Energy          =    -689.7147776418071317 [Eh]
	 Singles Energy            =      -0.0000000000000000 [Eh]
	 Same-Spin Energy          =      -0.3207571286054919 [Eh]
	 Opposite-Spin Energy      =      -0.9812782297458068 [Eh]
	 Correlation Energy        =      -1.3020353583512987 [Eh]
	 Total Energy              =    -691.0168130001584359 [Eh]

	 ================> DF-SCS-MP2 Energies <==================
	-----------------------------------------------------------
	 SCS Same-Spin Scale       =       0.3333333333333333 [-]
	 SCS Opposite-Spin Scale   =       1.2000000000000000 [-]
	 SCS Same-Spin Energy      =      -0.1069190428684973 [Eh]
	 SCS Opposite-Spin Energy  =      -1.1775338756949680 [Eh]
	 SCS Correlation Energy    =      -1.2844529185634654 [Eh]
	 SCS Total Energy          =    -690.9992305603706200 [Eh]
	-----------------------------------------------------------

  Dipole Moment: [D]
     X:    -1.6049      Y:    -0.0000      Z:     0.0000     Total:     1.6049

*** Psi4 exiting successfully. Buy a developer a beer!
