                               Psi4 1.4a3.dev225

  ==> Input File <==

--------------------------------------------------------------------------
#psi4
#
memory 32 gb

molecule  {
0 1
 Cl        2.2528770    -0.0000010    -0.0000490
  C        0.4903710     0.0000010    -0.0000106
  C       -0.1739040    -1.2155620     0.0000200
  C       -0.1739050     1.2155640    -0.0000130
  C       -1.5696920    -1.2075950     0.0000510
  C       -1.5696910     1.2075950     0.0000170
  C       -2.2707750    -0.0000010     0.0000490
  H        0.3801340    -2.1498420     0.0000210
  H        0.3801360     2.1498430    -0.0000380
  H       -2.1080360    -2.1520700     0.0000760
  H       -2.1080390     2.1520680     0.0000160
  H       -3.3575250     0.0000000     0.0000730
units angstrom
no_reorient  #important for SAPT in psi4, default
symmetry c1  #important for SAPT in psi4, default
}

set PROPERTIES_ORIGIN ["COM"]
properties('MP2/aug-cc-pvtz', properties = ['dipole'])
--------------------------------------------------------------------------

    Molecular point group: c1
  Charge       = 0
  Multiplicity = 1
  Basis Set: AUG-CC-PVTZ
    Blend: AUG-CC-PVTZ
  Basis Set: (AUG-CC-PVTZ AUX)
    Blend: AUG-CC-PVTZ-JKFIT

    Orbital Energies [Eh]
    ---------------------

    Doubly Occupied:

       1A   -104.839591     2A    -11.306668     3A    -11.253700
       4A    -11.253627     5A    -11.252371     6A    -11.252313
       7A    -11.248739     8A    -10.563175     9A     -8.030030
      10A     -8.028202    11A     -8.028191    12A     -1.189983
      13A     -1.115965    14A     -1.033776    15A     -0.998379
      16A     -0.847872    17A     -0.820715    18A     -0.711799
      19A     -0.648912    20A     -0.647641    21A     -0.605497
      22A     -0.587374    23A     -0.544925    24A     -0.518988
      25A     -0.508669    26A     -0.468457    27A     -0.454181
      28A     -0.353425    29A     -0.339656

  @DF-RHF Final Energy:  -689.71586621482936

   => Energetics <=

    Nuclear Repulsion Energy =            315.2004447458571121
    One-Electron Energy =               -1570.9269724967225557
    Two-Electron Energy =                 566.0106615360360820
    Total Energy =                       -689.7158662148293615
  Basis Set: (AUG-CC-PVTZ AUX)
    Blend: AUG-CC-PVTZ-RI
    Molecular point group: c1

    Geometry (in Angstrom), charge = 0, multiplicity = 1:

       Center              X                  Y                   Z               Mass
    ------------   -----------------  -----------------  -----------------  -----------------
         CL           2.175179611257    -0.000000893073    -0.000047183025    34.968852682000
         C            0.412673611257     0.000001106927    -0.000008783025    12.000000000000
         C           -0.251601388743    -1.215561893073     0.000021816975    12.000000000000
         C           -0.251602388743     1.215564106927    -0.000011183025    12.000000000000
         C           -1.647389388743    -1.207594893073     0.000052816975    12.000000000000
         C           -1.647388388743     1.207595106927     0.000018816975    12.000000000000
         C           -2.348472388743    -0.000000893073     0.000050816975    12.000000000000
         H            0.302436611257    -2.149841893073     0.000022816975     1.007825032230
         H            0.302438611257     2.149843106927    -0.000036183025     1.007825032230
         H           -2.185733388743    -2.152069893073     0.000077816975     1.007825032230
         H           -2.185736388743     2.152068106927     0.000017816975     1.007825032230
         H           -3.435222388743     0.000000106927     0.000074816975     1.007825032230

  Basis Set: AUG-CC-PVTZ
    Blend: AUG-CC-PVTZ
  Basis Set: (AUG-CC-PVTZ AUX)
    Blend: AUG-CC-PVTZ-JKFIT
	 Reference Energy          =    -689.7158662148293615 [Eh]
	 Singles Energy            =      -0.0000000000000000 [Eh]
	 Same-Spin Energy          =      -0.3204001189000051 [Eh]
	 Opposite-Spin Energy      =      -0.9807577083100563 [Eh]
	 Correlation Energy        =      -1.3011578272100612 [Eh]
	 Total Energy              =    -691.0170240420394521 [Eh]

	 ================> DF-SCS-MP2 Energies <==================
	-----------------------------------------------------------
	 SCS Same-Spin Scale       =       0.3333333333333333 [-]
	 SCS Opposite-Spin Scale   =       1.2000000000000000 [-]
	 SCS Same-Spin Energy      =      -0.1068000396333350 [Eh]
	 SCS Opposite-Spin Energy  =      -1.1769092499720675 [Eh]
	 SCS Correlation Energy    =      -1.2837092896054025 [Eh]
	 SCS Total Energy          =    -690.9995755044348016 [Eh]
	-----------------------------------------------------------

  Dipole Moment: [D]
     X:    -1.8177      Y:    -0.0000      Z:     0.0000     Total:     1.8177

*** Psi4 exiting successfully. Buy a developer a beer!
