                               Psi4 1.3.2 release

  ==> Input File <==

--------------------------------------------------------------------------
#psi4
#
memory 32 gb

molecule  {
0 1
 Cl        2.2516139     0.0607858    -0.0000498
  C        0.5109380    -0.0000600    -0.0000110
  C       -0.1739820    -1.2154480     0.0000200
  C       -0.1739300     1.2154130    -0.0000130
  C       -1.5696810    -1.2075560     0.0000510
  C       -1.5696010     1.2076130     0.0000180
  C       -2.2707960     0.0000350     0.0000490
  H        0.3801350    -2.1498460     0.0000230
  H        0.3803180     2.1497300    -0.0000380
  H       -2.1080660    -2.1520820     0.0000750
  H       -2.1079470     2.1521620     0.0000170
  H       -3.3576350     0.0000600     0.0000720
units angstrom
no_reorient  #important for SAPT in psi4, default
symmetry c1  #important for SAPT in psi4, default
}

set PROPERTIES_ORIGIN ["COM"]
properties('MP2/aug-cc-pvtz', properties = ['dipole'])
--------------------------------------------------------------------------

    Molecular point group: c1
  Charge       = 0
  Multiplicity = 1
  Basis Set: AUG-CC-PVTZ
    Blend: AUG-CC-PVTZ
  Basis Set: (AUG-CC-PVTZ AUX)
    Blend: AUG-CC-PVTZ-JKFIT

    Orbital Energies [Eh]
    ---------------------

    Doubly Occupied:

       1A   -104.842027     2A    -11.306913     3A    -11.254050
       4A    -11.252756     5A    -11.252546     6A    -11.251540
       7A    -11.248246     8A    -10.565866     9A     -8.032770
      10A     -8.030874    11A     -8.030866    12A     -1.189955
      13A     -1.119184    14A     -1.031691    15A     -0.996821
      16A     -0.845786    17A     -0.820076    18A     -0.710621
      19A     -0.648237    20A     -0.647379    21A     -0.603314
      22A     -0.589250    23A     -0.544776    24A     -0.517126
      25A     -0.511974    26A     -0.470023    27A     -0.455115
      28A     -0.352414    29A     -0.337085

  @DF-RHF Final Energy:  -689.71544527626156

   => Energetics <=

    Nuclear Repulsion Energy =            315.2148496638153006
    One-Electron Energy =               -1570.9420260785598202
    Two-Electron Energy =                 566.0117311384829009
    Total Energy =                       -689.7154452762615620
  Basis Set: (AUG-CC-PVTZ AUX)
    Blend: AUG-CC-PVTZ-RI
    Molecular point group: c1

    Geometry (in Angstrom), charge = 0, multiplicity = 1:

       Center              X                  Y                   Z               Mass
    ------------   -----------------  -----------------  -----------------  -----------------
         CL           2.172108649866     0.041808599321    -0.000047806544    34.968852682000
         C            0.431432749866    -0.019037200679    -0.000009006544    12.000000000000
         C           -0.253487250134    -1.234425200679     0.000021993456    12.000000000000
         C           -0.253435250134     1.196435799321    -0.000011006544    12.000000000000
         C           -1.649186250134    -1.226533200679     0.000052993456    12.000000000000
         C           -1.649106250134     1.188635799321     0.000019993456    12.000000000000
         C           -2.350301250134    -0.018942200679     0.000050993456    12.000000000000
         H            0.300629749866    -2.168823200679     0.000024993456     1.007825032230
         H            0.300812749866     2.130752799321    -0.000036006544     1.007825032230
         H           -2.187571250134    -2.171059200679     0.000076993456     1.007825032230
         H           -2.187452250134     2.133184799321     0.000018993456     1.007825032230
         H           -3.437140250134    -0.018917200679     0.000073993456     1.007825032230

  Basis Set: AUG-CC-PVTZ
    Blend: AUG-CC-PVTZ
  Basis Set: (AUG-CC-PVTZ AUX)
    Blend: AUG-CC-PVTZ-JKFIT
	 Reference Energy          =    -689.7154452762615620 [Eh]
	 Singles Energy            =      -0.0000000000000000 [Eh]
	 Same-Spin Energy          =      -0.3205797805802827 [Eh]
	 Opposite-Spin Energy      =      -0.9810198276460254 [Eh]
	 Correlation Energy        =      -1.3015996082263079 [Eh]
	 Total Energy              =    -691.0170448844878592 [Eh]

	 ================> DF-SCS-MP2 Energies <==================
	-----------------------------------------------------------
	 SCS Same-Spin Scale       =       0.3333333333333333 [-]
	 SCS Opposite-Spin Scale   =       1.2000000000000000 [-]
	 SCS Same-Spin Energy      =      -0.1068599268600942 [Eh]
	 SCS Opposite-Spin Energy  =      -1.1772237931752303 [Eh]
	 SCS Correlation Energy    =      -1.2840837200353246 [Eh]
	 SCS Total Energy          =    -690.9995289962969309 [Eh]
	-----------------------------------------------------------

  Dipole Moment: [D]
     X:    -1.7066      Y:    -0.0257      Z:     0.0000     Total:     1.7068

*** Psi4 exiting successfully. Buy a developer a beer!
