                               Psi4 1.3.2 release

  ==> Input File <==

--------------------------------------------------------------------------
#psi4
#
memory 32 gb

molecule  {
0 1
 Cl        2.2524128    -0.0303975    -0.0000486
  C        0.5109380    -0.0000600    -0.0000110
  C       -0.1739820    -1.2154480     0.0000200
  C       -0.1739300     1.2154130    -0.0000130
  C       -1.5696810    -1.2075560     0.0000510
  C       -1.5696010     1.2076130     0.0000180
  C       -2.2707960     0.0000350     0.0000490
  H        0.3801350    -2.1498460     0.0000230
  H        0.3803180     2.1497300    -0.0000380
  H       -2.1080660    -2.1520820     0.0000750
  H       -2.1079470     2.1521620     0.0000170
  H       -3.3576350     0.0000600     0.0000720
units angstrom
no_reorient  #important for SAPT in psi4, default
symmetry c1  #important for SAPT in psi4, default
}

set PROPERTIES_ORIGIN ["COM"]
properties('MP2/aug-cc-pvtz', properties = ['dipole'])
--------------------------------------------------------------------------

    Molecular point group: c1
  Charge       = 0
  Multiplicity = 1
  Basis Set: AUG-CC-PVTZ
    Blend: AUG-CC-PVTZ
  Basis Set: (AUG-CC-PVTZ AUX)
    Blend: AUG-CC-PVTZ-JKFIT

    Orbital Energies [Eh]
    ---------------------

    Doubly Occupied:

       1A   -104.842046     2A    -11.306916     3A    -11.253701
       4A    -11.253047     5A    -11.252342     6A    -11.251823
       7A    -11.248251     8A    -10.565879     9A     -8.032783
      10A     -8.030888    11A     -8.030881    12A     -1.189919
      13A     -1.119172    14A     -1.031697    15A     -0.996848
      16A     -0.845784    17A     -0.820077    18A     -0.710623
      19A     -0.648191    20A     -0.647400    21A     -0.603308
      22A     -0.589288    23A     -0.544762    24A     -0.517144
      25A     -0.511949    26A     -0.470029    27A     -0.455216
      28A     -0.352412    29A     -0.337101

  @DF-RHF Final Energy:  -689.71565126664825

   => Energetics <=

    Nuclear Repulsion Energy =            315.2000583027287917
    One-Electron Energy =               -1570.9124689428037982
    Two-Electron Energy =                 565.9967593734266984
    Total Energy =                       -689.7156512666482513
  Basis Set: (AUG-CC-PVTZ AUX)
    Blend: AUG-CC-PVTZ-RI
    Molecular point group: c1

    Geometry (in Angstrom), charge = 0, multiplicity = 1:

       Center              X                  Y                   Z               Mass
    ------------   -----------------  -----------------  -----------------  -----------------
         CL           2.172658133557    -0.020907305354    -0.000046981184    34.968852682000
         C            0.431183333557     0.009430194646    -0.000009381184    12.000000000000
         C           -0.253736666443    -1.205957805354     0.000021618816    12.000000000000
         C           -0.253684666443     1.224903194646    -0.000011381184    12.000000000000
         C           -1.649435666443    -1.198065805354     0.000052618816    12.000000000000
         C           -1.649355666443     1.217103194646     0.000019618816    12.000000000000
         C           -2.350550666443     0.009525194646     0.000050618816    12.000000000000
         H            0.300380333557    -2.140355805354     0.000024618816     1.007825032230
         H            0.300563333557     2.159220194646    -0.000036381184     1.007825032230
         H           -2.187820666443    -2.142591805354     0.000076618816     1.007825032230
         H           -2.187701666443     2.161652194646     0.000018618816     1.007825032230
         H           -3.437389666443     0.009550194646     0.000073618816     1.007825032230

  Basis Set: AUG-CC-PVTZ
    Blend: AUG-CC-PVTZ
  Basis Set: (AUG-CC-PVTZ AUX)
    Blend: AUG-CC-PVTZ-JKFIT
	 Reference Energy          =    -689.7156512666482513 [Eh]
	 Singles Energy            =      -0.0000000000000000 [Eh]
	 Same-Spin Energy          =      -0.3205704709795753 [Eh]
	 Opposite-Spin Energy      =      -0.9810019281935642 [Eh]
	 Correlation Energy        =      -1.3015723991731396 [Eh]
	 Total Energy              =    -691.0172236658213478 [Eh]

	 ================> DF-SCS-MP2 Energies <==================
	-----------------------------------------------------------
	 SCS Same-Spin Scale       =       0.3333333333333333 [-]
	 SCS Opposite-Spin Scale   =       1.2000000000000000 [-]
	 SCS Same-Spin Energy      =      -0.1068568236598584 [Eh]
	 SCS Opposite-Spin Energy  =      -1.1772023138322771 [Eh]
	 SCS Correlation Energy    =      -1.2840591374921355 [Eh]
	 SCS Total Energy          =    -690.9997104041403873 [Eh]
	-----------------------------------------------------------

  Dipole Moment: [D]
     X:    -1.7067      Y:     0.0129      Z:     0.0000     Total:     1.7067

*** Psi4 exiting successfully. Buy a developer a beer!
