                               Psi4 1.3.2 release

  ==> Input File <==

--------------------------------------------------------------------------
#psi4
#
memory 32 gb

molecule  {
-1 1
  O        1.7314370    -0.5589580    -0.0001560
  O        0.4095020     1.3165580     0.0001130
  C        0.6417670     0.0628290     0.0000410
  C       -0.6554011    -0.7983995     0.1001650
  H       -0.6469910    -1.4524900     0.8854590
  H       -0.6469310    -1.4531640    -0.8846330
  O       -1.8030600     0.0425870    -0.0001530
  H       -1.3272220     0.9175650    -0.0005000
units angstrom
no_reorient  #important for SAPT in psi4, default
symmetry c1  #important for SAPT in psi4, default
}

set PROPERTIES_ORIGIN ["COM"]
properties('MP2/aug-cc-pvtz', properties = ['dipole'])
--------------------------------------------------------------------------

    Molecular point group: c1
  Charge       = -1
  Multiplicity = 1
  Basis Set: AUG-CC-PVTZ
    Blend: AUG-CC-PVTZ
  Basis Set: (AUG-CC-PVTZ AUX)
    Blend: AUG-CC-PVTZ-JKFIT

    Orbital Energies [Eh]
    ---------------------

    Doubly Occupied:

       1A    -20.380744     2A    -20.320829     3A    -20.313061
       4A    -11.156758     5A    -11.108177     6A     -1.202474
       7A     -1.162481     8A     -1.087828     9A     -0.767950
      10A     -0.563109    11A     -0.496344    12A     -0.469584
      13A     -0.438257    14A     -0.395450    15A     -0.372584
      16A     -0.353462    17A     -0.274328    18A     -0.238723
      19A     -0.216578    20A     -0.214303

  @DF-RHF Final Energy:  -302.21682021288098

   => Energetics <=

    Nuclear Repulsion Energy =            169.7652431161012885
    One-Electron Energy =                -760.8980817656261024
    Two-Electron Energy =                 288.9160184366438671
    Total Energy =                       -302.2168202128809753
  Basis Set: (AUG-CC-PVTZ AUX)
    Blend: AUG-CC-PVTZ-RI
    Molecular point group: c1

    Geometry (in Angstrom), charge = -1, multiplicity = 1:

       Center              X                  Y                   Z               Mass
    ------------   -----------------  -----------------  -----------------  -----------------
         O            1.696786370287    -0.585200869270    -0.016149787940    15.994914619570
         O            0.374851370287     1.290315130730    -0.015880787940    15.994914619570
         C            0.607116370287     0.036586130730    -0.015952787940    12.000000000000
         C           -0.690051729713    -0.824642369270     0.084171212060    12.000000000000
         H           -0.681641629713    -1.478732869270     0.869465212060     1.007825032230
         H           -0.681581629713    -1.479406869270    -0.900626787940     1.007825032230
         O           -1.837710629713     0.016344130730    -0.016146787940    15.994914619570
         H           -1.361872629713     0.891322130730    -0.016493787940     1.007825032230

  Basis Set: AUG-CC-PVTZ
    Blend: AUG-CC-PVTZ
  Basis Set: (AUG-CC-PVTZ AUX)
    Blend: AUG-CC-PVTZ-JKFIT
	 Reference Energy          =    -302.2168202128809753 [Eh]
	 Singles Energy            =      -0.0000000000000000 [Eh]
	 Same-Spin Energy          =      -0.2934192695631279 [Eh]
	 Opposite-Spin Energy      =      -0.8646944806930906 [Eh]
	 Correlation Energy        =      -1.1581137502562187 [Eh]
	 Total Energy              =    -303.3749339631372095 [Eh]

	 ================> DF-SCS-MP2 Energies <==================
	-----------------------------------------------------------
	 SCS Same-Spin Scale       =       0.3333333333333333 [-]
	 SCS Opposite-Spin Scale   =       1.2000000000000000 [-]
	 SCS Same-Spin Energy      =      -0.0978064231877093 [Eh]
	 SCS Opposite-Spin Energy  =      -1.0376333768317088 [Eh]
	 SCS Correlation Energy    =      -1.1354398000194181 [Eh]
	 SCS Total Energy          =    -303.3522600129003877 [Eh]
	-----------------------------------------------------------

  Dipole Moment: [D]
     X:    -2.2765      Y:    -1.1975      Z:     0.2696     Total:     2.5863

*** Psi4 exiting successfully. Buy a developer a beer!
