                               Psi4 1.3.2 release

  ==> Input File <==

--------------------------------------------------------------------------
#psi4
#
memory 32 gb

molecule  {
-1 1
  O        1.7314370    -0.5589580    -0.0001560
  O        0.4095020     1.3165580     0.0001130
  C        0.6417670     0.0628290     0.0000410
  C       -0.6553802    -0.7984064     0.2501650
  H       -0.6469910    -1.4524900     0.8854590
  H       -0.6469310    -1.4531640    -0.8846330
  O       -1.8030600     0.0425870    -0.0001530
  H       -1.3272220     0.9175650    -0.0005000
units angstrom
no_reorient  #important for SAPT in psi4, default
symmetry c1  #important for SAPT in psi4, default
}

set PROPERTIES_ORIGIN ["COM"]
properties('MP2/aug-cc-pvtz', properties = ['dipole'])
--------------------------------------------------------------------------

    Molecular point group: c1
  Charge       = -1
  Multiplicity = 1
  Basis Set: AUG-CC-PVTZ
    Blend: AUG-CC-PVTZ
  Basis Set: (AUG-CC-PVTZ AUX)
    Blend: AUG-CC-PVTZ-JKFIT

    Orbital Energies [Eh]
    ---------------------

    Doubly Occupied:

       1A    -20.384363     2A    -20.322531     3A    -20.313995
       4A    -11.162502     5A    -11.114475     6A     -1.201482
       7A     -1.161376     8A     -1.089192     9A     -0.780679
      10A     -0.573294    11A     -0.502495    12A     -0.475440
      13A     -0.430791    14A     -0.397237    15A     -0.376984
      16A     -0.348632    17A     -0.259624    18A     -0.237933
      19A     -0.217075    20A     -0.213059

  @DF-RHF Final Energy:  -302.16113066121392

   => Energetics <=

    Nuclear Repulsion Energy =            169.4129059592829378
    One-Electron Energy =                -760.0217573523041210
    Two-Electron Energy =                 288.4477207318072374
    Total Energy =                       -302.1611306612139174
  Basis Set: (AUG-CC-PVTZ AUX)
    Blend: AUG-CC-PVTZ-RI
    Molecular point group: c1

    Geometry (in Angstrom), charge = -1, multiplicity = 1:

       Center              X                  Y                   Z               Mass
    ------------   -----------------  -----------------  -----------------  -----------------
         O            1.696783026653    -0.585199765391    -0.040147158162    15.994914619570
         O            0.374848026653     1.290316234609    -0.039878158162    15.994914619570
         C            0.607113026653     0.036587234609    -0.039950158162    12.000000000000
         C           -0.690034173347    -0.824648165391     0.210173841838    12.000000000000
         H           -0.681644973347    -1.478731765391     0.845467841838     1.007825032230
         H           -0.681584973347    -1.479405765391    -0.924624158162     1.007825032230
         O           -1.837713973347     0.016345234609    -0.040144158162    15.994914619570
         H           -1.361875973347     0.891323234609    -0.040491158162     1.007825032230

  Basis Set: AUG-CC-PVTZ
    Blend: AUG-CC-PVTZ
  Basis Set: (AUG-CC-PVTZ AUX)
    Blend: AUG-CC-PVTZ-JKFIT
	 Reference Energy          =    -302.1611306612139174 [Eh]
	 Singles Energy            =      -0.0000000000000000 [Eh]
	 Same-Spin Energy          =      -0.2940806529751119 [Eh]
	 Opposite-Spin Energy      =      -0.8674107063954184 [Eh]
	 Correlation Energy        =      -1.1614913593705303 [Eh]
	 Total Energy              =    -303.3226220205844470 [Eh]

	 ================> DF-SCS-MP2 Energies <==================
	-----------------------------------------------------------
	 SCS Same-Spin Scale       =       0.3333333333333333 [-]
	 SCS Opposite-Spin Scale   =       1.2000000000000000 [-]
	 SCS Same-Spin Energy      =      -0.0980268843250373 [Eh]
	 SCS Opposite-Spin Energy  =      -1.0408928476745021 [Eh]
	 SCS Correlation Energy    =      -1.1389197319995394 [Eh]
	 SCS Total Energy          =    -303.3000503932134393 [Eh]
	-----------------------------------------------------------

  Dipole Moment: [D]
     X:    -2.2516      Y:    -1.0795      Z:     0.6514     Total:     2.5805

*** Psi4 exiting successfully. Buy a developer a beer!
