                               Psi4 1.3.2 release

  ==> Input File <==

--------------------------------------------------------------------------
#psi4
#
memory 32 gb

molecule  {
-1 1
  O        1.7314370    -0.5589580    -0.0001560
  O        0.4095020     1.3165580     0.0001130
  C        0.6417670     0.0628290     0.0000410
  C       -0.6554150    -0.7983950     0.0001650
  H       -0.6469910    -1.4524900     0.8854590
  H       -0.6469310    -1.4531640    -0.8846330
  O       -1.8030600     0.0425870    -0.0001530
  H       -1.3272220     0.9175650    -0.0005000
units angstrom
no_reorient  #important for SAPT in psi4, default
symmetry c1  #important for SAPT in psi4, default
}

set PROPERTIES_ORIGIN ["COM"]
properties('MP2/aug-cc-pvtz', properties = ['dipole'])
--------------------------------------------------------------------------

    Molecular point group: c1
  Charge       = -1
  Multiplicity = 1
  Basis Set: AUG-CC-PVTZ
    Blend: AUG-CC-PVTZ
  Basis Set: (AUG-CC-PVTZ AUX)
    Blend: AUG-CC-PVTZ-JKFIT

    Orbital Energies [Eh]
    ---------------------

    Doubly Occupied:

       1A    -20.380016     2A    -20.320497     3A    -20.312887
       4A    -11.155637     5A    -11.106952     6A     -1.202698
       7A     -1.162672     8A     -1.087563     9A     -0.765574
      10A     -0.561090    11A     -0.494562    12A     -0.466619
      13A     -0.441347    14A     -0.395045    15A     -0.370852
      16A     -0.355347    17A     -0.277884    18A     -0.238728
      19A     -0.216461    20A     -0.214447

  @DF-RHF Final Energy:  -302.22723387133544

   => Energetics <=

    Nuclear Repulsion Energy =            169.8336741798958940
    One-Electron Energy =                -761.0680568167896354
    Two-Electron Energy =                 289.0071487655583269
    Total Energy =                       -302.2272338713354429
  Basis Set: (AUG-CC-PVTZ AUX)
    Blend: AUG-CC-PVTZ-RI
    Molecular point group: c1

    Geometry (in Angstrom), charge = -1, multiplicity = 1:

       Center              X                  Y                   Z               Mass
    ------------   -----------------  -----------------  -----------------  -----------------
         O            1.696788594043    -0.585201589191    -0.000151541125    15.994914619570
         O            0.374853594043     1.290314410809     0.000117458875    15.994914619570
         C            0.607118594043     0.036585410809     0.000045458875    12.000000000000
         C           -0.690063405957    -0.824638589191     0.000169458875    12.000000000000
         H           -0.681639405957    -1.478733589191     0.885463458875     1.007825032230
         H           -0.681579405957    -1.479407589191    -0.884628541125     1.007825032230
         O           -1.837708405957     0.016343410809    -0.000148541125    15.994914619570
         H           -1.361870405957     0.891321410809    -0.000495541125     1.007825032230

  Basis Set: AUG-CC-PVTZ
    Blend: AUG-CC-PVTZ
  Basis Set: (AUG-CC-PVTZ AUX)
    Blend: AUG-CC-PVTZ-JKFIT
	 Reference Energy          =    -302.2272338713354429 [Eh]
	 Singles Energy            =      -0.0000000000000000 [Eh]
	 Same-Spin Energy          =      -0.2932962017197631 [Eh]
	 Opposite-Spin Energy      =      -0.8642016962857186 [Eh]
	 Correlation Energy        =      -1.1574978980054818 [Eh]
	 Total Energy              =    -303.3847317693409309 [Eh]

	 ================> DF-SCS-MP2 Energies <==================
	-----------------------------------------------------------
	 SCS Same-Spin Scale       =       0.3333333333333333 [-]
	 SCS Opposite-Spin Scale   =       1.2000000000000000 [-]
	 SCS Same-Spin Energy      =      -0.0977654005732544 [Eh]
	 SCS Opposite-Spin Energy  =      -1.0370420355428622 [Eh]
	 SCS Correlation Energy    =      -1.1348074361161167 [Eh]
	 SCS Total Energy          =    -303.3620413074515341 [Eh]
	-----------------------------------------------------------

  Dipole Moment: [D]
     X:    -2.2812      Y:    -1.2220      Z:     0.0001     Total:     2.5878

*** Psi4 exiting successfully. Buy a developer a beer!
