                               Psi4 1.3.2 release

  ==> Input File <==

--------------------------------------------------------------------------
#psi4
#
memory 32 gb

molecule  {
-1 1
  O        1.7314370    -0.5589580    -0.0001560
  O        0.4095020     1.3165580     0.0001130
  C        0.6417670     0.0628290     0.0000410
  C       -0.6554080    -0.7983973     0.0501650
  H       -0.6469910    -1.4524900     0.8854590
  H       -0.6469310    -1.4531640    -0.8846330
  O       -1.8030600     0.0425870    -0.0001530
  H       -1.3272220     0.9175650    -0.0005000
units angstrom
no_reorient  #important for SAPT in psi4, default
symmetry c1  #important for SAPT in psi4, default
}

set PROPERTIES_ORIGIN ["COM"]
properties('MP2/aug-cc-pvtz', properties = ['dipole'])
--------------------------------------------------------------------------

    Molecular point group: c1
  Charge       = -1
  Multiplicity = 1
  Basis Set: AUG-CC-PVTZ
    Blend: AUG-CC-PVTZ
  Basis Set: (AUG-CC-PVTZ AUX)
    Blend: AUG-CC-PVTZ-JKFIT

    Orbital Energies [Eh]
    ---------------------

    Doubly Occupied:

       1A    -20.380198     2A    -20.320580     3A    -20.312931
       4A    -11.155918     5A    -11.107258     6A     -1.202640
       7A     -1.162623     8A     -1.087629     9A     -0.766167
      10A     -0.561591    11A     -0.495022    12A     -0.467501
      13A     -0.440451    14A     -0.395147    15A     -0.371349
      16A     -0.354809    17A     -0.276973    18A     -0.238730
      19A     -0.216491    20A     -0.214413

  @DF-RHF Final Energy:  -302.22463798795116

   => Energetics <=

    Nuclear Repulsion Energy =            169.8164423231329465
    One-Electron Energy =                -761.0253179909237815
    Two-Electron Energy =                 288.9842376798396799
    Total Energy =                       -302.2246379879511551
  Basis Set: (AUG-CC-PVTZ AUX)
    Blend: AUG-CC-PVTZ-RI
    Molecular point group: c1

    Geometry (in Angstrom), charge = -1, multiplicity = 1:

       Center              X                  Y                   Z               Mass
    ------------   -----------------  -----------------  -----------------  -----------------
         O            1.696787474166    -0.585201221231    -0.008150664532    15.994914619570
         O            0.374852474166     1.290314778769    -0.007881664532    15.994914619570
         C            0.607117474166     0.036585778769    -0.007953664532    12.000000000000
         C           -0.690057525834    -0.824640521231     0.042170335468    12.000000000000
         H           -0.681640525834    -1.478733221231     0.877464335468     1.007825032230
         H           -0.681580525834    -1.479407221231    -0.892627664532     1.007825032230
         O           -1.837709525834     0.016343778769    -0.008147664532    15.994914619570
         H           -1.361871525834     0.891321778769    -0.008494664532     1.007825032230

  Basis Set: AUG-CC-PVTZ
    Blend: AUG-CC-PVTZ
  Basis Set: (AUG-CC-PVTZ AUX)
    Blend: AUG-CC-PVTZ-JKFIT
	 Reference Energy          =    -302.2246379879511551 [Eh]
	 Singles Energy            =      -0.0000000000000000 [Eh]
	 Same-Spin Energy          =      -0.2933268121171316 [Eh]
	 Opposite-Spin Energy      =      -0.8643238174690946 [Eh]
	 Correlation Energy        =      -1.1576506295862261 [Eh]
	 Total Energy              =    -303.3822886175373696 [Eh]

	 ================> DF-SCS-MP2 Energies <==================
	-----------------------------------------------------------
	 SCS Same-Spin Scale       =       0.3333333333333333 [-]
	 SCS Opposite-Spin Scale   =       1.2000000000000000 [-]
	 SCS Same-Spin Energy      =      -0.0977756040390439 [Eh]
	 SCS Opposite-Spin Energy  =      -1.0371885809629136 [Eh]
	 SCS Correlation Energy    =      -1.1349641850019574 [Eh]
	 SCS Total Energy          =    -303.3596021729530889 [Eh]
	-----------------------------------------------------------

  Dipole Moment: [D]
     X:    -2.2800      Y:    -1.2158      Z:     0.1354     Total:     2.5874

*** Psi4 exiting successfully. Buy a developer a beer!
