                               Psi4 1.3.2 release

  ==> Input File <==

--------------------------------------------------------------------------
#psi4
#
memory 32 gb

molecule  {
-1 1
  O        1.7314370    -0.5589580    -0.0001560
  O        0.4095020     1.3165580     0.0001130
  C        0.6417670     0.0628290     0.0000410
  C       -0.6553941    -0.7984018     0.1501650
  H       -0.6469910    -1.4524900     0.8854590
  H       -0.6469310    -1.4531640    -0.8846330
  O       -1.8030600     0.0425870    -0.0001530
  H       -1.3272220     0.9175650    -0.0005000
units angstrom
no_reorient  #important for SAPT in psi4, default
symmetry c1  #important for SAPT in psi4, default
}

set PROPERTIES_ORIGIN ["COM"]
properties('MP2/aug-cc-pvtz', properties = ['dipole'])
--------------------------------------------------------------------------

    Molecular point group: c1
  Charge       = -1
  Multiplicity = 1
  Basis Set: AUG-CC-PVTZ
    Blend: AUG-CC-PVTZ
  Basis Set: (AUG-CC-PVTZ AUX)
    Blend: AUG-CC-PVTZ-JKFIT

    Orbital Energies [Eh]
    ---------------------

    Doubly Occupied:

       1A    -20.381638     2A    -20.321240     3A    -20.313279
       4A    -11.158148     5A    -11.109699     6A     -1.202213
       7A     -1.162237     8A     -1.088157     9A     -0.770948
      10A     -0.565641    11A     -0.498308    12A     -0.471909
      13A     -0.435601    14A     -0.395927    15A     -0.374114
      16A     -0.351788    17A     -0.270219    18A     -0.238665
      19A     -0.216715    20A     -0.214087

  @DF-RHF Final Energy:  -302.20370326929259

   => Energetics <=

    Nuclear Repulsion Energy =            169.6804768168438784
    One-Electron Energy =                -760.6872961163608124
    Two-Electron Energy =                 288.8031160302243165
    Total Energy =                       -302.2037032692925891
  Basis Set: (AUG-CC-PVTZ AUX)
    Blend: AUG-CC-PVTZ-RI
    Molecular point group: c1

    Geometry (in Angstrom), charge = -1, multiplicity = 1:

       Center              X                  Y                   Z               Mass
    ------------   -----------------  -----------------  -----------------  -----------------
         O            1.696785250410    -0.585200501310    -0.024148911347    15.994914619570
         O            0.374850250410     1.290315498690    -0.023879911347    15.994914619570
         C            0.607115250410     0.036586498690    -0.023951911347    12.000000000000
         C           -0.690045849590    -0.824644301310     0.126172088653    12.000000000000
         H           -0.681642749590    -1.478732501310     0.861466088653     1.007825032230
         H           -0.681582749590    -1.479406501310    -0.908625911347     1.007825032230
         O           -1.837711749590     0.016344498690    -0.024145911347    15.994914619570
         H           -1.361873749590     0.891322498690    -0.024492911347     1.007825032230

  Basis Set: AUG-CC-PVTZ
    Blend: AUG-CC-PVTZ
  Basis Set: (AUG-CC-PVTZ AUX)
    Blend: AUG-CC-PVTZ-JKFIT
	 Reference Energy          =    -302.2037032692925891 [Eh]
	 Singles Energy            =      -0.0000000000000000 [Eh]
	 Same-Spin Energy          =      -0.2935746160653580 [Eh]
	 Opposite-Spin Energy      =      -0.8653249614573584 [Eh]
	 Correlation Energy        =      -1.1588995775227164 [Eh]
	 Total Energy              =    -303.3626028468153208 [Eh]

	 ================> DF-SCS-MP2 Energies <==================
	-----------------------------------------------------------
	 SCS Same-Spin Scale       =       0.3333333333333333 [-]
	 SCS Opposite-Spin Scale   =       1.2000000000000000 [-]
	 SCS Same-Spin Energy      =      -0.0978582053551193 [Eh]
	 SCS Opposite-Spin Energy  =      -1.0383899537488299 [Eh]
	 SCS Correlation Energy    =      -1.1362481591039493 [Eh]
	 SCS Total Energy          =    -303.3399514283965459 [Eh]
	-----------------------------------------------------------

  Dipole Moment: [D]
     X:    -2.2706      Y:    -1.1678      Z:     0.4013     Total:     2.5847

*** Psi4 exiting successfully. Buy a developer a beer!
