                               Psi4 1.3.2 release

  ==> Input File <==

--------------------------------------------------------------------------
#psi4
#
memory 32 gb

molecule  {
-1 1
  O        1.7314370    -0.5589580    -0.0001560
  O        0.4095020     1.3165580     0.0001130
  C        0.6417670     0.0628290     0.0000410
  C       -0.6553733    -0.7984086     0.3001650
  H       -0.6469910    -1.4524900     0.8854590
  H       -0.6469310    -1.4531640    -0.8846330
  O       -1.8030600     0.0425870    -0.0001530
  H       -1.3272220     0.9175650    -0.0005000
units angstrom
no_reorient  #important for SAPT in psi4, default
symmetry c1  #important for SAPT in psi4, default
}

set PROPERTIES_ORIGIN ["COM"]
properties('MP2/aug-cc-pvtz', properties = ['dipole'])
--------------------------------------------------------------------------

    Molecular point group: c1
  Charge       = -1
  Multiplicity = 1
  Basis Set: AUG-CC-PVTZ
    Blend: AUG-CC-PVTZ
  Basis Set: (AUG-CC-PVTZ AUX)
    Blend: AUG-CC-PVTZ-JKFIT

    Orbital Energies [Eh]
    ---------------------

    Doubly Occupied:

       1A    -20.386110     2A    -20.323397     3A    -20.314503
       4A    -11.165411     5A    -11.117668     6A     -1.201063
       7A     -1.160712     8A     -1.089885     9A     -0.787373
      10A     -0.577830    11A     -0.503936    12A     -0.476533
      13A     -0.428972    14A     -0.397985    15A     -0.378098
      16A     -0.347349    17A     -0.254674    18A     -0.236765
      19A     -0.217250    20A     -0.211939

  @DF-RHF Final Energy:  -302.13148569804133

   => Energetics <=

    Nuclear Repulsion Energy =            169.2317475049593156
    One-Electron Energy =                -759.5715653167609389
    Two-Electron Energy =                 288.2083321137602638
    Total Energy =                       -302.1314856980413310
  Basis Set: (AUG-CC-PVTZ AUX)
    Blend: AUG-CC-PVTZ-RI
    Molecular point group: c1

    Geometry (in Angstrom), charge = -1, multiplicity = 1:

       Center              X                  Y                   Z               Mass
    ------------   -----------------  -----------------  -----------------  -----------------
         O            1.696781922774    -0.585199413429    -0.048146281569    15.994914619570
         O            0.374846922774     1.290316586571    -0.047877281569    15.994914619570
         C            0.607111922774     0.036587586571    -0.047949281569    12.000000000000
         C           -0.690028377226    -0.824650013429     0.252174718431    12.000000000000
         H           -0.681646077226    -1.478731413429     0.837468718431     1.007825032230
         H           -0.681586077226    -1.479405413429    -0.932623281569     1.007825032230
         O           -1.837715077226     0.016345586571    -0.048143281569    15.994914619570
         H           -1.361877077226     0.891323586571    -0.048490281569     1.007825032230

  Basis Set: AUG-CC-PVTZ
    Blend: AUG-CC-PVTZ
  Basis Set: (AUG-CC-PVTZ AUX)
    Blend: AUG-CC-PVTZ-JKFIT
	 Reference Energy          =    -302.1314856980413310 [Eh]
	 Singles Energy            =      -0.0000000000000000 [Eh]
	 Same-Spin Energy          =      -0.2944362746022201 [Eh]
	 Opposite-Spin Energy      =      -0.8688800804213558 [Eh]
	 Correlation Energy        =      -1.1633163550235759 [Eh]
	 Total Energy              =    -303.2948020530649273 [Eh]

	 ================> DF-SCS-MP2 Energies <==================
	-----------------------------------------------------------
	 SCS Same-Spin Scale       =       0.3333333333333333 [-]
	 SCS Opposite-Spin Scale   =       1.2000000000000000 [-]
	 SCS Same-Spin Energy      =      -0.0981454248674067 [Eh]
	 SCS Opposite-Spin Energy  =      -1.0426560965056269 [Eh]
	 SCS Correlation Energy    =      -1.1408015213730336 [Eh]
	 SCS Total Energy          =    -303.2722872194143520 [Eh]
	-----------------------------------------------------------

  Dipole Moment: [D]
     X:    -2.2380      Y:    -1.0249      Z:     0.7659     Total:     2.5780

*** Psi4 exiting successfully. Buy a developer a beer!
