                               Psi4 1.3.2 release

  ==> Input File <==

--------------------------------------------------------------------------
#psi4
#
memory 32 gb

molecule  {
-1 1
  O        1.7314370    -0.5589580    -0.0001560
  O        0.4095020     1.3165580     0.0001130
  C        0.6417670     0.0628290     0.0000410
  C       -0.6553872    -0.7984041     0.2001650
  H       -0.6469910    -1.4524900     0.8854590
  H       -0.6469310    -1.4531640    -0.8846330
  O       -1.8030600     0.0425870    -0.0001530
  H       -1.3272220     0.9175650    -0.0005000
units angstrom
no_reorient  #important for SAPT in psi4, default
symmetry c1  #important for SAPT in psi4, default
}

set PROPERTIES_ORIGIN ["COM"]
properties('MP2/aug-cc-pvtz', properties = ['dipole'])
--------------------------------------------------------------------------

    Molecular point group: c1
  Charge       = -1
  Multiplicity = 1
  Basis Set: AUG-CC-PVTZ
    Blend: AUG-CC-PVTZ
  Basis Set: (AUG-CC-PVTZ AUX)
    Blend: AUG-CC-PVTZ-JKFIT

    Orbital Energies [Eh]
    ---------------------

    Doubly Occupied:

       1A    -20.382856     2A    -20.321809     3A    -20.313589
       4A    -11.160070     5A    -11.111806     6A     -1.201875
       7A     -1.161876     8A     -1.088613     9A     -0.775189
      10A     -0.569109    11A     -0.500510    12A     -0.473911
      13A     -0.433029    14A     -0.396537    15A     -0.375632
      16A     -0.350126    17A     -0.265099    18A     -0.238463
      19A     -0.216887    20A     -0.213709

  @DF-RHF Final Energy:  -302.18517778101170

   => Energetics <=

    Nuclear Repulsion Energy =            169.5627692707443543
    One-Electron Energy =                -760.3945006884513305
    Two-Electron Energy =                 288.6465536366953302
    Total Energy =                       -302.1851777810117028
  Basis Set: (AUG-CC-PVTZ AUX)
    Blend: AUG-CC-PVTZ-RI
    Molecular point group: c1

    Geometry (in Angstrom), charge = -1, multiplicity = 1:

       Center              X                  Y                   Z               Mass
    ------------   -----------------  -----------------  -----------------  -----------------
         O            1.696784146531    -0.585200133350    -0.032148034755    15.994914619570
         O            0.374849146531     1.290315866650    -0.031879034755    15.994914619570
         C            0.607114146531     0.036586866650    -0.031951034755    12.000000000000
         C           -0.690040053469    -0.824646233350     0.168172965245    12.000000000000
         H           -0.681643853469    -1.478732133350     0.853466965245     1.007825032230
         H           -0.681583853469    -1.479406133350    -0.916625034755     1.007825032230
         O           -1.837712853469     0.016344866650    -0.032145034755    15.994914619570
         H           -1.361874853469     0.891322866650    -0.032492034755     1.007825032230

  Basis Set: AUG-CC-PVTZ
    Blend: AUG-CC-PVTZ
  Basis Set: (AUG-CC-PVTZ AUX)
    Blend: AUG-CC-PVTZ-JKFIT
	 Reference Energy          =    -302.1851777810117028 [Eh]
	 Singles Energy            =      -0.0000000000000000 [Eh]
	 Same-Spin Energy          =      -0.2937943874977842 [Eh]
	 Opposite-Spin Energy      =      -0.8662273972046297 [Eh]
	 Correlation Energy        =      -1.1600217847024139 [Eh]
	 Total Energy              =    -303.3451995657140969 [Eh]

	 ================> DF-SCS-MP2 Energies <==================
	-----------------------------------------------------------
	 SCS Same-Spin Scale       =       0.3333333333333333 [-]
	 SCS Opposite-Spin Scale   =       1.2000000000000000 [-]
	 SCS Same-Spin Energy      =      -0.0979314624992614 [Eh]
	 SCS Opposite-Spin Energy  =      -1.0394728766455557 [Eh]
	 SCS Correlation Energy    =      -1.1374043391448170 [Eh]
	 SCS Total Energy          =    -303.3225821201565395 [Eh]
	-----------------------------------------------------------

  Dipole Moment: [D]
     X:    -2.2624      Y:    -1.1279      Z:     0.5292     Total:     2.5827

*** Psi4 exiting successfully. Buy a developer a beer!
