                               Psi4 1.3.2 release

  ==> Input File <==

--------------------------------------------------------------------------
#psi4
#
memory 32 gb

molecule  {
0 1
  O       -1.3597980    -1.1437690     0.1887320
  O        1.4419330     1.0393260     0.2985870
  O        1.2366830    -1.0978030    -0.4508720
  C       -0.7180600     0.1031850     0.3873850
  C       -1.3431230     1.2084980    -0.4569850
  C        0.6955797    -0.0151287     0.0611495
  H       -0.7373290     0.3987270     1.4472430
  H       -1.2930290     0.9302150    -1.5111840
  H       -0.8256550     2.1573260    -0.3051780
  H       -2.3949050     1.3388590    -0.1830910
  H       -2.2729280    -1.0415480     0.5084360
  H        2.3630120     0.8399890     0.0298380
units angstrom
no_reorient  #important for SAPT in psi4, default
symmetry c1  #important for SAPT in psi4, default
}

set PROPERTIES_ORIGIN ["COM"]
properties('MP2/aug-cc-pvtz', properties = ['dipole'])
--------------------------------------------------------------------------

    Molecular point group: c1
  Charge       = 0
  Multiplicity = 1
  Basis Set: AUG-CC-PVTZ
    Blend: AUG-CC-PVTZ
  Basis Set: (AUG-CC-PVTZ AUX)
    Blend: AUG-CC-PVTZ-JKFIT

    Orbital Energies [Eh]
    ---------------------

    Doubly Occupied:

       1A    -20.635992     2A    -20.578729     3A    -20.536902
       4A    -11.398503     5A    -11.316822     6A    -11.244411
       7A     -1.479222     8A     -1.384483     9A     -1.300752
      10A     -1.073064    11A     -0.937015    12A     -0.826149
      13A     -0.733874    14A     -0.706545    15A     -0.669175
      16A     -0.658868    17A     -0.617907    18A     -0.593040
      19A     -0.568257    20A     -0.554841    21A     -0.515820
      22A     -0.470862    23A     -0.447064    24A     -0.443169

  @DF-RHF Final Energy:  -341.80592659062739

   => Energetics <=

    Nuclear Repulsion Energy =            248.7108400904264727
    One-Electron Energy =                -961.6506026232855220
    Two-Electron Energy =                 371.1338359422316557
    Total Energy =                       -341.8059265906273936
  Basis Set: (AUG-CC-PVTZ AUX)
    Blend: AUG-CC-PVTZ-RI
    Molecular point group: c1

    Geometry (in Angstrom), charge = 0, multiplicity = 1:

       Center              X                  Y                   Z               Mass
    ------------   -----------------  -----------------  -----------------  -----------------
         O           -1.354310199411    -1.154749322622     0.183539210856    15.994914619570
         O            1.447420800589     1.028345677378     0.293394210856    15.994914619570
         O            1.242170800589    -1.108783322622    -0.456064789144    15.994914619570
         C           -0.712572199411     0.092204677378     0.382192210856    12.000000000000
         C           -1.337635199411     1.197517677378    -0.462177789144    12.000000000000
         C            0.701067500589    -0.026109022622     0.055956710856    12.000000000000
         H           -0.731841199411     0.387746677378     1.442050210856     1.007825032230
         H           -1.287541199411     0.919234677378    -1.516376789144     1.007825032230
         H           -0.820167199411     2.146345677378    -0.310370789144     1.007825032230
         H           -2.389417199411     1.327878677378    -0.188283789144     1.007825032230
         H           -2.267440199411    -1.052528322622     0.503243210856     1.007825032230
         H            2.368499800589     0.829008677378     0.024645210856     1.007825032230

  Basis Set: AUG-CC-PVTZ
    Blend: AUG-CC-PVTZ
  Basis Set: (AUG-CC-PVTZ AUX)
    Blend: AUG-CC-PVTZ-JKFIT
	 Reference Energy          =    -341.8059265906273936 [Eh]
	 Singles Energy            =      -0.0000000000000000 [Eh]
	 Same-Spin Energy          =      -0.3291536702603974 [Eh]
	 Opposite-Spin Energy      =      -1.0164851428501667 [Eh]
	 Correlation Energy        =      -1.3456388131105641 [Eh]
	 Total Energy              =    -343.1515654037379477 [Eh]

	 ================> DF-SCS-MP2 Energies <==================
	-----------------------------------------------------------
	 SCS Same-Spin Scale       =       0.3333333333333333 [-]
	 SCS Opposite-Spin Scale   =       1.2000000000000000 [-]
	 SCS Same-Spin Energy      =      -0.1097178900867991 [Eh]
	 SCS Opposite-Spin Energy  =      -1.2197821714202000 [Eh]
	 SCS Correlation Energy    =      -1.3295000615069992 [Eh]
	 SCS Total Energy          =    -343.1354266521344130 [Eh]
	-----------------------------------------------------------

  Dipole Moment: [D]
     X:    -1.4628      Y:     3.3108      Z:     1.2852     Total:     3.8410

*** Psi4 exiting successfully. Buy a developer a beer!
