                               Psi4 1.3.2 release

  ==> Input File <==

--------------------------------------------------------------------------
#psi4
#
memory 32 gb

molecule  {
0 1
  O       -1.3597980    -1.1437690     0.1887320
  O        1.4419330     1.0393260     0.2985870
  O        1.2366830    -1.0978030    -0.4508720
  C       -0.7180600     0.1031850     0.3873850
  C       -1.3431230     1.2084980    -0.4569850
  C        0.7567496    -0.1077123     0.0141582
  H       -0.7373290     0.3987270     1.4472430
  H       -1.2930290     0.9302150    -1.5111840
  H       -0.8256550     2.1573260    -0.3051780
  H       -2.3949050     1.3388590    -0.1830910
  H       -2.2729280    -1.0415480     0.5084360
  H        2.3580633     0.8243390     0.0250296
units angstrom
no_reorient  #important for SAPT in psi4, default
symmetry c1  #important for SAPT in psi4, default
}

set PROPERTIES_ORIGIN ["COM"]
properties('MP2/aug-cc-pvtz', properties = ['dipole'])
--------------------------------------------------------------------------

    Molecular point group: c1
  Charge       = 0
  Multiplicity = 1
  Basis Set: AUG-CC-PVTZ
    Blend: AUG-CC-PVTZ
  Basis Set: (AUG-CC-PVTZ AUX)
    Blend: AUG-CC-PVTZ-JKFIT

    Orbital Energies [Eh]
    ---------------------

    Doubly Occupied:

       1A    -20.619737     2A    -20.573698     3A    -20.557638
       4A    -11.388431     5A    -11.312063     6A    -11.237306
       7A     -1.468595     8A     -1.381685     9A     -1.366286
      10A     -1.050629    11A     -0.916401    12A     -0.799646
      13A     -0.729440    14A     -0.709022    15A     -0.664325
      16A     -0.650551    17A     -0.615247    18A     -0.603479
      19A     -0.563941    20A     -0.558719    21A     -0.522224
      22A     -0.492006    23A     -0.461901    24A     -0.449550

  @DF-RHF Final Energy:  -341.82980015837848

   => Energetics <=

    Nuclear Repulsion Energy =            248.7441704316008497
    One-Electron Energy =                -961.7628979843839261
    Two-Electron Energy =                 371.1889273944045726
    Total Energy =                       -341.8298001583784753
  Basis Set: (AUG-CC-PVTZ AUX)
    Blend: AUG-CC-PVTZ-RI
    Molecular point group: c1

    Geometry (in Angstrom), charge = 0, multiplicity = 1:

       Center              X                  Y                   Z               Mass
    ------------   -----------------  -----------------  -----------------  -----------------
         O           -1.362407918597    -1.142234000394     0.189856337640    15.994914619570
         O            1.439323081403     1.040860999606     0.299711337640    15.994914619570
         O            1.234073081403    -1.096268000394    -0.449747662360    15.994914619570
         C           -0.720669918597     0.104719999606     0.388509337640    12.000000000000
         C           -1.345732918597     1.210032999606    -0.455860662360    12.000000000000
         C            0.754139681403    -0.106177300394     0.015282537640    12.000000000000
         H           -0.739938918597     0.400261999606     1.448367337640     1.007825032230
         H           -1.295638918597     0.931749999606    -1.510059662360     1.007825032230
         H           -0.828264918597     2.158860999606    -0.304053662360     1.007825032230
         H           -2.397514918597     1.340393999606    -0.181966662360     1.007825032230
         H           -2.275537918597    -1.040013000394     0.509560337640     1.007825032230
         H            2.355453381403     0.825873999606     0.026153937640     1.007825032230

  Basis Set: AUG-CC-PVTZ
    Blend: AUG-CC-PVTZ
  Basis Set: (AUG-CC-PVTZ AUX)
    Blend: AUG-CC-PVTZ-JKFIT
	 Reference Energy          =    -341.8298001583784753 [Eh]
	 Singles Energy            =      -0.0000000000000000 [Eh]
	 Same-Spin Energy          =      -0.3264511743811346 [Eh]
	 Opposite-Spin Energy      =      -1.0117001422713616 [Eh]
	 Correlation Energy        =      -1.3381513166524961 [Eh]
	 Total Energy              =    -343.1679514750309750 [Eh]

	 ================> DF-SCS-MP2 Energies <==================
	-----------------------------------------------------------
	 SCS Same-Spin Scale       =       0.3333333333333333 [-]
	 SCS Opposite-Spin Scale   =       1.2000000000000000 [-]
	 SCS Same-Spin Energy      =      -0.1088170581270449 [Eh]
	 SCS Opposite-Spin Energy  =      -1.2140401707256339 [Eh]
	 SCS Correlation Energy    =      -1.3228572288526788 [Eh]
	 SCS Total Energy          =    -343.1526573872311587 [Eh]
	-----------------------------------------------------------

  Dipole Moment: [D]
     X:    -1.2202      Y:     2.6167      Z:     1.0155     Total:     3.0606

*** Psi4 exiting successfully. Buy a developer a beer!
