                               Psi4 1.3.2 release

  ==> Input File <==

--------------------------------------------------------------------------
#psi4
#
memory 32 gb

molecule  {
0 1
  O       -1.3597980    -1.1437690     0.1887320
  O        1.4419330     1.0393260     0.2985870
  O        1.2366830    -1.0978030    -0.4508720
  C       -0.6972908     0.0937721     0.3778381
  C       -1.3431230     1.2084980    -0.4569850
  C        0.7367530    -0.0975110     0.0221890
  H       -0.7373290     0.3987270     1.4472430
  H       -1.2930290     0.9302150    -1.5111840
  H       -0.8256550     2.1573260    -0.3051780
  H       -2.3949050     1.3388590    -0.1830910
  H       -2.2760501    -1.0576999     0.5042321
  H        2.3630120     0.8399890     0.0298380
units angstrom
no_reorient  #important for SAPT in psi4, default
symmetry c1  #important for SAPT in psi4, default
}

set PROPERTIES_ORIGIN ["COM"]
properties('MP2/aug-cc-pvtz', properties = ['dipole'])
--------------------------------------------------------------------------

    Molecular point group: c1
  Charge       = 0
  Multiplicity = 1
  Basis Set: AUG-CC-PVTZ
    Blend: AUG-CC-PVTZ
  Basis Set: (AUG-CC-PVTZ AUX)
    Blend: AUG-CC-PVTZ-JKFIT

    Orbital Energies [Eh]
    ---------------------

    Doubly Occupied:

       1A    -20.620101     2A    -20.573956     3A    -20.554916
       4A    -11.390477     5A    -11.313732     6A    -11.239615
       7A     -1.464171     8A     -1.380604     9A     -1.356915
      10A     -1.056358    11A     -0.924842    12A     -0.803125
      13A     -0.729826    14A     -0.704928    15A     -0.664817
      16A     -0.651945    17A     -0.612467    18A     -0.603809
      19A     -0.562817    20A     -0.559417    21A     -0.519925
      22A     -0.485717    23A     -0.459747    24A     -0.453719

  @DF-RHF Final Energy:  -341.82843074292555

   => Energetics <=

    Nuclear Repulsion Energy =            248.9209061128231042
    One-Electron Energy =                -962.1227828847520414
    Two-Electron Energy =                 371.3734460290033894
    Total Energy =                       -341.8284307429255477
  Basis Set: (AUG-CC-PVTZ AUX)
    Blend: AUG-CC-PVTZ-RI
    Molecular point group: c1

    Geometry (in Angstrom), charge = 0, multiplicity = 1:

       Center              X                  Y                   Z               Mass
    ------------   -----------------  -----------------  -----------------  -----------------
         O           -1.362531342835    -1.142333465063     0.190051646302    15.994914619570
         O            1.439199657165     1.040761534937     0.299906646302    15.994914619570
         O            1.233949657165    -1.096367465063    -0.449552353698    15.994914619570
         C           -0.700024142835     0.095207634937     0.379157746302    12.000000000000
         C           -1.345856342835     1.209933534937    -0.455665353698    12.000000000000
         C            0.734019657165    -0.096075465063     0.023508646302    12.000000000000
         H           -0.740062342835     0.400162534937     1.448562646302     1.007825032230
         H           -1.295762342835     0.931650534937    -1.509864353698     1.007825032230
         H           -0.828388342835     2.158761534937    -0.303858353698     1.007825032230
         H           -2.397638342835     1.340294534937    -0.181771353698     1.007825032230
         H           -2.278783442835    -1.056264365063     0.505551746302     1.007825032230
         H            2.360278657165     0.841424534937     0.031157646302     1.007825032230

  Basis Set: AUG-CC-PVTZ
    Blend: AUG-CC-PVTZ
  Basis Set: (AUG-CC-PVTZ AUX)
    Blend: AUG-CC-PVTZ-JKFIT
	 Reference Energy          =    -341.8284307429255477 [Eh]
	 Singles Energy            =      -0.0000000000000000 [Eh]
	 Same-Spin Energy          =      -0.3268530253203349 [Eh]
	 Opposite-Spin Energy      =      -1.0124444421064842 [Eh]
	 Correlation Energy        =      -1.3392974674268192 [Eh]
	 Total Energy              =    -343.1677282103523794 [Eh]

	 ================> DF-SCS-MP2 Energies <==================
	-----------------------------------------------------------
	 SCS Same-Spin Scale       =       0.3333333333333333 [-]
	 SCS Opposite-Spin Scale   =       1.2000000000000000 [-]
	 SCS Same-Spin Energy      =      -0.1089510084401116 [Eh]
	 SCS Opposite-Spin Energy  =      -1.2149333305277810 [Eh]
	 SCS Correlation Energy    =      -1.3238843389678925 [Eh]
	 SCS Total Energy          =    -343.1523150818934482 [Eh]
	-----------------------------------------------------------

  Dipole Moment: [D]
     X:    -1.3247      Y:     2.6953      Z:     1.0555     Total:     3.1834

*** Psi4 exiting successfully. Buy a developer a beer!
