                               Psi4 1.3.2 release

  ==> Input File <==

--------------------------------------------------------------------------
#psi4
#
memory 32 gb

molecule  {
0 1
  O       -1.3164891    -1.1627859     0.1743471
  O        1.4419330     1.0393260     0.2985870
  O        1.2366830    -1.0978030    -0.4508720
  C       -0.7180600     0.1031850     0.3873850
  C       -1.3431230     1.2084980    -0.4569850
  C        0.7259968    -0.1479780     0.0108948
  H       -0.7373290     0.3987270     1.4472430
  H       -1.2930290     0.9302150    -1.5111840
  H       -0.8256550     2.1573260    -0.3051780
  H       -2.3949050     1.3388590    -0.1830910
  H       -2.2729280    -1.0415480     0.5084360
  H        2.3630120     0.8399890     0.0298380
units angstrom
no_reorient  #important for SAPT in psi4, default
symmetry c1  #important for SAPT in psi4, default
}

set PROPERTIES_ORIGIN ["COM"]
properties('MP2/aug-cc-pvtz', properties = ['dipole'])
--------------------------------------------------------------------------

    Molecular point group: c1
  Charge       = 0
  Multiplicity = 1
  Basis Set: AUG-CC-PVTZ
    Blend: AUG-CC-PVTZ
  Basis Set: (AUG-CC-PVTZ AUX)
    Blend: AUG-CC-PVTZ-JKFIT

    Orbital Energies [Eh]
    ---------------------

    Doubly Occupied:

       1A    -20.603391     2A    -20.581304     3A    -20.563399
       4A    -11.386019     5A    -11.313181     6A    -11.239402
       7A     -1.462774     8A     -1.374287     9A     -1.363044
      10A     -1.051609    11A     -0.918456    12A     -0.784098
      13A     -0.732604    14A     -0.702833    15A     -0.659789
      16A     -0.642730    17A     -0.611717    18A     -0.597289
      19A     -0.565799    20A     -0.560822    21A     -0.526175
      22A     -0.494690    23A     -0.464581    24A     -0.452196

  @DF-RHF Final Energy:  -341.82091515253887

   => Energetics <=

    Nuclear Repulsion Energy =            248.9635240579093534
    One-Electron Energy =                -962.2645049165264481
    Two-Electron Energy =                 371.4800657060782214
    Total Energy =                       -341.8209151525388734
  Basis Set: (AUG-CC-PVTZ AUX)
    Blend: AUG-CC-PVTZ-RI
    Molecular point group: c1

    Geometry (in Angstrom), charge = 0, multiplicity = 1:

       Center              X                  Y                   Z               Mass
    ------------   -----------------  -----------------  -----------------  -----------------
         O           -1.322749688341    -1.152680700331     0.178408181463    15.994914619570
         O            1.435672411659     1.049431199669     0.302648081463    15.994914619570
         O            1.230422411659    -1.087697800331    -0.446810918537    15.994914619570
         C           -0.724320588341     0.113290199669     0.391446081463    12.000000000000
         C           -1.349383588341     1.218603199669    -0.452923918537    12.000000000000
         C            0.719736211659    -0.137872800331     0.014955881463    12.000000000000
         H           -0.743589588341     0.408832199669     1.451304081463     1.007825032230
         H           -1.299289588341     0.940320199669    -1.507122918537     1.007825032230
         H           -0.831915588341     2.167431199669    -0.301116918537     1.007825032230
         H           -2.401165588341     1.348964199669    -0.179029918537     1.007825032230
         H           -2.279188588341    -1.031442800331     0.512497081463     1.007825032230
         H            2.356751411659     0.850094199669     0.033899081463     1.007825032230

  Basis Set: AUG-CC-PVTZ
    Blend: AUG-CC-PVTZ
  Basis Set: (AUG-CC-PVTZ AUX)
    Blend: AUG-CC-PVTZ-JKFIT
	 Reference Energy          =    -341.8209151525388734 [Eh]
	 Singles Energy            =      -0.0000000000000000 [Eh]
	 Same-Spin Energy          =      -0.3271447714165489 [Eh]
	 Opposite-Spin Energy      =      -1.0138144801352791 [Eh]
	 Correlation Energy        =      -1.3409592515518280 [Eh]
	 Total Energy              =    -343.1618744040907245 [Eh]

	 ================> DF-SCS-MP2 Energies <==================
	-----------------------------------------------------------
	 SCS Same-Spin Scale       =       0.3333333333333333 [-]
	 SCS Opposite-Spin Scale   =       1.2000000000000000 [-]
	 SCS Same-Spin Energy      =      -0.1090482571388496 [Eh]
	 SCS Opposite-Spin Energy  =      -1.2165773761623349 [Eh]
	 SCS Correlation Energy    =      -1.3256256333011844 [Eh]
	 SCS Total Energy          =    -343.1465407858400454 [Eh]
	-----------------------------------------------------------

  Dipole Moment: [D]
     X:    -1.5129      Y:     2.3205      Z:     0.9439     Total:     2.9265

*** Psi4 exiting successfully. Buy a developer a beer!
