                               Psi4 1.4a3.dev225

  ==> Input File <==

--------------------------------------------------------------------------
#psi4
#
memory 32 gb

molecule  {
0 1
  O        1.3501930    -1.1356630    -0.2433140
  O       -1.5558540     0.8884770    -0.3921630
  O       -1.2169910    -1.1507310     0.5497490
  C        0.6871333     0.0525177    -0.3881719
  C        1.2396040     1.1907030     0.5015680
  C       -0.7811570    -0.1720460    -0.0200300
  H        0.6688980     0.4337360    -1.4405180
  H        1.2084250     0.8592770     1.5425200
  H        0.6765780     2.1206880     0.3977210
  H        2.2819130     1.3850820     0.2293300
  H        2.2793940    -0.9684070    -0.4767370
  H       -2.4621080     0.6654070    -0.0949290
units angstrom
no_reorient  #important for SAPT in psi4, default
symmetry c1  #important for SAPT in psi4, default
}

set PROPERTIES_ORIGIN ["COM"]
properties('MP2/aug-cc-pvtz', properties = ['dipole'])
--------------------------------------------------------------------------

    Molecular point group: c1
  Charge       = 0
  Multiplicity = 1
  Basis Set: AUG-CC-PVTZ
    Blend: AUG-CC-PVTZ
  Basis Set: (AUG-CC-PVTZ AUX)
    Blend: AUG-CC-PVTZ-JKFIT

    Orbital Energies [Eh]
    ---------------------

    Doubly Occupied:

       1A    -20.619042     2A    -20.580950     3A    -20.552297
       4A    -11.388464     5A    -11.314869     6A    -11.239670
       7A     -1.462249     8A     -1.401300     9A     -1.357129
      10A     -1.047984    11A     -0.918289    12A     -0.805571
      13A     -0.731546    14A     -0.702597    15A     -0.669394
      16A     -0.656173    17A     -0.619292    18A     -0.604001
      19A     -0.565219    20A     -0.555549    21A     -0.525942
      22A     -0.484429    23A     -0.457053    24A     -0.446093

  @DF-RHF Final Energy:  -341.82812340979183

   => Energetics <=

    Nuclear Repulsion Energy =            248.7552475441351874
    One-Electron Energy =                -961.7565358014686581
    Two-Electron Energy =                 371.1731648475416705
    Total Energy =                       -341.8281234097918286
  Basis Set: (AUG-CC-PVTZ AUX)
    Blend: AUG-CC-PVTZ-RI
    Molecular point group: c1

    Geometry (in Angstrom), charge = 0, multiplicity = 1:

       Center              X                  Y                   Z               Mass
    ------------   -----------------  -----------------  -----------------  -----------------
         O            1.398161918739    -1.080410190800    -0.242289913059    15.994914619570
         O           -1.507885081261     0.943729809200    -0.391138913059    15.994914619570
         O           -1.169022081261    -1.095478190800     0.550773086941    15.994914619570
         C            0.735102218739     0.107770509200    -0.387147813059    12.000000000000
         C            1.287572918739     1.245955809200     0.502592086941    12.000000000000
         C           -0.733188081261    -0.116793190800    -0.019005913059    12.000000000000
         H            0.716866918739     0.488988809200    -1.439493913059     1.007825032230
         H            1.256393918739     0.914529809200     1.543544086941     1.007825032230
         H            0.724546918739     2.175940809200     0.398745086941     1.007825032230
         H            2.329881918739     1.440334809200     0.230354086941     1.007825032230
         H            2.327362918739    -0.913154190800    -0.475712913059     1.007825032230
         H           -2.414139081261     0.720659809200    -0.093904913059     1.007825032230

  Basis Set: AUG-CC-PVTZ
    Blend: AUG-CC-PVTZ
  Basis Set: (AUG-CC-PVTZ AUX)
    Blend: AUG-CC-PVTZ-JKFIT
	 Reference Energy          =    -341.8281234097918286 [Eh]
	 Singles Energy            =      -0.0000000000000000 [Eh]
	 Same-Spin Energy          =      -0.3266142621000229 [Eh]
	 Opposite-Spin Energy      =      -1.0115090860884073 [Eh]
	 Correlation Energy        =      -1.3381233481884300 [Eh]
	 Total Energy              =    -343.1662467579802751 [Eh]

	 ================> DF-SCS-MP2 Energies <==================
	-----------------------------------------------------------
	 SCS Same-Spin Scale       =       0.3333333333333333 [-]
	 SCS Opposite-Spin Scale   =       1.2000000000000000 [-]
	 SCS Same-Spin Energy      =      -0.1088714207000076 [Eh]
	 SCS Opposite-Spin Energy  =      -1.2138109033060887 [Eh]
	 SCS Correlation Energy    =      -1.3226823240060963 [Eh]
	 SCS Total Energy          =    -343.1508057337979380 [Eh]
	-----------------------------------------------------------

  Dipole Moment: [D]
     X:     1.3237      Y:     2.6370      Z:    -0.9658     Total:     3.1047

*** Psi4 exiting successfully. Buy a developer a beer!
