                               Psi4 1.4a3.dev225

  ==> Input File <==

--------------------------------------------------------------------------
#psi4
#
memory 32 gb

molecule  {
0 1
  O        1.3501930    -1.1356630    -0.2433140
  O       -1.5558540     0.8884770    -0.3921630
  O       -1.2169910    -1.1507310     0.5497490
  C        0.6629050     0.0959340    -0.3934650
  C        1.2396040     1.1907030     0.5015680
  C       -0.7811570    -0.1720460    -0.0200300
  H        0.6691704     0.4490877    -1.4881022
  H        1.2084250     0.8592770     1.5425200
  H        0.6765780     2.1206880     0.3977210
  H        2.2819130     1.3850820     0.2293300
  H        2.2793940    -0.9684070    -0.4767370
  H       -2.4621080     0.6654070    -0.0949290
units angstrom
no_reorient  #important for SAPT in psi4, default
symmetry c1  #important for SAPT in psi4, default
}

set PROPERTIES_ORIGIN ["COM"]
properties('MP2/aug-cc-pvtz', properties = ['dipole'])
--------------------------------------------------------------------------

    Molecular point group: c1
  Charge       = 0
  Multiplicity = 1
  Basis Set: AUG-CC-PVTZ
    Blend: AUG-CC-PVTZ
  Basis Set: (AUG-CC-PVTZ AUX)
    Blend: AUG-CC-PVTZ-JKFIT

    Orbital Energies [Eh]
    ---------------------

    Doubly Occupied:

       1A    -20.619305     2A    -20.576341     3A    -20.554892
       4A    -11.390726     5A    -11.319562     6A    -11.241398
       7A     -1.463446     8A     -1.381553     9A     -1.357199
      10A     -1.053998    11A     -0.921440    12A     -0.800896
      13A     -0.724552    14A     -0.702533    15A     -0.660213
      16A     -0.654435    17A     -0.616954    18A     -0.602125
      19A     -0.563039    20A     -0.557698    21A     -0.522350
      22A     -0.485387    23A     -0.461899    24A     -0.450737

  @DF-RHF Final Energy:  -341.82696759795380

   => Energetics <=

    Nuclear Repulsion Energy =            248.3323133338939499
    One-Electron Energy =                -960.9532054101509857
    Two-Electron Energy =                 370.7939244783032677
    Total Energy =                       -341.8269675979537965
  Basis Set: (AUG-CC-PVTZ AUX)
    Blend: AUG-CC-PVTZ-RI
    Molecular point group: c1

    Geometry (in Angstrom), charge = 0, multiplicity = 1:

       Center              X                  Y                   Z               Mass
    ------------   -----------------  -----------------  -----------------  -----------------
         O            1.401388172243    -1.086368841620    -0.241051751886    15.994914619570
         O           -1.504658827757     0.937771158380    -0.389900751886    15.994914619570
         O           -1.165795827757    -1.101436841620     0.552011248114    15.994914619570
         C            0.714100172243     0.145228158380    -0.391202751886    12.000000000000
         C            1.290799172243     1.239997158380     0.503830248114    12.000000000000
         C           -0.729961827757    -0.122751841620    -0.017767751886    12.000000000000
         H            0.720365572243     0.498381858380    -1.485839951886     1.007825032230
         H            1.259620172243     0.908571158380     1.544782248114     1.007825032230
         H            0.727773172243     2.169982158380     0.399983248114     1.007825032230
         H            2.333108172243     1.434376158380     0.231592248114     1.007825032230
         H            2.330589172243    -0.919112841620    -0.474474751886     1.007825032230
         H           -2.410912827757     0.714701158380    -0.092666751886     1.007825032230

  Basis Set: AUG-CC-PVTZ
    Blend: AUG-CC-PVTZ
  Basis Set: (AUG-CC-PVTZ AUX)
    Blend: AUG-CC-PVTZ-JKFIT
	 Reference Energy          =    -341.8269675979537965 [Eh]
	 Singles Energy            =      -0.0000000000000000 [Eh]
	 Same-Spin Energy          =      -0.3268800227378040 [Eh]
	 Opposite-Spin Energy      =      -1.0128972842951569 [Eh]
	 Correlation Energy        =      -1.3397773070329611 [Eh]
	 Total Energy              =    -343.1667449049867855 [Eh]

	 ================> DF-SCS-MP2 Energies <==================
	-----------------------------------------------------------
	 SCS Same-Spin Scale       =       0.3333333333333333 [-]
	 SCS Opposite-Spin Scale   =       1.2000000000000000 [-]
	 SCS Same-Spin Energy      =      -0.1089600075792680 [Eh]
	 SCS Opposite-Spin Energy  =      -1.2154767411541882 [Eh]
	 SCS Correlation Energy    =      -1.3244367487334563 [Eh]
	 SCS Total Energy          =    -343.1514043466872295 [Eh]
	-----------------------------------------------------------

  Dipole Moment: [D]
     X:     1.2224      Y:     2.7781      Z:    -0.9310     Total:     3.1747

*** Psi4 exiting successfully. Buy a developer a beer!
