                               Psi4 1.3.2 release

  ==> Input File <==

--------------------------------------------------------------------------
#psi4
#
memory 32 gb

molecule  {
0 1
  O       -1.3675018    -1.1384566     0.1806569
  O        1.4419330     1.0393260     0.2985870
  O        1.2366830    -1.0978030    -0.4508720
  C       -0.7180600     0.1031850     0.3873850
  C       -1.3518071     1.1997185    -0.4619442
  C        0.7367530    -0.0975110     0.0221890
  H       -0.7373290     0.3987270     1.4472430
  H       -1.2930290     0.9302150    -1.5111840
  H       -0.8256550     2.1573260    -0.3051780
  H       -2.3949050     1.3388590    -0.1830910
  H       -2.2729280    -1.0415480     0.5084360
  H        2.3630120     0.8399890     0.0298380
units angstrom
no_reorient  #important for SAPT in psi4, default
symmetry c1  #important for SAPT in psi4, default
}

set PROPERTIES_ORIGIN ["COM"]
properties('MP2/aug-cc-pvtz', properties = ['dipole'])
--------------------------------------------------------------------------

    Molecular point group: c1
  Charge       = 0
  Multiplicity = 1
  Basis Set: AUG-CC-PVTZ
    Blend: AUG-CC-PVTZ
  Basis Set: (AUG-CC-PVTZ AUX)
    Blend: AUG-CC-PVTZ-JKFIT

    Orbital Energies [Eh]
    ---------------------

    Doubly Occupied:

       1A    -20.619899     2A    -20.574038     3A    -20.555101
       4A    -11.390877     5A    -11.313587     6A    -11.238571
       7A     -1.463424     8A     -1.382302     9A     -1.357183
      10A     -1.055523    11A     -0.921857    12A     -0.803083
      13A     -0.731880    14A     -0.704936    15A     -0.663545
      16A     -0.650542    17A     -0.612812    18A     -0.602951
      19A     -0.566293    20A     -0.558575    21A     -0.520561
      22A     -0.485529    23A     -0.462957    24A     -0.451753

  @DF-RHF Final Energy:  -341.82907950031523

   => Energetics <=

    Nuclear Repulsion Energy =            248.7082518989774371
    One-Electron Energy =                -961.6991056385428465
    Two-Electron Energy =                 371.1617742392501782
    Total Energy =                       -341.8290795003152311
  Basis Set: (AUG-CC-PVTZ AUX)
    Blend: AUG-CC-PVTZ-RI
    Molecular point group: c1

    Geometry (in Angstrom), charge = 0, multiplicity = 1:

       Center              X                  Y                   Z               Mass
    ------------   -----------------  -----------------  -----------------  -----------------
         O           -1.364975720609    -1.138230089004     0.182752621218    15.994914619570
         O            1.444459079391     1.039552510996     0.300682721218    15.994914619570
         O            1.239209079391    -1.097576489004    -0.448776278782    15.994914619570
         C           -0.715533920609     0.103411510996     0.389480721218    12.000000000000
         C           -1.349281020609     1.199945010996    -0.459848478782    12.000000000000
         C            0.739279079391    -0.097284489004     0.024284721218    12.000000000000
         H           -0.734802920609     0.398953510996     1.449338721218     1.007825032230
         H           -1.290502920609     0.930441510996    -1.509088278782     1.007825032230
         H           -0.823128920609     2.157552510996    -0.303082278782     1.007825032230
         H           -2.392378920609     1.339085510996    -0.180995278782     1.007825032230
         H           -2.270401920609    -1.041321489004     0.510531721218     1.007825032230
         H            2.365538079391     0.840215510996     0.031933721218     1.007825032230

  Basis Set: AUG-CC-PVTZ
    Blend: AUG-CC-PVTZ
  Basis Set: (AUG-CC-PVTZ AUX)
    Blend: AUG-CC-PVTZ-JKFIT
	 Reference Energy          =    -341.8290795003152311 [Eh]
	 Singles Energy            =      -0.0000000000000000 [Eh]
	 Same-Spin Energy          =      -0.3267885503844596 [Eh]
	 Opposite-Spin Energy      =      -1.0123576038303452 [Eh]
	 Correlation Energy        =      -1.3391461542148049 [Eh]
	 Total Energy              =    -343.1682256545300334 [Eh]

	 ================> DF-SCS-MP2 Energies <==================
	-----------------------------------------------------------
	 SCS Same-Spin Scale       =       0.3333333333333333 [-]
	 SCS Opposite-Spin Scale   =       1.2000000000000000 [-]
	 SCS Same-Spin Energy      =      -0.1089295167948199 [Eh]
	 SCS Opposite-Spin Energy  =      -1.2148291245964142 [Eh]
	 SCS Correlation Energy    =      -1.3237586413912341 [Eh]
	 SCS Total Energy          =    -343.1528381417064679 [Eh]
	-----------------------------------------------------------

  Dipole Moment: [D]
     X:    -1.2987      Y:     2.7021      Z:     1.0803     Total:     3.1867

*** Psi4 exiting successfully. Buy a developer a beer!
