                               Psi4 1.3.2 release

  ==> Input File <==

--------------------------------------------------------------------------
#psi4
#
memory 32 gb

molecule  {
0 1
  O       -1.3597980    -1.1437690     0.1887320
  O        1.4419330     1.0393260     0.2985870
  O        1.2461216    -1.0929886    -0.4509587
  C       -0.7152964     0.1154546     0.3914125
  C       -1.3431230     1.2084980    -0.4569850
  C        0.7367530    -0.0975110     0.0221890
  H       -0.7373290     0.3987270     1.4472430
  H       -1.2930290     0.9302150    -1.5111840
  H       -0.8256550     2.1573260    -0.3051780
  H       -2.3949050     1.3388590    -0.1830910
  H       -2.2729280    -1.0415480     0.5084360
  H        2.3630120     0.8399890     0.0298380
units angstrom
no_reorient  #important for SAPT in psi4, default
symmetry c1  #important for SAPT in psi4, default
}

set PROPERTIES_ORIGIN ["COM"]
properties('MP2/aug-cc-pvtz', properties = ['dipole'])
--------------------------------------------------------------------------

    Molecular point group: c1
  Charge       = 0
  Multiplicity = 1
  Basis Set: AUG-CC-PVTZ
    Blend: AUG-CC-PVTZ
  Basis Set: (AUG-CC-PVTZ AUX)
    Blend: AUG-CC-PVTZ-JKFIT

    Orbital Energies [Eh]
    ---------------------

    Doubly Occupied:

       1A    -20.618901     2A    -20.574241     3A    -20.555245
       4A    -11.390929     5A    -11.313882     6A    -11.239522
       7A     -1.463436     8A     -1.377468     9A     -1.355965
      10A     -1.057789    11A     -0.922316    12A     -0.802066
      13A     -0.731273    14A     -0.704878    15A     -0.660647
      16A     -0.649941    17A     -0.613417    18A     -0.601996
      19A     -0.565692    20A     -0.558024    21A     -0.521760
      22A     -0.485095    23A     -0.465426    24A     -0.452171

  @DF-RHF Final Energy:  -341.82848629122532

   => Energetics <=

    Nuclear Repulsion Energy =            248.5878314543818419
    One-Electron Energy =                -961.4684748451082896
    Two-Electron Energy =                 371.0521570995010734
    Total Energy =                       -341.8284862912253175
  Basis Set: (AUG-CC-PVTZ AUX)
    Blend: AUG-CC-PVTZ-RI
    Molecular point group: c1

    Geometry (in Angstrom), charge = 0, multiplicity = 1:

       Center              X                  Y                   Z               Mass
    ------------   -----------------  -----------------  -----------------  -----------------
         O           -1.361843239951    -1.146259573639     0.188210707528    15.994914619570
         O            1.439887760049     1.036835426361     0.298065707528    15.994914619570
         O            1.244076360049    -1.095479173639    -0.451479992472    15.994914619570
         C           -0.717341639951     0.112964026361     0.390891207528    12.000000000000
         C           -1.345168239951     1.206007426361    -0.457506292472    12.000000000000
         C            0.734707760049    -0.100001573639     0.021667707528    12.000000000000
         H           -0.739374239951     0.396236426361     1.446721707528     1.007825032230
         H           -1.295074239951     0.927724426361    -1.511705292472     1.007825032230
         H           -0.827700239951     2.154835426361    -0.305699292472     1.007825032230
         H           -2.396950239951     1.336368426361    -0.183612292472     1.007825032230
         H           -2.274973239951    -1.044038573639     0.507914707528     1.007825032230
         H            2.360966760049     0.837498426361     0.029316707528     1.007825032230

  Basis Set: AUG-CC-PVTZ
    Blend: AUG-CC-PVTZ
  Basis Set: (AUG-CC-PVTZ AUX)
    Blend: AUG-CC-PVTZ-JKFIT
	 Reference Energy          =    -341.8284862912253175 [Eh]
	 Singles Energy            =      -0.0000000000000000 [Eh]
	 Same-Spin Energy          =      -0.3269122589913546 [Eh]
	 Opposite-Spin Energy      =      -1.0127921852850310 [Eh]
	 Correlation Energy        =      -1.3397044442763857 [Eh]
	 Total Energy              =    -343.1681907355016961 [Eh]

	 ================> DF-SCS-MP2 Energies <==================
	-----------------------------------------------------------
	 SCS Same-Spin Scale       =       0.3333333333333333 [-]
	 SCS Opposite-Spin Scale   =       1.2000000000000000 [-]
	 SCS Same-Spin Energy      =      -0.1089707529971182 [Eh]
	 SCS Opposite-Spin Energy  =      -1.2153506223420372 [Eh]
	 SCS Correlation Energy    =      -1.3243213753391554 [Eh]
	 SCS Total Energy          =    -343.1528076665644562 [Eh]
	-----------------------------------------------------------

  Dipole Moment: [D]
     X:    -1.3202      Y:     2.7449      Z:     1.0624     Total:     3.2259

*** Psi4 exiting successfully. Buy a developer a beer!
