                               Psi4 1.3.2 release

  ==> Input File <==

--------------------------------------------------------------------------
#psi4
#
memory 32 gb

molecule  {
0 1
  O       -1.3597980    -1.1437690     0.1887320
  O        1.4419330     1.0393260     0.2985870
  O        1.2366830    -1.0978030    -0.4508720
  C       -0.7180600     0.1031850     0.3873850
  C       -1.3431230     1.2084980    -0.4569850
  C        0.7367530    -0.0975110     0.0221890
  H       -0.7373290     0.3987270     1.4472430
  H       -1.2930290     0.9302150    -1.5111840
  H       -0.8256550     2.1573260    -0.3051780
  H       -2.3949050     1.3388590    -0.1830910
  H       -2.0852082    -1.0625624     0.4427118
  H        2.3630120     0.8399890     0.0298380
units angstrom
no_reorient  #important for SAPT in psi4, default
symmetry c1  #important for SAPT in psi4, default
}

set PROPERTIES_ORIGIN ["COM"]
properties('MP2/aug-cc-pvtz', properties = ['dipole'])
--------------------------------------------------------------------------

    Molecular point group: c1
  Charge       = 0
  Multiplicity = 1
  Basis Set: AUG-CC-PVTZ
    Blend: AUG-CC-PVTZ
  Basis Set: (AUG-CC-PVTZ AUX)
    Blend: AUG-CC-PVTZ-JKFIT

    Orbital Energies [Eh]
    ---------------------

    Doubly Occupied:

       1A    -20.620683     2A    -20.555797     3A    -20.553599
       4A    -11.391666     5A    -11.316219     6A    -11.240710
       7A     -1.466129     8A     -1.437479     9A     -1.360431
      10A     -1.069161    11A     -0.927752    12A     -0.820653
      13A     -0.747567    14A     -0.706251    15A     -0.676641
      16A     -0.657811    17A     -0.617544    18A     -0.605805
      19A     -0.571322    20A     -0.559750    21A     -0.529131
      22A     -0.486611    23A     -0.469519    24A     -0.452919

  @DF-RHF Final Energy:  -341.78275720829191

   => Energetics <=

    Nuclear Repulsion Energy =            250.1719110893258460
    One-Electron Energy =                -964.2270360865240946
    Two-Electron Energy =                 372.2723677889063651
    Total Energy =                       -341.7827572082919119
  Basis Set: (AUG-CC-PVTZ AUX)
    Blend: AUG-CC-PVTZ-RI
    Molecular point group: c1

    Geometry (in Angstrom), charge = 0, multiplicity = 1:

       Center              X                  Y                   Z               Mass
    ------------   -----------------  -----------------  -----------------  -----------------
         O           -1.361899396979    -1.143533645199     0.189467839653    15.994914619570
         O            1.439831603021     1.039561354801     0.299322839653    15.994914619570
         O            1.234581603021    -1.097567645199    -0.450136160347    15.994914619570
         C           -0.720161396979     0.103420354801     0.388120839653    12.000000000000
         C           -1.345224396979     1.208733354801    -0.456249160347    12.000000000000
         C            0.734651603021    -0.097275645199     0.022924839653    12.000000000000
         H           -0.739430396979     0.398962354801     1.447978839653     1.007825032230
         H           -1.295130396979     0.930450354801    -1.510448160347     1.007825032230
         H           -0.827756396979     2.157561354801    -0.304442160347     1.007825032230
         H           -2.397006396979     1.339094354801    -0.182355160347     1.007825032230
         H           -2.087309596979    -1.062327045199     0.443447639653     1.007825032230
         H            2.360910603021     0.840224354801     0.030573839653     1.007825032230

  Basis Set: AUG-CC-PVTZ
    Blend: AUG-CC-PVTZ
  Basis Set: (AUG-CC-PVTZ AUX)
    Blend: AUG-CC-PVTZ-JKFIT
	 Reference Energy          =    -341.7827572082919119 [Eh]
	 Singles Energy            =      -0.0000000000000000 [Eh]
	 Same-Spin Energy          =      -0.3245988480150733 [Eh]
	 Opposite-Spin Energy      =      -1.0070689505291521 [Eh]
	 Correlation Energy        =      -1.3316677985442253 [Eh]
	 Total Energy              =    -343.1144250068361430 [Eh]

	 ================> DF-SCS-MP2 Energies <==================
	-----------------------------------------------------------
	 SCS Same-Spin Scale       =       0.3333333333333333 [-]
	 SCS Opposite-Spin Scale   =       1.2000000000000000 [-]
	 SCS Same-Spin Energy      =      -0.1081996160050244 [Eh]
	 SCS Opposite-Spin Energy  =      -1.2084827406349825 [Eh]
	 SCS Correlation Energy    =      -1.3166823566400070 [Eh]
	 SCS Total Energy          =    -343.0994395649319131 [Eh]
	-----------------------------------------------------------

  Dipole Moment: [D]
     X:    -1.1415      Y:     2.7749      Z:     1.0081     Total:     3.1654

*** Psi4 exiting successfully. Buy a developer a beer!
