                               Psi4 1.3.2 release

  ==> Input File <==

--------------------------------------------------------------------------
#psi4
#
memory 32 gb

molecule  {
0 1
  O       -1.3597980    -1.1437690     0.1887320
  O        1.4419330     1.0393260     0.2985870
  O        1.2366830    -1.0978030    -0.4508720
  C       -0.7180600     0.1031850     0.3873850
  C       -1.3431230     1.2084980    -0.4569850
  C        0.7367530    -0.0975110     0.0221890
  H       -0.7373290     0.3987270     1.4472430
  H       -1.2930290     0.9302150    -1.5111840
  H       -0.8256550     2.1573260    -0.3051780
  H       -2.3949050     1.3388590    -0.1830910
  H       -2.2729280    -1.0415480     0.5084360
  H        2.5509924     0.7993069    -0.0250102
units angstrom
no_reorient  #important for SAPT in psi4, default
symmetry c1  #important for SAPT in psi4, default
}

set PROPERTIES_ORIGIN ["COM"]
properties('MP2/aug-cc-pvtz', properties = ['dipole'])
--------------------------------------------------------------------------

    Molecular point group: c1
  Charge       = 0
  Multiplicity = 1
  Basis Set: AUG-CC-PVTZ
    Blend: AUG-CC-PVTZ
  Basis Set: (AUG-CC-PVTZ AUX)
    Blend: AUG-CC-PVTZ-JKFIT

    Orbital Energies [Eh]
    ---------------------

    Doubly Occupied:

       1A    -20.627967     2A    -20.574097     3A    -20.551141
       4A    -11.386816     5A    -11.312611     6A    -11.237753
       7A     -1.443600     8A     -1.377290     9A     -1.342152
      10A     -1.051154    11A     -0.913297    12A     -0.777363
      13A     -0.727158    14A     -0.690406    15A     -0.656296
      16A     -0.645618    17A     -0.606611    18A     -0.587703
      19A     -0.563519    20A     -0.552860    21A     -0.518848
      22A     -0.479840    23A     -0.462133    24A     -0.447978

  @DF-RHF Final Energy:  -341.79393601595746

   => Energetics <=

    Nuclear Repulsion Energy =            247.6539667591870852
    One-Electron Energy =                -959.8273874377293851
    Two-Electron Energy =                 370.3794846625847867
    Total Energy =                       -341.7939360159574562
  Basis Set: (AUG-CC-PVTZ AUX)
    Blend: AUG-CC-PVTZ-RI
    Molecular point group: c1

    Geometry (in Angstrom), charge = 0, multiplicity = 1:

       Center              X                  Y                   Z               Mass
    ------------   -----------------  -----------------  -----------------  -----------------
         O           -1.361902314165    -1.143313482726     0.189346092471    15.994914619570
         O            1.439828685835     1.039781517274     0.299201092471    15.994914619570
         O            1.234578685835    -1.097347482726    -0.450257907529    15.994914619570
         C           -0.720164314165     0.103640517274     0.387999092471    12.000000000000
         C           -1.345227314165     1.208953517274    -0.456370907529    12.000000000000
         C            0.734648685835    -0.097055482726     0.022803092471    12.000000000000
         H           -0.739433314165     0.399182517274     1.447857092471     1.007825032230
         H           -1.295133314165     0.930670517274    -1.510569907529     1.007825032230
         H           -0.827759314165     2.157781517274    -0.304563907529     1.007825032230
         H           -2.397009314165     1.339314517274    -0.182476907529     1.007825032230
         H           -2.275032314165    -1.041092482726     0.509050092471     1.007825032230
         H            2.548888085835     0.799762417274    -0.024396107529     1.007825032230

  Basis Set: AUG-CC-PVTZ
    Blend: AUG-CC-PVTZ
  Basis Set: (AUG-CC-PVTZ AUX)
    Blend: AUG-CC-PVTZ-JKFIT
	 Reference Energy          =    -341.7939360159574562 [Eh]
	 Singles Energy            =      -0.0000000000000000 [Eh]
	 Same-Spin Energy          =      -0.3293981457652182 [Eh]
	 Opposite-Spin Energy      =      -1.0190224202279479 [Eh]
	 Correlation Energy        =      -1.3484205659931661 [Eh]
	 Total Energy              =    -343.1423565819505939 [Eh]

	 ================> DF-SCS-MP2 Energies <==================
	-----------------------------------------------------------
	 SCS Same-Spin Scale       =       0.3333333333333333 [-]
	 SCS Opposite-Spin Scale   =       1.2000000000000000 [-]
	 SCS Same-Spin Energy      =      -0.1097993819217394 [Eh]
	 SCS Opposite-Spin Energy  =      -1.2228269042735374 [Eh]
	 SCS Correlation Energy    =      -1.3326262861952767 [Eh]
	 SCS Total Energy          =    -343.1265623021527063 [Eh]
	-----------------------------------------------------------

  Dipole Moment: [D]
     X:    -1.0816      Y:     2.7086      Z:     1.0099     Total:     3.0864

*** Psi4 exiting successfully. Buy a developer a beer!
