                               Psi4 1.3.2 release

  ==> Input File <==

--------------------------------------------------------------------------
#psi4
#
memory 32 gb

molecule  {
0 1
  O       -1.3597980    -1.1437690     0.1887320
  O        1.4419330     1.0393260     0.2985870
  O        1.2176922    -1.1072029    -0.4505905
  C       -0.7232546     0.0786008     0.3792469
  C       -1.3431230     1.2084980    -0.4569850
  C        0.7367530    -0.0975110     0.0221890
  H       -0.7373290     0.3987270     1.4472430
  H       -1.2930290     0.9302150    -1.5111840
  H       -0.8256550     2.1573260    -0.3051780
  H       -2.3949050     1.3388590    -0.1830910
  H       -2.2729280    -1.0415480     0.5084360
  H        2.3630120     0.8399890     0.0298380
units angstrom
no_reorient  #important for SAPT in psi4, default
symmetry c1  #important for SAPT in psi4, default
}

set PROPERTIES_ORIGIN ["COM"]
properties('MP2/aug-cc-pvtz', properties = ['dipole'])
--------------------------------------------------------------------------

    Molecular point group: c1
  Charge       = 0
  Multiplicity = 1
  Basis Set: AUG-CC-PVTZ
    Blend: AUG-CC-PVTZ
  Basis Set: (AUG-CC-PVTZ AUX)
    Blend: AUG-CC-PVTZ-JKFIT

    Orbital Energies [Eh]
    ---------------------

    Doubly Occupied:

       1A    -20.621289     2A    -20.576960     3A    -20.553961
       4A    -11.389672     5A    -11.312919     6A    -11.238058
       7A     -1.462946     8A     -1.390754     9A     -1.358282
      10A     -1.051570    11A     -0.920089    12A     -0.804289
      13A     -0.730931    14A     -0.704885    15A     -0.667425
      16A     -0.652131    17A     -0.614724    18A     -0.603931
      19A     -0.564433    20A     -0.557899    21A     -0.522353
      22A     -0.485742    23A     -0.458568    24A     -0.449244

  @DF-RHF Final Energy:  -341.82863410221904

   => Energetics <=

    Nuclear Repulsion Energy =            248.9584464002370794
    One-Electron Energy =                -962.1880500436125203
    Two-Electron Energy =                 371.4009695411563712
    Total Energy =                       -341.8286341022190413
  Basis Set: (AUG-CC-PVTZ AUX)
    Blend: AUG-CC-PVTZ-RI
    Molecular point group: c1

    Geometry (in Angstrom), charge = 0, multiplicity = 1:

       Center              X                  Y                   Z               Mass
    ------------   -----------------  -----------------  -----------------  -----------------
         O           -1.355731789628    -1.138822169268     0.189766802566    15.994914619570
         O            1.445999210372     1.044272830732     0.299621802566    15.994914619570
         O            1.221758410372    -1.102256069268    -0.449555697434    15.994914619570
         C           -0.719188389628     0.083547630732     0.380281702566    12.000000000000
         C           -1.339056789628     1.213444830732    -0.455950197434    12.000000000000
         C            0.740819210372    -0.092564169268     0.023223802566    12.000000000000
         H           -0.733262789628     0.403673830732     1.448277802566     1.007825032230
         H           -1.288962789628     0.935161830732    -1.510149197434     1.007825032230
         H           -0.821588789628     2.162272830732    -0.304143197434     1.007825032230
         H           -2.390838789628     1.343805830732    -0.182056197434     1.007825032230
         H           -2.268861789628    -1.036601169268     0.509470802566     1.007825032230
         H            2.367078210372     0.844935830732     0.030872802566     1.007825032230

  Basis Set: AUG-CC-PVTZ
    Blend: AUG-CC-PVTZ
  Basis Set: (AUG-CC-PVTZ AUX)
    Blend: AUG-CC-PVTZ-JKFIT
	 Reference Energy          =    -341.8286341022190413 [Eh]
	 Singles Energy            =      -0.0000000000000000 [Eh]
	 Same-Spin Energy          =      -0.3268326299564503 [Eh]
	 Opposite-Spin Energy      =      -1.0121325674910981 [Eh]
	 Correlation Energy        =      -1.3389651974475485 [Eh]
	 Total Energy              =    -343.1675992996665627 [Eh]

	 ================> DF-SCS-MP2 Energies <==================
	-----------------------------------------------------------
	 SCS Same-Spin Scale       =       0.3333333333333333 [-]
	 SCS Opposite-Spin Scale   =       1.2000000000000000 [-]
	 SCS Same-Spin Energy      =      -0.1089442099854834 [Eh]
	 SCS Opposite-Spin Energy  =      -1.2145590809893176 [Eh]
	 SCS Correlation Energy    =      -1.3235032909748010 [Eh]
	 SCS Total Energy          =    -343.1521373931938683 [Eh]
	-----------------------------------------------------------

  Dipole Moment: [D]
     X:    -1.3062      Y:     2.6513      Z:     1.0544     Total:     3.1381

*** Psi4 exiting successfully. Buy a developer a beer!
