                               Psi4 1.3.2 release

  ==> Input File <==

--------------------------------------------------------------------------
#psi4
#
memory 32 gb

molecule  {
0 1
  O       -1.3597980    -1.1437690     0.1887320
  O        1.4419330     1.0393260     0.2985870
  O        1.2366830    -1.0978030    -0.4508720
  C       -0.7180600     0.1031850     0.3873850
  C       -1.3431230     1.2084980    -0.4569850
  C        0.6544063     0.0672535     0.1001099
  H       -0.7373290     0.3987270     1.4472430
  H       -1.2930290     0.9302150    -1.5111840
  H       -0.8256550     2.1573260    -0.3051780
  H       -2.3949050     1.3388590    -0.1830910
  H       -2.2729280    -1.0415480     0.5084360
  H        2.3630120     0.8399890     0.0298380
units angstrom
no_reorient  #important for SAPT in psi4, default
symmetry c1  #important for SAPT in psi4, default
}

set PROPERTIES_ORIGIN ["COM"]
properties('MP2/aug-cc-pvtz', properties = ['dipole'])
--------------------------------------------------------------------------

    Molecular point group: c1
  Charge       = 0
  Multiplicity = 1
  Basis Set: AUG-CC-PVTZ
    Blend: AUG-CC-PVTZ
  Basis Set: (AUG-CC-PVTZ AUX)
    Blend: AUG-CC-PVTZ-JKFIT

    Orbital Energies [Eh]
    ---------------------

    Doubly Occupied:

       1A    -20.650740     2A    -20.582288     3A    -20.517561
       4A    -11.403913     5A    -11.319940     6A    -11.250157
       7A     -1.505333     8A     -1.387464     9A     -1.244591
      10A     -1.091845    11A     -0.950309    12A     -0.852171
      13A     -0.737931    14A     -0.715102    15A     -0.684627
      16A     -0.668667    17A     -0.626971    18A     -0.583865
      19A     -0.570957    20A     -0.549325    21A     -0.498492
      22A     -0.474833    23A     -0.424639    24A     -0.414988

  @DF-RHF Final Energy:  -341.76000911522925

   => Energetics <=

    Nuclear Repulsion Energy =            248.8882718029117882
    One-Electron Energy =                -961.8831411047707434
    Two-Electron Energy =                 371.2348601866296463
    Total Energy =                       -341.7600091152292521
  Basis Set: (AUG-CC-PVTZ AUX)
    Blend: AUG-CC-PVTZ-RI
    Molecular point group: c1

    Geometry (in Angstrom), charge = 0, multiplicity = 1:

       Center              X                  Y                   Z               Mass
    ------------   -----------------  -----------------  -----------------  -----------------
         O           -1.348822345326    -1.165729749131     0.178346319565    15.994914619570
         O            1.452908654674     1.017365250869     0.288201319565    15.994914619570
         O            1.247658654674    -1.119763749131    -0.461257680435    15.994914619570
         C           -0.707084345326     0.081224250869     0.376999319565    12.000000000000
         C           -1.332147345326     1.186537250869    -0.467370680435    12.000000000000
         C            0.665381954674     0.045292750869     0.089724219565    12.000000000000
         H           -0.726353345326     0.376766250869     1.436857319565     1.007825032230
         H           -1.282053345326     0.908254250869    -1.521569680435     1.007825032230
         H           -0.814679345326     2.135365250869    -0.315563680435     1.007825032230
         H           -2.383929345326     1.316898250869    -0.193476680435     1.007825032230
         H           -2.261952345326    -1.063508749131     0.498050319565     1.007825032230
         H            2.373987654674     0.818028250869     0.019452319565     1.007825032230

  Basis Set: AUG-CC-PVTZ
    Blend: AUG-CC-PVTZ
  Basis Set: (AUG-CC-PVTZ AUX)
    Blend: AUG-CC-PVTZ-JKFIT
	 Reference Energy          =    -341.7600091152292521 [Eh]
	 Singles Energy            =      -0.0000000000000000 [Eh]
	 Same-Spin Energy          =      -0.3316277546876393 [Eh]
	 Opposite-Spin Energy      =      -1.0206351191688272 [Eh]
	 Correlation Energy        =      -1.3522628738564666 [Eh]
	 Total Energy              =    -343.1122719890857411 [Eh]

	 ================> DF-SCS-MP2 Energies <==================
	-----------------------------------------------------------
	 SCS Same-Spin Scale       =       0.3333333333333333 [-]
	 SCS Opposite-Spin Scale   =       1.2000000000000000 [-]
	 SCS Same-Spin Energy      =      -0.1105425848958798 [Eh]
	 SCS Opposite-Spin Energy  =      -1.2247621430025926 [Eh]
	 SCS Correlation Energy    =      -1.3353047278984724 [Eh]
	 SCS Total Energy          =    -343.0953138431277125 [Eh]
	-----------------------------------------------------------

  Dipole Moment: [D]
     X:    -1.6146      Y:     3.8536      Z:     1.4882     Total:     4.4353

*** Psi4 exiting successfully. Buy a developer a beer!
