                               Psi4 1.4a3.dev225

  ==> Input File <==

--------------------------------------------------------------------------
#psi4
#
memory 32 gb

molecule  {
0 1
  O        1.3501930    -1.1356630    -0.2433140
  O       -1.5558540     0.8884770    -0.3921630
  O       -1.2169910    -1.1507310     0.5497490
  C        0.6725963     0.0785675    -0.3913477
  C        1.2396040     1.1907030     0.5015680
  C       -0.7811570    -0.1720460    -0.0200300
  H        0.6688980     0.4337360    -1.4405180
  H        1.2084250     0.8592770     1.5425200
  H        0.6765780     2.1206880     0.3977210
  H        2.2819130     1.3850820     0.2293300
  H        2.2793940    -0.9684070    -0.4767370
  H       -2.4621080     0.6654070    -0.0949290
units angstrom
no_reorient  #important for SAPT in psi4, default
symmetry c1  #important for SAPT in psi4, default
}

set PROPERTIES_ORIGIN ["COM"]
properties('MP2/aug-cc-pvtz', properties = ['dipole'])
--------------------------------------------------------------------------

    Molecular point group: c1
  Charge       = 0
  Multiplicity = 1
  Basis Set: AUG-CC-PVTZ
    Blend: AUG-CC-PVTZ
  Basis Set: (AUG-CC-PVTZ AUX)
    Blend: AUG-CC-PVTZ-JKFIT

    Orbital Energies [Eh]
    ---------------------

    Doubly Occupied:

       1A    -20.619288     2A    -20.577611     3A    -20.553675
       4A    -11.389540     5A    -11.314109     6A    -11.240416
       7A     -1.462923     8A     -1.388664     9A     -1.357279
      10A     -1.052608    11A     -0.920528    12A     -0.803601
      13A     -0.730605    14A     -0.703000    15A     -0.663668
      16A     -0.655093    17A     -0.618166    18A     -0.602723
      19A     -0.563721    20A     -0.556683    21A     -0.524979
      22A     -0.484943    23A     -0.461423    24A     -0.449186

  @DF-RHF Final Energy:  -341.82947587873093

   => Energetics <=

    Nuclear Repulsion Energy =            248.6491735523608213
    One-Electron Energy =                -961.5684361822035271
    Two-Electron Energy =                 371.0897867511117738
    Total Energy =                       -341.8294758787309320
  Basis Set: (AUG-CC-PVTZ AUX)
    Blend: AUG-CC-PVTZ-RI
    Molecular point group: c1

    Geometry (in Angstrom), charge = 0, multiplicity = 1:

       Center              X                  Y                   Z               Mass
    ------------   -----------------  -----------------  -----------------  -----------------
         O            1.400099503073    -1.083882274751    -0.241866622123    15.994914619570
         O           -1.505947496927     0.940257725249    -0.390715622123    15.994914619570
         O           -1.167084496927    -1.098950274751     0.551196377877    15.994914619570
         C            0.722502803073     0.130348225249    -0.389900322123    12.000000000000
         C            1.289510503073     1.242483725249     0.503015377877    12.000000000000
         C           -0.731250496927    -0.120265274751    -0.018582622123    12.000000000000
         H            0.718804503073     0.485516725249    -1.439070622123     1.007825032230
         H            1.258331503073     0.911057725249     1.543967377877     1.007825032230
         H            0.726484503073     2.172468725249     0.399168377877     1.007825032230
         H            2.331819503073     1.436862725249     0.230777377877     1.007825032230
         H            2.329300503073    -0.916626274751    -0.475289622123     1.007825032230
         H           -2.412201496927     0.717187725249    -0.093481622123     1.007825032230

  Basis Set: AUG-CC-PVTZ
    Blend: AUG-CC-PVTZ
  Basis Set: (AUG-CC-PVTZ AUX)
    Blend: AUG-CC-PVTZ-JKFIT
	 Reference Energy          =    -341.8294758787309320 [Eh]
	 Singles Energy            =      -0.0000000000000000 [Eh]
	 Same-Spin Energy          =      -0.3266996174735171 [Eh]
	 Opposite-Spin Energy      =      -1.0120481369643135 [Eh]
	 Correlation Energy        =      -1.3387477544378306 [Eh]
	 Total Energy              =    -343.1682236331687363 [Eh]

	 ================> DF-SCS-MP2 Energies <==================
	-----------------------------------------------------------
	 SCS Same-Spin Scale       =       0.3333333333333333 [-]
	 SCS Opposite-Spin Scale   =       1.2000000000000000 [-]
	 SCS Same-Spin Energy      =      -0.1088998724911724 [Eh]
	 SCS Opposite-Spin Energy  =      -1.2144577643571761 [Eh]
	 SCS Correlation Energy    =      -1.3233576368483484 [Eh]
	 SCS Total Energy          =    -343.1528335155792888 [Eh]
	-----------------------------------------------------------

  Dipole Moment: [D]
     X:     1.2569      Y:     2.7334      Z:    -0.9615     Total:     3.1584

*** Psi4 exiting successfully. Buy a developer a beer!
