                               Psi4 1.3.2 release

  ==> Input File <==

--------------------------------------------------------------------------
#psi4
#
memory 32 gb

molecule  {
0 1
  O       -1.3597980    -1.1437690     0.1887320
  O        1.4419330     1.0393260     0.2985870
  O        1.2366830    -1.0978030    -0.4508720
  C       -0.7081953     0.0759380     0.3427374
  C       -1.3431230     1.2084980    -0.4569850
  C        0.7367530    -0.0975110     0.0221890
  H       -0.7373290     0.3987270     1.4472430
  H       -1.2758984     0.8977143    -1.5011022
  H       -0.8256550     2.1573260    -0.3051780
  H       -2.3949050     1.3388590    -0.1830910
  H       -2.2729280    -1.0415480     0.5084360
  H        2.3630120     0.8399890     0.0298380
units angstrom
no_reorient  #important for SAPT in psi4, default
symmetry c1  #important for SAPT in psi4, default
}

set PROPERTIES_ORIGIN ["COM"]
properties('MP2/aug-cc-pvtz', properties = ['dipole'])
--------------------------------------------------------------------------

    Molecular point group: c1
  Charge       = 0
  Multiplicity = 1
  Basis Set: AUG-CC-PVTZ
    Blend: AUG-CC-PVTZ
  Basis Set: (AUG-CC-PVTZ AUX)
    Blend: AUG-CC-PVTZ-JKFIT

    Orbital Energies [Eh]
    ---------------------

    Doubly Occupied:

       1A    -20.620216     2A    -20.577194     3A    -20.554028
       4A    -11.389839     5A    -11.314897     6A    -11.239155
       7A     -1.464008     8A     -1.390818     9A     -1.357804
      10A     -1.056802    11A     -0.924379    12A     -0.803546
      13A     -0.726763    14A     -0.704515    15A     -0.670070
      16A     -0.655650    17A     -0.615143    18A     -0.605781
      19A     -0.562670    20A     -0.561081    21A     -0.521337
      22A     -0.485713    23A     -0.457053    24A     -0.449272

  @DF-RHF Final Energy:  -341.82600228574051

   => Energetics <=

    Nuclear Repulsion Energy =            249.3291898227239471
    One-Electron Energy =                -962.8949127931248313
    Two-Electron Energy =                 371.7397206846603694
    Total Energy =                       -341.8260022857405147
  Basis Set: (AUG-CC-PVTZ AUX)
    Blend: AUG-CC-PVTZ-RI
    Molecular point group: c1

    Geometry (in Angstrom), charge = 0, multiplicity = 1:

       Center              X                  Y                   Z               Mass
    ------------   -----------------  -----------------  -----------------  -----------------
         O           -1.361304632362    -1.139773411825     0.194570176340    15.994914619570
         O            1.440426367638     1.043321588175     0.304425176340    15.994914619570
         O            1.235176367638    -1.093807411825    -0.445033823660    15.994914619570
         C           -0.709701932362     0.079933588175     0.348575576340    12.000000000000
         C           -1.344629632362     1.212493588175    -0.451146823660    12.000000000000
         C            0.735246367638    -0.093515411825     0.028027176340    12.000000000000
         H           -0.738835632362     0.402722588175     1.453081176340     1.007825032230
         H           -1.277405032362     0.901709888175    -1.495264023660     1.007825032230
         H           -0.827161632362     2.161321588175    -0.299339823660     1.007825032230
         H           -2.396411632362     1.342854588175    -0.177252823660     1.007825032230
         H           -2.274434632362    -1.037552411825     0.514274176340     1.007825032230
         H            2.361505367638     0.843984588175     0.035676176340     1.007825032230

  Basis Set: AUG-CC-PVTZ
    Blend: AUG-CC-PVTZ
  Basis Set: (AUG-CC-PVTZ AUX)
    Blend: AUG-CC-PVTZ-JKFIT
	 Reference Energy          =    -341.8260022857405147 [Eh]
	 Singles Energy            =      -0.0000000000000000 [Eh]
	 Same-Spin Energy          =      -0.3269809188213535 [Eh]
	 Opposite-Spin Energy      =      -1.0122723408924357 [Eh]
	 Correlation Energy        =      -1.3392532597137892 [Eh]
	 Total Energy              =    -343.1652555454543290 [Eh]

	 ================> DF-SCS-MP2 Energies <==================
	-----------------------------------------------------------
	 SCS Same-Spin Scale       =       0.3333333333333333 [-]
	 SCS Opposite-Spin Scale   =       1.2000000000000000 [-]
	 SCS Same-Spin Energy      =      -0.1089936396071178 [Eh]
	 SCS Opposite-Spin Energy  =      -1.2147268090709227 [Eh]
	 SCS Correlation Energy    =      -1.3237204486780405 [Eh]
	 SCS Total Energy          =    -343.1497227344185603 [Eh]
	-----------------------------------------------------------

  Dipole Moment: [D]
     X:    -1.3750      Y:     2.6530      Z:     1.0127     Total:     3.1551

*** Psi4 exiting successfully. Buy a developer a beer!
