                               Psi4 1.3.2 release

  ==> Input File <==

--------------------------------------------------------------------------
#psi4
#
memory 32 gb

molecule  {
0 1
  O       -1.3597980    -1.1437690     0.1887320
  O        1.4419330     1.0393260     0.2985870
  O        1.2366830    -1.0978030    -0.4508720
  C       -0.7180600     0.1031850     0.3873850
  C       -1.3431230     1.2084980    -0.4569850
  C        0.5444849    -0.0709870     0.0704533
  H       -0.7373290     0.3987270     1.4472430
  H       -1.2930290     0.9302150    -1.5111840
  H       -0.8256550     2.1573260    -0.3051780
  H       -2.3949050     1.3388590    -0.1830910
  H       -2.2729280    -1.0415480     0.5084360
  H        2.3630120     0.8399890     0.0298380
units angstrom
no_reorient  #important for SAPT in psi4, default
symmetry c1  #important for SAPT in psi4, default
}

set PROPERTIES_ORIGIN ["COM"]
properties('MP2/aug-cc-pvtz', properties = ['dipole'])
--------------------------------------------------------------------------

    Molecular point group: c1
  Charge       = 0
  Multiplicity = 1
  Basis Set: AUG-CC-PVTZ
    Blend: AUG-CC-PVTZ
  Basis Set: (AUG-CC-PVTZ AUX)
    Blend: AUG-CC-PVTZ-JKFIT

    Orbital Energies [Eh]
    ---------------------

    Doubly Occupied:

       1A    -20.603326     2A    -20.589778     3A    -20.546229
       4A    -11.407097     5A    -11.318705     6A    -11.256868
       7A     -1.421656     8A     -1.390494     9A     -1.283361
      10A     -1.114054    11A     -0.963054    12A     -0.795386
      13A     -0.757375    14A     -0.676793    15A     -0.667247
      16A     -0.660007    17A     -0.599855    18A     -0.580589
      19A     -0.575922    20A     -0.555232    21A     -0.531188
      22A     -0.482932    23A     -0.442656    24A     -0.441555

  @DF-RHF Final Energy:  -341.74903009488190

   => Energetics <=

    Nuclear Repulsion Energy =            249.1188787906833113
    One-Electron Energy =                -962.4131004502478390
    Two-Electron Energy =                 371.5451915646826251
    Total Energy =                       -341.7490300948819026
  Basis Set: (AUG-CC-PVTZ AUX)
    Blend: AUG-CC-PVTZ-RI
    Molecular point group: c1

    Geometry (in Angstrom), charge = 0, multiplicity = 1:

       Center              X                  Y                   Z               Mass
    ------------   -----------------  -----------------  -----------------  -----------------
         O           -1.334171318108    -1.147304171144     0.182299140888    15.994914619570
         O            1.467559681892     1.035790828856     0.292154140888    15.994914619570
         O            1.262309681892    -1.101338171144    -0.457304859112    15.994914619570
         C           -0.692433318108     0.099649828856     0.380952140888    12.000000000000
         C           -1.317496318108     1.204962828856    -0.463417859112    12.000000000000
         C            0.570111581892    -0.074522171144     0.064020440888    12.000000000000
         H           -0.711702318108     0.395191828856     1.440810140888     1.007825032230
         H           -1.267402318108     0.926679828856    -1.517616859112     1.007825032230
         H           -0.800028318108     2.153790828856    -0.311610859112     1.007825032230
         H           -2.369278318108     1.335323828856    -0.189523859112     1.007825032230
         H           -2.247301318108    -1.045083171144     0.502003140888     1.007825032230
         H            2.388638681892     0.836453828856     0.023405140888     1.007825032230

  Basis Set: AUG-CC-PVTZ
    Blend: AUG-CC-PVTZ
  Basis Set: (AUG-CC-PVTZ AUX)
    Blend: AUG-CC-PVTZ-JKFIT
	 Reference Energy          =    -341.7490300948819026 [Eh]
	 Singles Energy            =      -0.0000000000000000 [Eh]
	 Same-Spin Energy          =      -0.3328689495326633 [Eh]
	 Opposite-Spin Energy      =      -1.0246049800369401 [Eh]
	 Correlation Energy        =      -1.3574739295696034 [Eh]
	 Total Energy              =    -343.1065040244515103 [Eh]

	 ================> DF-SCS-MP2 Energies <==================
	-----------------------------------------------------------
	 SCS Same-Spin Scale       =       0.3333333333333333 [-]
	 SCS Opposite-Spin Scale   =       1.2000000000000000 [-]
	 SCS Same-Spin Energy      =      -0.1109563165108878 [Eh]
	 SCS Opposite-Spin Energy  =      -1.2295259760443280 [Eh]
	 SCS Correlation Energy    =      -1.3404822925552158 [Eh]
	 SCS Total Energy          =    -343.0895123874371393 [Eh]
	-----------------------------------------------------------

  Dipole Moment: [D]
     X:    -2.3939      Y:     2.8013      Z:     1.1981     Total:     3.8747

*** Psi4 exiting successfully. Buy a developer a beer!
