                               Psi4 1.3.2 release

  ==> Input File <==

--------------------------------------------------------------------------
#psi4
#
memory 32 gb

molecule  {
0 1
  O       -1.3597980    -1.1437690     0.1887320
  O        1.4419330     1.0393260     0.2985870
  O        1.2366830    -1.0978030    -0.4508720
  C       -0.8086755    -0.0728889     0.3593346
  C       -1.3431230     1.2084980    -0.4569850
  C        0.7367530    -0.0975110     0.0221890
  H       -0.7373290     0.3987270     1.4472430
  H       -1.2930290     0.9302150    -1.5111840
  H       -0.8256550     2.1573260    -0.3051780
  H       -2.3949050     1.3388590    -0.1830910
  H       -2.2729280    -1.0415480     0.5084360
  H        2.3630120     0.8399890     0.0298380
units angstrom
no_reorient  #important for SAPT in psi4, default
symmetry c1  #important for SAPT in psi4, default
}

set PROPERTIES_ORIGIN ["COM"]
properties('MP2/aug-cc-pvtz', properties = ['dipole'])
--------------------------------------------------------------------------

    Molecular point group: c1
  Charge       = 0
  Multiplicity = 1
  Basis Set: AUG-CC-PVTZ
    Blend: AUG-CC-PVTZ
  Basis Set: (AUG-CC-PVTZ AUX)
    Blend: AUG-CC-PVTZ-JKFIT

    Orbital Energies [Eh]
    ---------------------

    Doubly Occupied:

       1A    -20.617785     2A    -20.600146     3A    -20.545414
       4A    -11.383032     5A    -11.323376     6A    -11.232759
       7A     -1.492331     8A     -1.452565     9A     -1.353681
      10A     -1.024205    11A     -0.910670    12A     -0.825147
      13A     -0.745901    14A     -0.709458    15A     -0.693352
      16A     -0.670981    17A     -0.619194    18A     -0.616804
      19A     -0.568252    20A     -0.554221    21A     -0.519175
      22A     -0.481558    23A     -0.425710    24A     -0.423348

  @DF-RHF Final Energy:  -341.78291688933831

   => Energetics <=

    Nuclear Repulsion Energy =            249.6155898821508572
    One-Electron Energy =                -963.2188863093740565
    Two-Electron Energy =                 371.8203795378848895
    Total Energy =                       -341.7829168893383098
  Basis Set: (AUG-CC-PVTZ AUX)
    Blend: AUG-CC-PVTZ-RI
    Molecular point group: c1

    Geometry (in Angstrom), charge = 0, multiplicity = 1:

       Center              X                  Y                   Z               Mass
    ------------   -----------------  -----------------  -----------------  -----------------
         O           -1.347720226777    -1.120300627275     0.192470852190    15.994914619570
         O            1.454010773223     1.062794372725     0.302325852190    15.994914619570
         O            1.248760773223    -1.074334627275    -0.447133147810    15.994914619570
         C           -0.796597726777    -0.049420527275     0.363073452190    12.000000000000
         C           -1.331045226777     1.231966372725    -0.453246147810    12.000000000000
         C            0.748830773223    -0.074042627275     0.025927852190    12.000000000000
         H           -0.725251226777     0.422195372725     1.450981852190     1.007825032230
         H           -1.280951226777     0.953683372725    -1.507445147810     1.007825032230
         H           -0.813577226777     2.180794372725    -0.301439147810     1.007825032230
         H           -2.382827226777     1.362327372725    -0.179352147810     1.007825032230
         H           -2.260850226777    -1.018079627275     0.512174852190     1.007825032230
         H            2.375089773223     0.863457372725     0.033576852190     1.007825032230

  Basis Set: AUG-CC-PVTZ
    Blend: AUG-CC-PVTZ
  Basis Set: (AUG-CC-PVTZ AUX)
    Blend: AUG-CC-PVTZ-JKFIT
	 Reference Energy          =    -341.7829168893383098 [Eh]
	 Singles Energy            =      -0.0000000000000000 [Eh]
	 Same-Spin Energy          =      -0.3273291063198581 [Eh]
	 Opposite-Spin Energy      =      -1.0108339797218706 [Eh]
	 Correlation Energy        =      -1.3381630860417286 [Eh]
	 Total Energy              =    -343.1210799753800416 [Eh]

	 ================> DF-SCS-MP2 Energies <==================
	-----------------------------------------------------------
	 SCS Same-Spin Scale       =       0.3333333333333333 [-]
	 SCS Opposite-Spin Scale   =       1.2000000000000000 [-]
	 SCS Same-Spin Energy      =      -0.1091097021066194 [Eh]
	 SCS Opposite-Spin Energy  =      -1.2130007756662446 [Eh]
	 SCS Correlation Energy    =      -1.3221104777728641 [Eh]
	 SCS Total Energy          =    -343.1050273671111768 [Eh]
	-----------------------------------------------------------

  Dipole Moment: [D]
     X:    -1.7926      Y:     1.9379      Z:     1.0280     Total:     2.8330

*** Psi4 exiting successfully. Buy a developer a beer!
