                               Psi4 1.3.2 release

  ==> Input File <==

--------------------------------------------------------------------------
#psi4
#
memory 32 gb

molecule  {
0 1
  O       -1.3597980    -1.1437690     0.1887320
  O        1.4319370     1.0445137     0.3024956
  O        1.2366830    -1.0978030    -0.4508720
  C       -0.7153089     0.1154777     0.3913502
  C       -1.3431230     1.2084980    -0.4569850
  C        0.7367530    -0.0975110     0.0221890
  H       -0.7373290     0.3987270     1.4472430
  H       -1.2930290     0.9302150    -1.5111840
  H       -0.8256550     2.1573260    -0.3051780
  H       -2.3949050     1.3388590    -0.1830910
  H       -2.2729280    -1.0415480     0.5084360
  H        2.3630120     0.8399890     0.0298380
units angstrom
no_reorient  #important for SAPT in psi4, default
symmetry c1  #important for SAPT in psi4, default
}

set PROPERTIES_ORIGIN ["COM"]
properties('MP2/aug-cc-pvtz', properties = ['dipole'])
--------------------------------------------------------------------------

    Molecular point group: c1
  Charge       = 0
  Multiplicity = 1
  Basis Set: AUG-CC-PVTZ
    Blend: AUG-CC-PVTZ
  Basis Set: (AUG-CC-PVTZ AUX)
    Blend: AUG-CC-PVTZ-JKFIT

    Orbital Energies [Eh]
    ---------------------

    Doubly Occupied:

       1A    -20.621235     2A    -20.573495     3A    -20.555914
       4A    -11.390961     5A    -11.312730     6A    -11.238989
       7A     -1.462425     8A     -1.376945     9A     -1.356388
      10A     -1.056920    11A     -0.921328    12A     -0.799679
      13A     -0.730670    14A     -0.705379    15A     -0.660265
      16A     -0.649589    17A     -0.613132    18A     -0.601553
      19A     -0.565119    20A     -0.557827    21A     -0.521279
      22A     -0.485824    23A     -0.464779    24A     -0.451965

  @DF-RHF Final Energy:  -341.82725602635008

   => Energetics <=

    Nuclear Repulsion Energy =            248.6344813933968396
    One-Electron Energy =                -961.5746945517182667
    Two-Electron Energy =                 371.1129571319713136
    Total Energy =                       -341.8272560263500850
  Basis Set: (AUG-CC-PVTZ AUX)
    Blend: AUG-CC-PVTZ-RI
    Molecular point group: c1

    Geometry (in Angstrom), charge = 0, multiplicity = 1:

       Center              X                  Y                   Z               Mass
    ------------   -----------------  -----------------  -----------------  -----------------
         O           -1.358388847906    -1.146328972551     0.187509211426    15.994914619570
         O            1.433346152094     1.041953727449     0.301272811426    15.994914619570
         O            1.238092152094    -1.100362972551    -0.452094788574    15.994914619570
         C           -0.713899747906     0.112917727449     0.390127411426    12.000000000000
         C           -1.341713847906     1.205938027449    -0.458207788574    12.000000000000
         C            0.738162152094    -0.100070972551     0.020966211426    12.000000000000
         H           -0.735919847906     0.396167027449     1.446020211426     1.007825032230
         H           -1.291619847906     0.927655027449    -1.512406788574     1.007825032230
         H           -0.824245847906     2.154766027449    -0.306400788574     1.007825032230
         H           -2.393495847906     1.336299027449    -0.184313788574     1.007825032230
         H           -2.271518847906    -1.044107972551     0.507213211426     1.007825032230
         H            2.364421152094     0.837429027449     0.028615211426     1.007825032230

  Basis Set: AUG-CC-PVTZ
    Blend: AUG-CC-PVTZ
  Basis Set: (AUG-CC-PVTZ AUX)
    Blend: AUG-CC-PVTZ-JKFIT
	 Reference Energy          =    -341.8272560263500850 [Eh]
	 Singles Energy            =      -0.0000000000000000 [Eh]
	 Same-Spin Energy          =      -0.3271848562833273 [Eh]
	 Opposite-Spin Energy      =      -1.0133580024592097 [Eh]
	 Correlation Energy        =      -1.3405428587425370 [Eh]
	 Total Energy              =    -343.1677988850926226 [Eh]

	 ================> DF-SCS-MP2 Energies <==================
	-----------------------------------------------------------
	 SCS Same-Spin Scale       =       0.3333333333333333 [-]
	 SCS Opposite-Spin Scale   =       1.2000000000000000 [-]
	 SCS Same-Spin Energy      =      -0.1090616187611091 [Eh]
	 SCS Opposite-Spin Energy  =      -1.2160296029510516 [Eh]
	 SCS Correlation Energy    =      -1.3250912217121606 [Eh]
	 SCS Total Energy          =    -343.1523472480622559 [Eh]
	-----------------------------------------------------------

  Dipole Moment: [D]
     X:    -1.2645      Y:     2.7498      Z:     1.0566     Total:     3.2058

*** Psi4 exiting successfully. Buy a developer a beer!
