                               Psi4 1.3.2 release

  ==> Input File <==

--------------------------------------------------------------------------
#psi4
#
memory 32 gb

molecule  {
0 1
  O       -1.3597980    -1.1437690     0.1887320
  O        1.4419330     1.0393260     0.2985870
  O        1.2366830    -1.0978030    -0.4508720
  C       -0.7180600     0.1031850     0.3873850
  C       -1.3431230     1.2084980    -0.4569850
  C        0.9290211    -0.1240350    -0.0260753
  H       -0.7373290     0.3987270     1.4472430
  H       -1.2930290     0.9302150    -1.5111840
  H       -0.8256550     2.1573260    -0.3051780
  H       -2.3949050     1.3388590    -0.1830910
  H       -2.2729280    -1.0415480     0.5084360
  H        2.3630120     0.8399890     0.0298380
units angstrom
no_reorient  #important for SAPT in psi4, default
symmetry c1  #important for SAPT in psi4, default
}

set PROPERTIES_ORIGIN ["COM"]
properties('MP2/aug-cc-pvtz', properties = ['dipole'])
--------------------------------------------------------------------------

    Molecular point group: c1
  Charge       = 0
  Multiplicity = 1
  Basis Set: AUG-CC-PVTZ
    Blend: AUG-CC-PVTZ
  Basis Set: (AUG-CC-PVTZ AUX)
    Blend: AUG-CC-PVTZ-JKFIT

    Orbital Energies [Eh]
    ---------------------

    Doubly Occupied:

       1A    -20.638967     2A    -20.569823     3A    -20.560313
       4A    -11.384059     5A    -11.291997     6A    -11.223189
       7A     -1.518071     8A     -1.437617     9A     -1.360625
      10A     -1.019365    11A     -0.885883    12A     -0.802076
      13A     -0.740723    14A     -0.716552    15A     -0.687584
      16A     -0.671132    17A     -0.612453    18A     -0.598961
      19A     -0.568102    20A     -0.549168    21A     -0.529583
      22A     -0.515665    23A     -0.445877    24A     -0.403392

  @DF-RHF Final Energy:  -341.78766304024754

   => Energetics <=

    Nuclear Repulsion Energy =            248.6834827176242868
    One-Electron Energy =                -961.4799374038573205
    Two-Electron Energy =                 371.0087916459854682
    Total Energy =                       -341.7876630402475371
  Basis Set: (AUG-CC-PVTZ AUX)
    Blend: AUG-CC-PVTZ-RI
    Molecular point group: c1

    Geometry (in Angstrom), charge = 0, multiplicity = 1:

       Center              X                  Y                   Z               Mass
    ------------   -----------------  -----------------  -----------------  -----------------
         O           -1.385424762227    -1.140233594425     0.195165090065    15.994914619570
         O            1.416306237773     1.042861405575     0.305020090065    15.994914619570
         O            1.211056237773    -1.094267594425    -0.444438909935    15.994914619570
         C           -0.743686762227     0.106720405575     0.393818090065    12.000000000000
         C           -1.368749762227     1.212033405575    -0.450551909935    12.000000000000
         C            0.903394337773    -0.120499594425    -0.019642209935    12.000000000000
         H           -0.762955762227     0.402262405575     1.453676090065     1.007825032230
         H           -1.318655762227     0.933750405575    -1.504750909935     1.007825032230
         H           -0.851281762227     2.160861405575    -0.298744909935     1.007825032230
         H           -2.420531762227     1.342394405575    -0.176657909935     1.007825032230
         H           -2.298554762227    -1.038012594425     0.514869090065     1.007825032230
         H            2.337385237773     0.843524405575     0.036271090065     1.007825032230

  Basis Set: AUG-CC-PVTZ
    Blend: AUG-CC-PVTZ
  Basis Set: (AUG-CC-PVTZ AUX)
    Blend: AUG-CC-PVTZ-JKFIT
	 Reference Energy          =    -341.7876630402475371 [Eh]
	 Singles Energy            =      -0.0000000000000000 [Eh]
	 Same-Spin Energy          =      -0.3255751528719543 [Eh]
	 Opposite-Spin Energy      =      -1.0094915354354601 [Eh]
	 Correlation Energy        =      -1.3350666883074145 [Eh]
	 Total Energy              =    -343.1227297285549298 [Eh]

	 ================> DF-SCS-MP2 Energies <==================
	-----------------------------------------------------------
	 SCS Same-Spin Scale       =       0.3333333333333333 [-]
	 SCS Opposite-Spin Scale   =       1.2000000000000000 [-]
	 SCS Same-Spin Energy      =      -0.1085250509573181 [Eh]
	 SCS Opposite-Spin Energy  =      -1.2113898425225520 [Eh]
	 SCS Correlation Energy    =      -1.3199148934798701 [Eh]
	 SCS Total Energy          =    -343.1075779337273843 [Eh]
	-----------------------------------------------------------

  Dipole Moment: [D]
     X:    -0.0550      Y:     2.4566      Z:     0.8242     Total:     2.5918

*** Psi4 exiting successfully. Buy a developer a beer!
