                               Psi4 1.3.2 release

  ==> Input File <==

--------------------------------------------------------------------------
#psi4
#
memory 32 gb

molecule  {
0 1
  O       -1.3125695    -1.1736359     0.2374789
  O        1.4419330     1.0393260     0.2985870
  O        1.2366830    -1.0978030    -0.4508720
  C       -0.7180600     0.1031850     0.3873850
  C       -1.2900423     1.2593843    -0.4258928
  C        0.7367530    -0.0975110     0.0221890
  H       -0.7373290     0.3987270     1.4472430
  H       -1.2930290     0.9302150    -1.5111840
  H       -0.8256550     2.1573260    -0.3051780
  H       -2.3949050     1.3388590    -0.1830910
  H       -2.2729280    -1.0415480     0.5084360
  H        2.3630120     0.8399890     0.0298380
units angstrom
no_reorient  #important for SAPT in psi4, default
symmetry c1  #important for SAPT in psi4, default
}

set PROPERTIES_ORIGIN ["COM"]
properties('MP2/aug-cc-pvtz', properties = ['dipole'])
--------------------------------------------------------------------------

    Molecular point group: c1
  Charge       = 0
  Multiplicity = 1
  Basis Set: AUG-CC-PVTZ
    Blend: AUG-CC-PVTZ
  Basis Set: (AUG-CC-PVTZ AUX)
    Blend: AUG-CC-PVTZ-JKFIT

    Orbital Energies [Eh]
    ---------------------

    Doubly Occupied:

       1A    -20.618509     2A    -20.582494     3A    -20.553235
       4A    -11.388267     5A    -11.313584     6A    -11.243129
       7A     -1.462212     8A     -1.378542     9A     -1.354673
      10A     -1.057487    11A     -0.920447    12A     -0.800550
      13A     -0.727650    14A     -0.704742    15A     -0.662634
      16A     -0.650382    17A     -0.620581    18A     -0.600916
      19A     -0.561732    20A     -0.552674    21A     -0.526013
      22A     -0.484110    23A     -0.463080    24A     -0.448082

  @DF-RHF Final Energy:  -341.81630394996762

   => Energetics <=

    Nuclear Repulsion Energy =            248.7531588950033097
    One-Electron Energy =                -961.7874770021497852
    Two-Electron Energy =                 371.2180141571787999
    Total Energy =                       -341.8163039499676188
  Basis Set: (AUG-CC-PVTZ AUX)
    Blend: AUG-CC-PVTZ-RI
    Molecular point group: c1

    Geometry (in Angstrom), charge = 0, multiplicity = 1:

       Center              X                  Y                   Z               Mass
    ------------   -----------------  -----------------  -----------------  -----------------
         O           -1.328035029735    -1.175112119379     0.224674536835    15.994914619570
         O            1.426467470265     1.037849780621     0.285782636835    15.994914619570
         O            1.221217470265    -1.099279219379    -0.463676363165    15.994914619570
         C           -0.733525529735     0.101708780621     0.374580636835    12.000000000000
         C           -1.305507829735     1.257908080621    -0.438697163165    12.000000000000
         C            0.721287470265    -0.098987219379     0.009384636835    12.000000000000
         H           -0.752794529735     0.397250780621     1.434438636835     1.007825032230
         H           -1.308494529735     0.928738780621    -1.523988363165     1.007825032230
         H           -0.841120529735     2.155849780621    -0.317982363165     1.007825032230
         H           -2.410370529735     1.337382780621    -0.195895363165     1.007825032230
         H           -2.288393529735    -1.043024219379     0.495631636835     1.007825032230
         H            2.347546470265     0.838512780621     0.017033636835     1.007825032230

  Basis Set: AUG-CC-PVTZ
    Blend: AUG-CC-PVTZ
  Basis Set: (AUG-CC-PVTZ AUX)
    Blend: AUG-CC-PVTZ-JKFIT
	 Reference Energy          =    -341.8163039499676188 [Eh]
	 Singles Energy            =      -0.0000000000000000 [Eh]
	 Same-Spin Energy          =      -0.3276173075937378 [Eh]
	 Opposite-Spin Energy      =      -1.0143330292391437 [Eh]
	 Correlation Energy        =      -1.3419503368328816 [Eh]
	 Total Energy              =    -343.1582542868005135 [Eh]

	 ================> DF-SCS-MP2 Energies <==================
	-----------------------------------------------------------
	 SCS Same-Spin Scale       =       0.3333333333333333 [-]
	 SCS Opposite-Spin Scale   =       1.2000000000000000 [-]
	 SCS Same-Spin Energy      =      -0.1092057691979126 [Eh]
	 SCS Opposite-Spin Energy  =      -1.2171996350869725 [Eh]
	 SCS Correlation Energy    =      -1.3264054042848852 [Eh]
	 SCS Total Energy          =    -343.1427093542525313 [Eh]
	-----------------------------------------------------------

  Dipole Moment: [D]
     X:    -1.4130      Y:     2.7587      Z:     0.9483     Total:     3.2414

*** Psi4 exiting successfully. Buy a developer a beer!
