                               Psi4 1.3.2 release

  ==> Input File <==

--------------------------------------------------------------------------
#psi4
#
memory 32 gb

molecule  {
0 1
  O       -1.3597980    -1.1437690     0.1887320
  O        1.4419330     1.0393260     0.2985870
  O        1.2366830    -1.0978030    -0.4508720
  C       -0.7180600     0.1031850     0.3873850
  C       -1.3431230     1.2084980    -0.4569850
  C        0.7367530    -0.0975110     0.0221890
  H       -0.7338270     0.3450146     1.2546223
  H       -1.2930290     0.9302150    -1.5111840
  H       -0.8256550     2.1573260    -0.3051780
  H       -2.3949050     1.3388590    -0.1830910
  H       -2.2729280    -1.0415480     0.5084360
  H        2.3630120     0.8399890     0.0298380
units angstrom
no_reorient  #important for SAPT in psi4, default
symmetry c1  #important for SAPT in psi4, default
}

set PROPERTIES_ORIGIN ["COM"]
properties('MP2/aug-cc-pvtz', properties = ['dipole'])
--------------------------------------------------------------------------

    Molecular point group: c1
  Charge       = 0
  Multiplicity = 1
  Basis Set: AUG-CC-PVTZ
    Blend: AUG-CC-PVTZ
  Basis Set: (AUG-CC-PVTZ AUX)
    Blend: AUG-CC-PVTZ-JKFIT

    Orbital Energies [Eh]
    ---------------------

    Doubly Occupied:

       1A    -20.620447     2A    -20.572581     3A    -20.554349
       4A    -11.389465     5A    -11.289253     6A    -11.237709
       7A     -1.463651     8A     -1.381099     9A     -1.356687
      10A     -1.068174    11A     -0.926900    12A     -0.818494
      13A     -0.754939    14A     -0.706273    15A     -0.662729
      16A     -0.649987    17A     -0.615495    18A     -0.602812
      19A     -0.565131    20A     -0.557539    21A     -0.529253
      22A     -0.485193    23A     -0.468956    24A     -0.451696

  @DF-RHF Final Energy:  -341.79734998945565

   => Energetics <=

    Nuclear Repulsion Energy =            249.8718159257478817
    One-Electron Energy =                -963.8807085969083346
    Two-Electron Energy =                 372.2115426817047705
    Total Energy =                       -341.7973499894556539
  Basis Set: (AUG-CC-PVTZ AUX)
    Blend: AUG-CC-PVTZ-RI
    Molecular point group: c1

    Geometry (in Angstrom), charge = 0, multiplicity = 1:

       Center              X                  Y                   Z               Mass
    ------------   -----------------  -----------------  -----------------  -----------------
         O           -1.359837241954    -1.143167620064     0.190888333519    15.994914619570
         O            1.441893758046     1.039927379936     0.300743333519    15.994914619570
         O            1.236643758046    -1.097201620064    -0.448715666481    15.994914619570
         C           -0.718099241954     0.103786379936     0.389541333519    12.000000000000
         C           -1.343162241954     1.209099379936    -0.454828666481    12.000000000000
         C            0.736713758046    -0.096909620064     0.024345333519    12.000000000000
         H           -0.733866241954     0.345615979936     1.256778633519     1.007825032230
         H           -1.293068241954     0.930816379936    -1.509027666481     1.007825032230
         H           -0.825694241954     2.157927379936    -0.303021666481     1.007825032230
         H           -2.394944241954     1.339460379936    -0.180934666481     1.007825032230
         H           -2.272967241954    -1.040946620064     0.510592333519     1.007825032230
         H            2.362972758046     0.840590379936     0.031994333519     1.007825032230

  Basis Set: AUG-CC-PVTZ
    Blend: AUG-CC-PVTZ
  Basis Set: (AUG-CC-PVTZ AUX)
    Blend: AUG-CC-PVTZ-JKFIT
	 Reference Energy          =    -341.7973499894556539 [Eh]
	 Singles Energy            =      -0.0000000000000000 [Eh]
	 Same-Spin Energy          =      -0.3267384085679782 [Eh]
	 Opposite-Spin Energy      =      -1.0117993129956266 [Eh]
	 Correlation Energy        =      -1.3385377215636050 [Eh]
	 Total Energy              =    -343.1358877110192793 [Eh]

	 ================> DF-SCS-MP2 Energies <==================
	-----------------------------------------------------------
	 SCS Same-Spin Scale       =       0.3333333333333333 [-]
	 SCS Opposite-Spin Scale   =       1.2000000000000000 [-]
	 SCS Same-Spin Energy      =      -0.1089128028559927 [Eh]
	 SCS Opposite-Spin Energy  =      -1.2141591755947518 [Eh]
	 SCS Correlation Energy    =      -1.3230719784507445 [Eh]
	 SCS Total Energy          =    -343.1204219679063954 [Eh]
	-----------------------------------------------------------

  Dipole Moment: [D]
     X:    -1.2780      Y:     2.7578      Z:     1.1138     Total:     3.2371

*** Psi4 exiting successfully. Buy a developer a beer!
