                               Psi4 1.3.2 release

  ==> Input File <==

--------------------------------------------------------------------------
#psi4
#
memory 32 gb

molecule  {
0 1
  O       -1.3597980    -1.1437690     0.1887320
  O        1.4419330     1.0393260     0.2985870
  O        1.2366830    -1.0978030    -0.4508720
  C       -0.7180600     0.1031850     0.3873850
  C       -1.3431230     1.2084980    -0.4569850
  C        0.7779263    -0.1798933    -0.0167715
  H       -0.7373290     0.3987270     1.4472430
  H       -1.2930290     0.9302150    -1.5111840
  H       -0.8256550     2.1573260    -0.3051780
  H       -2.3949050     1.3388590    -0.1830910
  H       -2.2729280    -1.0415480     0.5084360
  H        2.3630120     0.8399890     0.0298380
units angstrom
no_reorient  #important for SAPT in psi4, default
symmetry c1  #important for SAPT in psi4, default
}

set PROPERTIES_ORIGIN ["COM"]
properties('MP2/aug-cc-pvtz', properties = ['dipole'])
--------------------------------------------------------------------------

    Molecular point group: c1
  Charge       = 0
  Multiplicity = 1
  Basis Set: AUG-CC-PVTZ
    Blend: AUG-CC-PVTZ
  Basis Set: (AUG-CC-PVTZ AUX)
    Blend: AUG-CC-PVTZ-JKFIT

    Orbital Energies [Eh]
    ---------------------

    Doubly Occupied:

       1A    -20.601099     2A    -20.571947     3A    -20.571778
       4A    -11.380486     5A    -11.309656     6A    -11.233891
       7A     -1.496965     8A     -1.377353     9A     -1.375565
      10A     -1.040741    11A     -0.904653    12A     -0.782697
      13A     -0.731719    14A     -0.714134    15A     -0.672002
      16A     -0.652194    17A     -0.612681    18A     -0.602508
      19A     -0.567611    20A     -0.559701    21A     -0.525416
      22A     -0.508506    23A     -0.459462    24A     -0.443156

  @DF-RHF Final Energy:  -341.81666933580266

   => Energetics <=

    Nuclear Repulsion Energy =            248.9686057224650426
    One-Electron Energy =                -962.1787112196699354
    Two-Electron Energy =                 371.3934361614022919
    Total Energy =                       -341.8166693358026578
  Basis Set: (AUG-CC-PVTZ AUX)
    Blend: AUG-CC-PVTZ-RI
    Molecular point group: c1

    Geometry (in Angstrom), charge = 0, multiplicity = 1:

       Center              X                  Y                   Z               Mass
    ------------   -----------------  -----------------  -----------------  -----------------
         O           -1.365285880924    -1.132788442947     0.193925020096    15.994914619570
         O            1.436445119076     1.050306557053     0.303780020096    15.994914619570
         O            1.231195119076    -1.086822442947    -0.445678979904    15.994914619570
         C           -0.723547880924     0.114165557053     0.392578020096    12.000000000000
         C           -1.348610880924     1.219478557053    -0.451791979904    12.000000000000
         C            0.772438419076    -0.168912742947    -0.011578479904    12.000000000000
         H           -0.742816880924     0.409707557053     1.452436020096     1.007825032230
         H           -1.298516880924     0.941195557053    -1.505990979904     1.007825032230
         H           -0.831142880924     2.168306557053    -0.299984979904     1.007825032230
         H           -2.400392880924     1.349839557053    -0.177897979904     1.007825032230
         H           -2.278415880924    -1.030567442947     0.513629020096     1.007825032230
         H            2.357524119076     0.850969557053     0.035031020096     1.007825032230

  Basis Set: AUG-CC-PVTZ
    Blend: AUG-CC-PVTZ
  Basis Set: (AUG-CC-PVTZ AUX)
    Blend: AUG-CC-PVTZ-JKFIT
	 Reference Energy          =    -341.8166693358026578 [Eh]
	 Singles Energy            =      -0.0000000000000000 [Eh]
	 Same-Spin Energy          =      -0.3251087426231816 [Eh]
	 Opposite-Spin Energy      =      -1.0094588177095556 [Eh]
	 Correlation Energy        =      -1.3345675603327372 [Eh]
	 Total Energy              =    -343.1512368961354014 [Eh]

	 ================> DF-SCS-MP2 Energies <==================
	-----------------------------------------------------------
	 SCS Same-Spin Scale       =       0.3333333333333333 [-]
	 SCS Opposite-Spin Scale   =       1.2000000000000000 [-]
	 SCS Same-Spin Energy      =      -0.1083695808743939 [Eh]
	 SCS Opposite-Spin Energy  =      -1.2113505812514667 [Eh]
	 SCS Correlation Energy    =      -1.3197201621258605 [Eh]
	 SCS Total Energy          =    -343.1363894979285192 [Eh]
	-----------------------------------------------------------

  Dipole Moment: [D]
     X:    -1.1517      Y:     2.0225      Z:     0.7963     Total:     2.4599

*** Psi4 exiting successfully. Buy a developer a beer!
