                               Psi4 1.3.2 release

  ==> Input File <==

--------------------------------------------------------------------------
#psi4
#
memory 32 gb

molecule  {
0 1
  O       -1.3597980    -1.1437690     0.1887320
  O        1.4419330     1.0393260     0.2985870
  O        1.2366830    -1.0978030    -0.4508720
  C       -0.7035523     0.0628300     0.3200448
  C       -1.3431230     1.2084980    -0.4569850
  C        0.7367530    -0.0975110     0.0221890
  H       -0.7373290     0.3987270     1.4472430
  H       -1.2673625     0.8816034    -1.4955834
  H       -0.8256550     2.1573260    -0.3051780
  H       -2.3949050     1.3388590    -0.1830910
  H       -2.2729280    -1.0415480     0.5084360
  H        2.3630120     0.8399890     0.0298380
units angstrom
no_reorient  #important for SAPT in psi4, default
symmetry c1  #important for SAPT in psi4, default
}

set PROPERTIES_ORIGIN ["COM"]
properties('MP2/aug-cc-pvtz', properties = ['dipole'])
--------------------------------------------------------------------------

    Molecular point group: c1
  Charge       = 0
  Multiplicity = 1
  Basis Set: AUG-CC-PVTZ
    Blend: AUG-CC-PVTZ
  Basis Set: (AUG-CC-PVTZ AUX)
    Blend: AUG-CC-PVTZ-JKFIT

    Orbital Energies [Eh]
    ---------------------

    Doubly Occupied:

       1A    -20.620455     2A    -20.578330     3A    -20.553616
       4A    -11.389607     5A    -11.315965     6A    -11.239414
       7A     -1.464410     8A     -1.395476     9A     -1.358190
      10A     -1.057607    11A     -0.925921    12A     -0.804729
      13A     -0.724396    14A     -0.704373    15A     -0.674238
      16A     -0.658152    17A     -0.615859    18A     -0.607100
      19A     -0.562557    20A     -0.561501    21A     -0.521386
      22A     -0.485937    23A     -0.456255    24A     -0.444504

  @DF-RHF Final Energy:  -341.82208233416031

   => Energetics <=

    Nuclear Repulsion Energy =            249.6296249413195483
    One-Electron Energy =                -963.4634576678846543
    Two-Electron Energy =                 372.0117503924047924
    Total Energy =                       -341.8220823341603136
  Basis Set: (AUG-CC-PVTZ AUX)
    Blend: AUG-CC-PVTZ-RI
    Molecular point group: c1

    Geometry (in Angstrom), charge = 0, multiplicity = 1:

       Center              X                  Y                   Z               Mass
    ------------   -----------------  -----------------  -----------------  -----------------
         O           -1.362019032934    -1.137845946501     0.197533013128    15.994914619570
         O            1.439711967066     1.045249053499     0.307388013128    15.994914619570
         O            1.234461967066    -1.091879946501    -0.442070986872    15.994914619570
         C           -0.705773332934     0.068753053499     0.328845813128    12.000000000000
         C           -1.345344032934     1.214421053499    -0.448183986872    12.000000000000
         C            0.734531967066    -0.091587946501     0.030990013128    12.000000000000
         H           -0.739550032934     0.404650053499     1.456044013128     1.007825032230
         H           -1.269583532934     0.887526453499    -1.486782386872     1.007825032230
         H           -0.827876032934     2.163249053499    -0.296376986872     1.007825032230
         H           -2.397126032934     1.344782053499    -0.174289986872     1.007825032230
         H           -2.275149032934    -1.035624946501     0.517237013128     1.007825032230
         H            2.360790967066     0.845912053499     0.038639013128     1.007825032230

  Basis Set: AUG-CC-PVTZ
    Blend: AUG-CC-PVTZ
  Basis Set: (AUG-CC-PVTZ AUX)
    Blend: AUG-CC-PVTZ-JKFIT
	 Reference Energy          =    -341.8220823341603136 [Eh]
	 Singles Energy            =      -0.0000000000000000 [Eh]
	 Same-Spin Energy          =      -0.3271079014856773 [Eh]
	 Opposite-Spin Energy      =      -1.0123098310796053 [Eh]
	 Correlation Energy        =      -1.3394177325652825 [Eh]
	 Total Energy              =    -343.1615000667255799 [Eh]

	 ================> DF-SCS-MP2 Energies <==================
	-----------------------------------------------------------
	 SCS Same-Spin Scale       =       0.3333333333333333 [-]
	 SCS Opposite-Spin Scale   =       1.2000000000000000 [-]
	 SCS Same-Spin Energy      =      -0.1090359671618924 [Eh]
	 SCS Opposite-Spin Energy  =      -1.2147717972955263 [Eh]
	 SCS Correlation Energy    =      -1.3238077644574187 [Eh]
	 SCS Total Energy          =    -343.1458900986177127 [Eh]
	-----------------------------------------------------------

  Dipole Moment: [D]
     X:    -1.4078      Y:     2.6213      Z:     0.9839     Total:     3.1339

*** Psi4 exiting successfully. Buy a developer a beer!
