                               Psi4 1.3.2 release

  ==> Input File <==

--------------------------------------------------------------------------
#psi4
#
memory 32 gb

molecule  {
0 1
  O       -1.3573556    -1.1430379     0.1766374
  O        1.4419330     1.0393260     0.2985870
  O        1.2366830    -1.0978030    -0.4508720
  C       -0.7180600     0.1031850     0.3873850
  C       -1.3431230     1.2084980    -0.4569850
  C        0.7367530    -0.0975110     0.0221890
  H       -0.7325920     0.4067846     1.4450387
  H       -1.2930290     0.9302150    -1.5111840
  H       -0.8256550     2.1573260    -0.3051780
  H       -2.3949050     1.3388590    -0.1830910
  H       -2.2729280    -1.0415480     0.5084360
  H        2.3630120     0.8399890     0.0298380
units angstrom
no_reorient  #important for SAPT in psi4, default
symmetry c1  #important for SAPT in psi4, default
}

set PROPERTIES_ORIGIN ["COM"]
properties('MP2/aug-cc-pvtz', properties = ['dipole'])
--------------------------------------------------------------------------

    Molecular point group: c1
  Charge       = 0
  Multiplicity = 1
  Basis Set: AUG-CC-PVTZ
    Blend: AUG-CC-PVTZ
  Basis Set: (AUG-CC-PVTZ AUX)
    Blend: AUG-CC-PVTZ-JKFIT

    Orbital Energies [Eh]
    ---------------------

    Doubly Occupied:

       1A    -20.619538     2A    -20.576227     3A    -20.554647
       4A    -11.390214     5A    -11.313429     6A    -11.238721
       7A     -1.463106     8A     -1.380990     9A     -1.356503
      10A     -1.055415    11A     -0.921281    12A     -0.801847
      13A     -0.731437    14A     -0.704711    15A     -0.662449
      16A     -0.649665    17A     -0.613688    18A     -0.601960
      19A     -0.565054    20A     -0.557931    21A     -0.522376
      22A     -0.485161    23A     -0.463414    24A     -0.451111

  @DF-RHF Final Energy:  -341.82832821469663

   => Energetics <=

    Nuclear Repulsion Energy =            248.7473315913491660
    One-Electron Energy =                -961.7895727610219865
    Two-Electron Energy =                 371.2139129549761947
    Total Energy =                       -341.8283282146966258
  Basis Set: (AUG-CC-PVTZ AUX)
    Blend: AUG-CC-PVTZ-RI
    Molecular point group: c1

    Geometry (in Angstrom), charge = 0, multiplicity = 1:

       Center              X                  Y                   Z               Mass
    ------------   -----------------  -----------------  -----------------  -----------------
         O           -1.357842580318    -1.143257866759     0.178810901695    15.994914619570
         O            1.441446019682     1.039106033241     0.300760501695    15.994914619570
         O            1.236196019682    -1.098022966759    -0.448698498305    15.994914619570
         C           -0.718546980318     0.102965033241     0.389558501695    12.000000000000
         C           -1.343609980318     1.208278033241    -0.454811498305    12.000000000000
         C            0.736266019682    -0.097730966759     0.024362501695    12.000000000000
         H           -0.733078980318     0.406564633241     1.447212201695     1.007825032230
         H           -1.293515980318     0.929995033241    -1.509010498305     1.007825032230
         H           -0.826141980318     2.157106033241    -0.303004498305     1.007825032230
         H           -2.395391980318     1.338639033241    -0.180917498305     1.007825032230
         H           -2.273414980318    -1.041767966759     0.510609501695     1.007825032230
         H            2.362525019682     0.839769033241     0.032011501695     1.007825032230

  Basis Set: AUG-CC-PVTZ
    Blend: AUG-CC-PVTZ
  Basis Set: (AUG-CC-PVTZ AUX)
    Blend: AUG-CC-PVTZ-JKFIT
	 Reference Energy          =    -341.8283282146966258 [Eh]
	 Singles Energy            =      -0.0000000000000000 [Eh]
	 Same-Spin Energy          =      -0.3269924517475608 [Eh]
	 Opposite-Spin Energy      =      -1.0128056152852787 [Eh]
	 Correlation Energy        =      -1.3397980670328393 [Eh]
	 Total Energy              =    -343.1681262817294851 [Eh]

	 ================> DF-SCS-MP2 Energies <==================
	-----------------------------------------------------------
	 SCS Same-Spin Scale       =       0.3333333333333333 [-]
	 SCS Opposite-Spin Scale   =       1.2000000000000000 [-]
	 SCS Same-Spin Energy      =      -0.1089974839158536 [Eh]
	 SCS Opposite-Spin Energy  =      -1.2153667383423343 [Eh]
	 SCS Correlation Energy    =      -1.3243642222581880 [Eh]
	 SCS Total Energy          =    -343.1526924369547942 [Eh]
	-----------------------------------------------------------

  Dipole Moment: [D]
     X:    -1.3189      Y:     2.7041      Z:     1.0852     Total:     3.1983

*** Psi4 exiting successfully. Buy a developer a beer!
