                               Psi4 1.3.2 release

  ==> Input File <==

--------------------------------------------------------------------------
#psi4
#
memory 32 gb

molecule  {
0 1
  O       -1.3597980    -1.1437690     0.1887320
  O        1.4419330     1.0393260     0.2985870
  O        1.2366830    -1.0978030    -0.4508720
  C       -0.7180600     0.1031850     0.3873850
  C       -1.3431230     1.2084980    -0.4569850
  C        0.7367530    -0.0975110     0.0221890
  H       -0.7373290     0.3987270     1.4472430
  H       -1.2930290     0.9302150    -1.5111840
  H       -0.8256550     2.1573260    -0.3051780
  H       -2.3949050     1.3388590    -0.1830910
  H       -2.2729280    -1.0415480     0.5084360
  H        2.2690218     0.8603301     0.0572621
units angstrom
no_reorient  #important for SAPT in psi4, default
symmetry c1  #important for SAPT in psi4, default
}

set PROPERTIES_ORIGIN ["COM"]
properties('MP2/aug-cc-pvtz', properties = ['dipole'])
--------------------------------------------------------------------------

    Molecular point group: c1
  Charge       = 0
  Multiplicity = 1
  Basis Set: AUG-CC-PVTZ
    Blend: AUG-CC-PVTZ
  Basis Set: (AUG-CC-PVTZ AUX)
    Blend: AUG-CC-PVTZ-JKFIT

    Orbital Energies [Eh]
    ---------------------

    Doubly Occupied:

       1A    -20.612413     2A    -20.575765     3A    -20.556888
       4A    -11.392469     5A    -11.314092     6A    -11.239718
       7A     -1.481060     8A     -1.385812     9A     -1.363717
      10A     -1.058991    11A     -0.928296    12A     -0.819621
      13A     -0.733633    14A     -0.711392    15A     -0.665695
      16A     -0.653268    17A     -0.618076    18A     -0.607520
      19A     -0.565980    20A     -0.560004    21A     -0.523368
      22A     -0.488350    23A     -0.464045    24A     -0.453015

  @DF-RHF Final Energy:  -341.82448569705099

   => Energetics <=

    Nuclear Repulsion Energy =            249.3631079232839625
    One-Electron Energy =                -962.8288152682147256
    Two-Electron Energy =                 371.6412216478797177
    Total Energy =                       -341.8244856970509886
  Basis Set: (AUG-CC-PVTZ AUX)
    Blend: AUG-CC-PVTZ-RI
    Molecular point group: c1

    Geometry (in Angstrom), charge = 0, multiplicity = 1:

       Center              X                  Y                   Z               Mass
    ------------   -----------------  -----------------  -----------------  -----------------
         O           -1.358745903169    -1.143996583374     0.188425126979    15.994914619570
         O            1.442985096831     1.039098416626     0.298280126979    15.994914619570
         O            1.237735096831    -1.098030583374    -0.451178873021    15.994914619570
         C           -0.717007903169     0.102957416626     0.387078126979    12.000000000000
         C           -1.342070903169     1.208270416626    -0.457291873021    12.000000000000
         C            0.737805096831    -0.097738583374     0.021882126979    12.000000000000
         H           -0.736276903169     0.398499416626     1.446936126979     1.007825032230
         H           -1.291976903169     0.929987416626    -1.511490873021     1.007825032230
         H           -0.824602903169     2.157098416626    -0.305484873021     1.007825032230
         H           -2.393852903169     1.338631416626    -0.183397873021     1.007825032230
         H           -2.271875903169    -1.041775583374     0.508129126979     1.007825032230
         H            2.270073896831     0.860102516626     0.056955226979     1.007825032230

  Basis Set: AUG-CC-PVTZ
    Blend: AUG-CC-PVTZ
  Basis Set: (AUG-CC-PVTZ AUX)
    Blend: AUG-CC-PVTZ-JKFIT
	 Reference Energy          =    -341.8244856970509886 [Eh]
	 Singles Energy            =      -0.0000000000000000 [Eh]
	 Same-Spin Energy          =      -0.3256033617622284 [Eh]
	 Opposite-Spin Energy      =      -1.0097340061727511 [Eh]
	 Correlation Energy        =      -1.3353373679349794 [Eh]
	 Total Energy              =    -343.1598230649859715 [Eh]

	 ================> DF-SCS-MP2 Energies <==================
	-----------------------------------------------------------
	 SCS Same-Spin Scale       =       0.3333333333333333 [-]
	 SCS Opposite-Spin Scale   =       1.2000000000000000 [-]
	 SCS Same-Spin Energy      =      -0.1085344539207428 [Eh]
	 SCS Opposite-Spin Energy  =      -1.2116808074073013 [Eh]
	 SCS Correlation Energy    =      -1.3202152613280442 [Eh]
	 SCS Total Energy          =    -343.1447009583790191 [Eh]
	-----------------------------------------------------------

  Dipole Moment: [D]
     X:    -1.4422      Y:     2.7047      Z:     1.0818     Total:     3.2505

*** Psi4 exiting successfully. Buy a developer a beer!
