                               Psi4 1.3.2 release

  ==> Input File <==

--------------------------------------------------------------------------
#psi4
#
memory 32 gb

molecule  {
0 1
  O       -1.3597980    -1.1437690     0.1887320
  O        1.4617412     1.0287311     0.2905990
  O        1.2554986    -1.0880565    -0.4511222
  C       -0.7180600     0.1031850     0.3873850
  C       -1.3431230     1.2084980    -0.4569850
  C        0.7367530    -0.0975110     0.0221890
  H       -0.7373290     0.3987270     1.4472430
  H       -1.2930290     0.9302150    -1.5111840
  H       -0.8256550     2.1573260    -0.3051780
  H       -2.3949050     1.3388590    -0.1830910
  H       -2.2729280    -1.0415480     0.5084360
  H        2.3630120     0.8399890     0.0298380
units angstrom
no_reorient  #important for SAPT in psi4, default
symmetry c1  #important for SAPT in psi4, default
}

set PROPERTIES_ORIGIN ["COM"]
properties('MP2/aug-cc-pvtz', properties = ['dipole'])
--------------------------------------------------------------------------

    Molecular point group: c1
  Charge       = 0
  Multiplicity = 1
  Basis Set: AUG-CC-PVTZ
    Blend: AUG-CC-PVTZ
  Basis Set: (AUG-CC-PVTZ AUX)
    Blend: AUG-CC-PVTZ-JKFIT

    Orbital Energies [Eh]
    ---------------------

    Doubly Occupied:

       1A    -20.614900     2A    -20.576639     3A    -20.553470
       4A    -11.390479     5A    -11.315812     6A    -11.240102
       7A     -1.465408     8A     -1.382932     9A     -1.355828
      10A     -1.057493    11A     -0.923578    12A     -0.807680
      13A     -0.732325    14A     -0.703731    15A     -0.663855
      16A     -0.651438    17A     -0.614260    18A     -0.603196
      19A     -0.566245    20A     -0.558531    21A     -0.522951
      22A     -0.483853    23A     -0.464626    24A     -0.451577

  @DF-RHF Final Energy:  -341.83034795774847

   => Energetics <=

    Nuclear Repulsion Energy =            248.6261241724800755
    One-Electron Energy =                -961.5111220956861189
    Two-Electron Energy =                 371.0546499654575427
    Total Energy =                       -341.8303479577484723
  Basis Set: (AUG-CC-PVTZ AUX)
    Blend: AUG-CC-PVTZ-RI
    Molecular point group: c1

    Geometry (in Angstrom), charge = 0, multiplicity = 1:

       Center              X                  Y                   Z               Mass
    ------------   -----------------  -----------------  -----------------  -----------------
         O           -1.366659894649    -1.143618157135     0.190195703460    15.994914619570
         O            1.454879305351     1.028881942865     0.292062703460    15.994914619570
         O            1.248636705351    -1.087905657135    -0.449658496540    15.994914619570
         C           -0.724921894649     0.103335842865     0.388848703460    12.000000000000
         C           -1.349984894649     1.208648842865    -0.455521296540    12.000000000000
         C            0.729891105351    -0.097360157135     0.023652703460    12.000000000000
         H           -0.744190894649     0.398877842865     1.448706703460     1.007825032230
         H           -1.299890894649     0.930365842865    -1.509720296540     1.007825032230
         H           -0.832516894649     2.157476842865    -0.303714296540     1.007825032230
         H           -2.401766894649     1.339009842865    -0.181627296540     1.007825032230
         H           -2.279789894649    -1.041397157135     0.509899703460     1.007825032230
         H            2.356150105351     0.840139842865     0.031301703460     1.007825032230

  Basis Set: AUG-CC-PVTZ
    Blend: AUG-CC-PVTZ
  Basis Set: (AUG-CC-PVTZ AUX)
    Blend: AUG-CC-PVTZ-JKFIT
	 Reference Energy          =    -341.8303479577484723 [Eh]
	 Singles Energy            =      -0.0000000000000000 [Eh]
	 Same-Spin Energy          =      -0.3263463101888402 [Eh]
	 Opposite-Spin Energy      =      -1.0114620767747970 [Eh]
	 Correlation Energy        =      -1.3378083869636372 [Eh]
	 Total Energy              =    -343.1681563447120880 [Eh]

	 ================> DF-SCS-MP2 Energies <==================
	-----------------------------------------------------------
	 SCS Same-Spin Scale       =       0.3333333333333333 [-]
	 SCS Opposite-Spin Scale   =       1.2000000000000000 [-]
	 SCS Same-Spin Energy      =      -0.1087821033962801 [Eh]
	 SCS Opposite-Spin Energy  =      -1.2137544921297565 [Eh]
	 SCS Correlation Energy    =      -1.3225365955260366 [Eh]
	 SCS Total Energy          =    -343.1528845532745322 [Eh]
	-----------------------------------------------------------

  Dipole Moment: [D]
     X:    -1.4282      Y:     2.7047      Z:     1.0722     Total:     3.2411

*** Psi4 exiting successfully. Buy a developer a beer!
