                               Psi4 1.3.2 release

  ==> Input File <==

--------------------------------------------------------------------------
#psi4
#
memory 32 gb

molecule  {
0 1
  O       -1.3597980    -1.1437690     0.1887320
  O        1.4016345     1.0595535     0.3140921
  O        1.2366830    -1.0978030    -0.4508720
  C       -0.7063929     0.1522548     0.4030759
  C       -1.3431230     1.2084980    -0.4569850
  C        0.7367530    -0.0975110     0.0221890
  H       -0.7373290     0.3987270     1.4472430
  H       -1.2930290     0.9302150    -1.5111840
  H       -0.8256550     2.1573260    -0.3051780
  H       -2.3949050     1.3388590    -0.1830910
  H       -2.2729280    -1.0415480     0.5084360
  H        2.3630120     0.8399890     0.0298380
units angstrom
no_reorient  #important for SAPT in psi4, default
symmetry c1  #important for SAPT in psi4, default
}

set PROPERTIES_ORIGIN ["COM"]
properties('MP2/aug-cc-pvtz', properties = ['dipole'])
--------------------------------------------------------------------------

    Molecular point group: c1
  Charge       = 0
  Multiplicity = 1
  Basis Set: AUG-CC-PVTZ
    Blend: AUG-CC-PVTZ
  Basis Set: (AUG-CC-PVTZ AUX)
    Blend: AUG-CC-PVTZ-JKFIT

    Orbital Energies [Eh]
    ---------------------

    Doubly Occupied:

       1A    -20.625727     2A    -20.568371     3A    -20.559252
       4A    -11.392587     5A    -11.310876     6A    -11.238920
       7A     -1.460457     8A     -1.366802     9A     -1.351996
      10A     -1.060480    11A     -0.920883    12A     -0.792430
      13A     -0.728441    14A     -0.706974    15A     -0.656529
      16A     -0.645345    17A     -0.610682    18A     -0.597810
      19A     -0.566407    20A     -0.556091    21A     -0.517823
      22A     -0.487583    23A     -0.467459    24A     -0.453818

  @DF-RHF Final Energy:  -341.81823301046887

   => Energetics <=

    Nuclear Repulsion Energy =            248.4469451591423308
    One-Electron Energy =                -961.2428676273674455
    Two-Electron Energy =                 370.9776894577562985
    Total Energy =                       -341.8182330104688731
  Basis Set: (AUG-CC-PVTZ AUX)
    Blend: AUG-CC-PVTZ-RI
    Molecular point group: c1

    Geometry (in Angstrom), charge = 0, multiplicity = 1:

       Center              X                  Y                   Z               Mass
    ------------   -----------------  -----------------  -----------------  -----------------
         O           -1.354193726352    -1.153902811120     0.183886115906    15.994914619570
         O            1.407238773648     1.049419688880     0.309246215906    15.994914619570
         O            1.242287273648    -1.107936811120    -0.455717884094    15.994914619570
         C           -0.700788626352     0.142120988880     0.398230015906    12.000000000000
         C           -1.337518726352     1.198364188880    -0.461830884094    12.000000000000
         C            0.742357273648    -0.107644811120     0.017343115906    12.000000000000
         H           -0.731724726352     0.388593188880     1.442397115906     1.007825032230
         H           -1.287424726352     0.920081188880    -1.516029884094     1.007825032230
         H           -0.820050726352     2.147192188880    -0.310023884094     1.007825032230
         H           -2.389300726352     1.328725188880    -0.187936884094     1.007825032230
         H           -2.267323726352    -1.051681811120     0.503590115906     1.007825032230
         H            2.368616273648     0.829855188880     0.024992115906     1.007825032230

  Basis Set: AUG-CC-PVTZ
    Blend: AUG-CC-PVTZ
  Basis Set: (AUG-CC-PVTZ AUX)
    Blend: AUG-CC-PVTZ-JKFIT
	 Reference Energy          =    -341.8182330104688731 [Eh]
	 Singles Energy            =      -0.0000000000000000 [Eh]
	 Same-Spin Energy          =      -0.3282459082904424 [Eh]
	 Opposite-Spin Energy      =      -1.0160461465772141 [Eh]
	 Correlation Energy        =      -1.3442920548676565 [Eh]
	 Total Energy              =    -343.1625250653365242 [Eh]

	 ================> DF-SCS-MP2 Energies <==================
	-----------------------------------------------------------
	 SCS Same-Spin Scale       =       0.3333333333333333 [-]
	 SCS Opposite-Spin Scale   =       1.2000000000000000 [-]
	 SCS Same-Spin Energy      =      -0.1094153027634808 [Eh]
	 SCS Opposite-Spin Energy  =      -1.2192553758926570 [Eh]
	 SCS Correlation Energy    =      -1.3286706786561377 [Eh]
	 SCS Total Energy          =    -343.1469036891249971 [Eh]
	-----------------------------------------------------------

  Dipole Moment: [D]
     X:    -1.1158      Y:     2.8510      Z:     1.0430     Total:     3.2343

*** Psi4 exiting successfully. Buy a developer a beer!
