                               Psi4 1.4a3.dev225

  ==> Input File <==

--------------------------------------------------------------------------
#psi4
#
memory 32 gb

molecule  {
0 1
  O        1.3501930    -1.1356630    -0.2433140
  O       -1.5558540     0.8884770    -0.3921630
  O       -1.2169910    -1.1507310     0.5497490
  C        0.6629050     0.0959340    -0.3934650
  C        1.2396040     1.1907030     0.5015680
  C       -0.7631983    -0.1317189    -0.0435079
  H        0.6688980     0.4337360    -1.4405180
  H        1.2084250     0.8592770     1.5425200
  H        0.6765780     2.1206880     0.3977210
  H        2.2819130     1.3850820     0.2293300
  H        2.2793940    -0.9684070    -0.4767370
  H       -2.4621080     0.6654070    -0.0949290
units angstrom
no_reorient  #important for SAPT in psi4, default
symmetry c1  #important for SAPT in psi4, default
}

set PROPERTIES_ORIGIN ["COM"]
properties('MP2/aug-cc-pvtz', properties = ['dipole'])
--------------------------------------------------------------------------

    Molecular point group: c1
  Charge       = 0
  Multiplicity = 1
  Basis Set: AUG-CC-PVTZ
    Blend: AUG-CC-PVTZ
  Basis Set: (AUG-CC-PVTZ AUX)
    Blend: AUG-CC-PVTZ-JKFIT

    Orbital Energies [Eh]
    ---------------------

    Doubly Occupied:

       1A    -20.627849     2A    -20.577165     3A    -20.545803
       4A    -11.394593     5A    -11.315473     6A    -11.243514
       7A     -1.468615     8A     -1.382394     9A     -1.330535
      10A     -1.063820    11A     -0.930313    12A     -0.813909
      13A     -0.731035    14A     -0.703018    15A     -0.663506
      16A     -0.655893    17A     -0.618288    18A     -0.598704
      19A     -0.564884    20A     -0.555952    21A     -0.521057
      22A     -0.472254    23A     -0.461579    24A     -0.448940

  @DF-RHF Final Energy:  -341.82136057242417

   => Energetics <=

    Nuclear Repulsion Energy =            248.5480178383632790
    One-Electron Energy =                -961.3605774043553538
    Two-Electron Energy =                 370.9911989935678776
    Total Energy =                       -341.8213605724241688
  Basis Set: (AUG-CC-PVTZ AUX)
    Blend: AUG-CC-PVTZ-RI
    Molecular point group: c1

    Geometry (in Angstrom), charge = 0, multiplicity = 1:

       Center              X                  Y                   Z               Mass
    ------------   -----------------  -----------------  -----------------  -----------------
         O            1.398997571125    -1.091572046751    -0.238455130168    15.994914619570
         O           -1.507049428875     0.932567953249    -0.387304130168    15.994914619570
         O           -1.168186428875    -1.106640046751     0.554607869832    15.994914619570
         C            0.711709571125     0.140024953249    -0.388606130168    12.000000000000
         C            1.288408571125     1.234793953249     0.506426869832    12.000000000000
         C           -0.714393728875    -0.087627946751    -0.038649030168    12.000000000000
         H            0.717702571125     0.477826953249    -1.435659130168     1.007825032230
         H            1.257229571125     0.903367953249     1.547378869832     1.007825032230
         H            0.725382571125     2.164778953249     0.402579869832     1.007825032230
         H            2.330717571125     1.429172953249     0.234188869832     1.007825032230
         H            2.328198571125    -0.924316046751    -0.471878130168     1.007825032230
         H           -2.413303428875     0.709497953249    -0.090070130168     1.007825032230

  Basis Set: AUG-CC-PVTZ
    Blend: AUG-CC-PVTZ
  Basis Set: (AUG-CC-PVTZ AUX)
    Blend: AUG-CC-PVTZ-JKFIT
	 Reference Energy          =    -341.8213605724241688 [Eh]
	 Singles Energy            =      -0.0000000000000000 [Eh]
	 Same-Spin Energy          =      -0.3278788364505302 [Eh]
	 Opposite-Spin Energy      =      -1.0143757492217591 [Eh]
	 Correlation Energy        =      -1.3422545856722894 [Eh]
	 Total Energy              =    -343.1636151580964338 [Eh]

	 ================> DF-SCS-MP2 Energies <==================
	-----------------------------------------------------------
	 SCS Same-Spin Scale       =       0.3333333333333333 [-]
	 SCS Opposite-Spin Scale   =       1.2000000000000000 [-]
	 SCS Same-Spin Energy      =      -0.1092929454835101 [Eh]
	 SCS Opposite-Spin Energy  =      -1.2172508990661108 [Eh]
	 SCS Correlation Energy    =      -1.3265438445496209 [Eh]
	 SCS Total Energy          =    -343.1479044169738017 [Eh]
	-----------------------------------------------------------

  Dipole Moment: [D]
     X:     1.2689      Y:     3.0946      Z:    -1.0983     Total:     3.5204

*** Psi4 exiting successfully. Buy a developer a beer!
