                               Psi4 1.4a3.dev225

  ==> Input File <==

--------------------------------------------------------------------------
#psi4
#
memory 32 gb

molecule  {
0 1
  O        1.3501930    -1.1356630    -0.2433140
  O       -1.5558540     0.8884770    -0.3921630
  O       -1.2169910    -1.1507310     0.5497490
  C        0.6629050     0.0959340    -0.3934650
  C        1.2396040     1.1907030     0.5015680
  C       -0.7811570    -0.1720460    -0.0200300
  H        0.6688980     0.4337360    -1.4405180
  H        1.2084250     0.8592770     1.5425200
  H        0.6765780     2.1206880     0.3977210
  H        2.2819130     1.3850820     0.2293300
  H        2.2316232    -0.9770057    -0.4647366
  H       -2.4621080     0.6654070    -0.0949290
units angstrom
no_reorient  #important for SAPT in psi4, default
symmetry c1  #important for SAPT in psi4, default
}

set PROPERTIES_ORIGIN ["COM"]
properties('MP2/aug-cc-pvtz', properties = ['dipole'])
--------------------------------------------------------------------------

    Molecular point group: c1
  Charge       = 0
  Multiplicity = 1
  Basis Set: AUG-CC-PVTZ
    Blend: AUG-CC-PVTZ
  Basis Set: (AUG-CC-PVTZ AUX)
    Blend: AUG-CC-PVTZ-JKFIT

    Orbital Energies [Eh]
    ---------------------

    Doubly Occupied:

       1A    -20.619644     2A    -20.570702     3A    -20.554785
       4A    -11.390473     5A    -11.314395     6A    -11.241297
       7A     -1.463776     8A     -1.391468     9A     -1.358396
      10A     -1.058453    11A     -0.923468    12A     -0.806203
      13A     -0.733805    14A     -0.703715    15A     -0.665362
      16A     -0.655456    17A     -0.618329    18A     -0.602907
      19A     -0.564433    20A     -0.557816    21A     -0.525746
      22A     -0.485523    23A     -0.465157    24A     -0.451468

  @DF-RHF Final Energy:  -341.82991816737353

   => Energetics <=

    Nuclear Repulsion Energy =            248.9017955382666969
    One-Electron Energy =                -962.0178722973032563
    Two-Electron Energy =                 371.2861585916630247
    Total Energy =                       -341.8299181673735347
  Basis Set: (AUG-CC-PVTZ AUX)
    Blend: AUG-CC-PVTZ-RI
    Molecular point group: c1

    Geometry (in Angstrom), charge = 0, multiplicity = 1:

       Center              X                  Y                   Z               Mass
    ------------   -----------------  -----------------  -----------------  -----------------
         O            1.401925973293    -1.086100738116    -0.241718748682    15.994914619570
         O           -1.504121026707     0.938039261884    -0.390567748682    15.994914619570
         O           -1.165258026707    -1.101168738116     0.551344251318    15.994914619570
         C            0.714637973293     0.145496261884    -0.391869748682    12.000000000000
         C            1.291336973293     1.240265261884     0.503163251318    12.000000000000
         C           -0.729424026707    -0.122483738116    -0.018434748682    12.000000000000
         H            0.720630973293     0.483298261884    -1.438922748682     1.007825032230
         H            1.260157973293     0.908839261884     1.544115251318     1.007825032230
         H            0.728310973293     2.170250261884     0.399316251318     1.007825032230
         H            2.333645973293     1.434644261884     0.230925251318     1.007825032230
         H            2.283356173293    -0.927443438116    -0.463141348682     1.007825032230
         H           -2.410375026707     0.714969261884    -0.093333748682     1.007825032230

  Basis Set: AUG-CC-PVTZ
    Blend: AUG-CC-PVTZ
  Basis Set: (AUG-CC-PVTZ AUX)
    Blend: AUG-CC-PVTZ-JKFIT
	 Reference Energy          =    -341.8299181673735347 [Eh]
	 Singles Energy            =      -0.0000000000000000 [Eh]
	 Same-Spin Energy          =      -0.3262158270066090 [Eh]
	 Opposite-Spin Energy      =      -1.0109823763202874 [Eh]
	 Correlation Energy        =      -1.3371982033268965 [Eh]
	 Total Energy              =    -343.1671163707004553 [Eh]

	 ================> DF-SCS-MP2 Energies <==================
	-----------------------------------------------------------
	 SCS Same-Spin Scale       =       0.3333333333333333 [-]
	 SCS Opposite-Spin Scale   =       1.2000000000000000 [-]
	 SCS Same-Spin Energy      =      -0.1087386090022030 [Eh]
	 SCS Opposite-Spin Energy  =      -1.2131788515843449 [Eh]
	 SCS Correlation Energy    =      -1.3219174605865478 [Eh]
	 SCS Total Energy          =    -343.1518356279601107 [Eh]
	-----------------------------------------------------------

  Dipole Moment: [D]
     X:     1.1725      Y:     2.8037      Z:    -0.9481     Total:     3.1835

*** Psi4 exiting successfully. Buy a developer a beer!
