                               Psi4 1.4a3.dev225

  ==> Input File <==

--------------------------------------------------------------------------
#psi4
#
memory 32 gb

molecule  {
0 1
  O        1.3501930    -1.1356630    -0.2433140
  O       -1.5558540     0.8884770    -0.3921630
  O       -1.2169910    -1.1507310     0.5497490
  C        0.6629050     0.0959340    -0.3934650
  C        1.2320514     1.1763656     0.4898464
  C       -0.7811570    -0.1720460    -0.0200300
  H        0.6688980     0.4337360    -1.4405180
  H        1.2084250     0.8592770     1.5425200
  H        0.6765780     2.1206880     0.3977210
  H        2.2819130     1.3850820     0.2293300
  H        2.2793940    -0.9684070    -0.4767370
  H       -2.4621080     0.6654070    -0.0949290
units angstrom
no_reorient  #important for SAPT in psi4, default
symmetry c1  #important for SAPT in psi4, default
}

set PROPERTIES_ORIGIN ["COM"]
properties('MP2/aug-cc-pvtz', properties = ['dipole'])
--------------------------------------------------------------------------

    Molecular point group: c1
  Charge       = 0
  Multiplicity = 1
  Basis Set: AUG-CC-PVTZ
    Blend: AUG-CC-PVTZ
  Basis Set: (AUG-CC-PVTZ AUX)
    Blend: AUG-CC-PVTZ-JKFIT

    Orbital Energies [Eh]
    ---------------------

    Doubly Occupied:

       1A    -20.619568     2A    -20.575282     3A    -20.554801
       4A    -11.390442     5A    -11.313087     6A    -11.241514
       7A     -1.463639     8A     -1.381414     9A     -1.357200
      10A     -1.058875    11A     -0.920931    12A     -0.802795
      13A     -0.730956    14A     -0.703697    15A     -0.660283
      16A     -0.656551    17A     -0.617323    18A     -0.602324
      19A     -0.562320    20A     -0.554581    21A     -0.522218
      22A     -0.485362    23A     -0.466109    24A     -0.450901

  @DF-RHF Final Energy:  -341.82870587093976

   => Energetics <=

    Nuclear Repulsion Energy =            248.9061363743722097
    One-Electron Energy =                -962.0853412620521112
    Two-Electron Energy =                 371.3504990167401729
    Total Energy =                       -341.8287058709397570
  Basis Set: (AUG-CC-PVTZ AUX)
    Blend: AUG-CC-PVTZ-RI
    Molecular point group: c1

    Geometry (in Angstrom), charge = 0, multiplicity = 1:

       Center              X                  Y                   Z               Mass
    ------------   -----------------  -----------------  -----------------  -----------------
         O            1.402397880352    -1.084286012573    -0.240022085022    15.994914619570
         O           -1.503649119648     0.939853987427    -0.388871085022    15.994914619570
         O           -1.164786119648    -1.099354012573     0.553040914978    15.994914619570
         C            0.715109880352     0.147310987427    -0.390173085022    12.000000000000
         C            1.284256280352     1.227742587427     0.493138314978    12.000000000000
         C           -0.728952119648    -0.120669012573    -0.016738085022    12.000000000000
         H            0.721102880352     0.485112987427    -1.437226085022     1.007825032230
         H            1.260629880352     0.910653987427     1.545811914978     1.007825032230
         H            0.728782880352     2.172064987427     0.401012914978     1.007825032230
         H            2.334117880352     1.436458987427     0.232621914978     1.007825032230
         H            2.331598880352    -0.917030012573    -0.473445085022     1.007825032230
         H           -2.409903119648     0.716783987427    -0.091637085022     1.007825032230

  Basis Set: AUG-CC-PVTZ
    Blend: AUG-CC-PVTZ
  Basis Set: (AUG-CC-PVTZ AUX)
    Blend: AUG-CC-PVTZ-JKFIT
	 Reference Energy          =    -341.8287058709397570 [Eh]
	 Singles Energy            =      -0.0000000000000000 [Eh]
	 Same-Spin Energy          =      -0.3269359955706920 [Eh]
	 Opposite-Spin Energy      =      -1.0126114751639221 [Eh]
	 Correlation Energy        =      -1.3395474707346140 [Eh]
	 Total Energy              =    -343.1682533416743581 [Eh]

	 ================> DF-SCS-MP2 Energies <==================
	-----------------------------------------------------------
	 SCS Same-Spin Scale       =       0.3333333333333333 [-]
	 SCS Opposite-Spin Scale   =       1.2000000000000000 [-]
	 SCS Same-Spin Energy      =      -0.1089786651902307 [Eh]
	 SCS Opposite-Spin Energy  =      -1.2151337701967064 [Eh]
	 SCS Correlation Energy    =      -1.3241124353869371 [Eh]
	 SCS Total Energy          =    -343.1528183063267079 [Eh]
	-----------------------------------------------------------

  Dipole Moment: [D]
     X:     1.2060      Y:     2.8029      Z:    -0.9528     Total:     3.1966

*** Psi4 exiting successfully. Buy a developer a beer!
