                               Psi4 1.4a3.dev225

  ==> Input File <==

--------------------------------------------------------------------------
#psi4
#
memory 32 gb

molecule  {
0 1
  O        1.3501930    -1.1356630    -0.2433140
  O       -1.5558540     0.8884770    -0.3921630
  O       -1.2169910    -1.1507310     0.5497490
  C        0.6629050     0.0959340    -0.3934650
  C        1.2396040     1.1907030     0.5015680
  C       -0.7925075    -0.1565077    -0.0254823
  H        0.6688980     0.4337360    -1.4405180
  H        1.2084250     0.8592770     1.5425200
  H        0.6765780     2.1206880     0.3977210
  H        2.2819130     1.3850820     0.2293300
  H        2.2793940    -0.9684070    -0.4767370
  H       -2.4621080     0.6654070    -0.0949290
units angstrom
no_reorient  #important for SAPT in psi4, default
symmetry c1  #important for SAPT in psi4, default
}

set PROPERTIES_ORIGIN ["COM"]
properties('MP2/aug-cc-pvtz', properties = ['dipole'])
--------------------------------------------------------------------------

    Molecular point group: c1
  Charge       = 0
  Multiplicity = 1
  Basis Set: AUG-CC-PVTZ
    Blend: AUG-CC-PVTZ
  Basis Set: (AUG-CC-PVTZ AUX)
    Blend: AUG-CC-PVTZ-JKFIT

    Orbital Energies [Eh]
    ---------------------

    Doubly Occupied:

       1A    -20.625176     2A    -20.574793     3A    -20.551386
       4A    -11.390744     5A    -11.313431     6A    -11.240476
       7A     -1.469842     8A     -1.380640     9A     -1.352848
      10A     -1.054744    11A     -0.921951    12A     -0.808206
      13A     -0.728329    14A     -0.706187    15A     -0.661475
      16A     -0.655354    17A     -0.618779    18A     -0.602252
      19A     -0.562461    20A     -0.556261    21A     -0.522103
      22A     -0.481832    23A     -0.462887    24A     -0.449025

  @DF-RHF Final Energy:  -341.82853697880284

   => Energetics <=

    Nuclear Repulsion Energy =            248.5445268881285870
    One-Electron Energy =                -961.3637636322507660
    Two-Electron Energy =                 370.9906997653193912
    Total Energy =                       -341.8285369788028447
  Basis Set: (AUG-CC-PVTZ AUX)
    Blend: AUG-CC-PVTZ-RI
    Molecular point group: c1

    Geometry (in Angstrom), charge = 0, multiplicity = 1:

       Center              X                  Y                   Z               Mass
    ------------   -----------------  -----------------  -----------------  -----------------
         O            1.402904088754    -1.088268036945    -0.240857697422    15.994914619570
         O           -1.503142911246     0.935871963055    -0.389706697422    15.994914619570
         O           -1.164279911246    -1.103336036945     0.552205302578    15.994914619570
         C            0.715616088754     0.143328963055    -0.391008697422    12.000000000000
         C            1.292315088754     1.238097963055     0.504024302578    12.000000000000
         C           -0.739796411246    -0.109112736945    -0.023025997422    12.000000000000
         H            0.721609088754     0.481130963055    -1.438061697422     1.007825032230
         H            1.261136088754     0.906671963055     1.544976302578     1.007825032230
         H            0.729289088754     2.168082963055     0.400177302578     1.007825032230
         H            2.334624088754     1.432476963055     0.231786302578     1.007825032230
         H            2.332105088754    -0.921012036945    -0.474280697422     1.007825032230
         H           -2.409396911246     0.712801963055    -0.092472697422     1.007825032230

  Basis Set: AUG-CC-PVTZ
    Blend: AUG-CC-PVTZ
  Basis Set: (AUG-CC-PVTZ AUX)
    Blend: AUG-CC-PVTZ-JKFIT
	 Reference Energy          =    -341.8285369788028447 [Eh]
	 Singles Energy            =      -0.0000000000000000 [Eh]
	 Same-Spin Energy          =      -0.3268999212750688 [Eh]
	 Opposite-Spin Energy      =      -1.0125329067833804 [Eh]
	 Correlation Energy        =      -1.3394328280584491 [Eh]
	 Total Energy              =    -343.1679698068613220 [Eh]

	 ================> DF-SCS-MP2 Energies <==================
	-----------------------------------------------------------
	 SCS Same-Spin Scale       =       0.3333333333333333 [-]
	 SCS Opposite-Spin Scale   =       1.2000000000000000 [-]
	 SCS Same-Spin Energy      =      -0.1089666404250229 [Eh]
	 SCS Opposite-Spin Energy  =      -1.2150394881400564 [Eh]
	 SCS Correlation Energy    =      -1.3240061285650793 [Eh]
	 SCS Total Energy          =    -343.1525431073679329 [Eh]
	-----------------------------------------------------------

  Dipole Moment: [D]
     X:     1.1264      Y:     2.9189      Z:    -1.0088     Total:     3.2873

*** Psi4 exiting successfully. Buy a developer a beer!
