                               Psi4 1.3.2 release

  ==> Input File <==

--------------------------------------------------------------------------
#psi4
#
memory 32 gb

molecule  {
0 1
  O       -1.3597980    -1.1437690     0.1887320
  O        1.4219100     1.0495746     0.3064908
  O        1.2177151    -1.1072448    -0.4504777
  C       -0.7180600     0.1031850     0.3873850
  C       -1.3431230     1.2084980    -0.4569850
  C        0.7367530    -0.0975110     0.0221890
  H       -0.7373290     0.3987270     1.4472430
  H       -1.2930290     0.9302150    -1.5111840
  H       -0.8256550     2.1573260    -0.3051780
  H       -2.3949050     1.3388590    -0.1830910
  H       -2.2729280    -1.0415480     0.5084360
  H        2.3630120     0.8399890     0.0298380
units angstrom
no_reorient  #important for SAPT in psi4, default
symmetry c1  #important for SAPT in psi4, default
}

set PROPERTIES_ORIGIN ["COM"]
properties('MP2/aug-cc-pvtz', properties = ['dipole'])
--------------------------------------------------------------------------

    Molecular point group: c1
  Charge       = 0
  Multiplicity = 1
  Basis Set: AUG-CC-PVTZ
    Blend: AUG-CC-PVTZ
  Basis Set: (AUG-CC-PVTZ AUX)
    Blend: AUG-CC-PVTZ-JKFIT

    Orbital Energies [Eh]
    ---------------------

    Doubly Occupied:

       1A    -20.624289     2A    -20.573671     3A    -20.556134
       4A    -11.390578     5A    -11.311176     6A    -11.237965
       7A     -1.461274     8A     -1.380537     9A     -1.357746
      10A     -1.053964    11A     -0.919595    12A     -0.797936
      13A     -0.730058    14A     -0.705790    15A     -0.661723
      16A     -0.650114    17A     -0.613271    18A     -0.601710
      19A     -0.563911    20A     -0.557757    21A     -0.521152
      22A     -0.486722    23A     -0.462067    24A     -0.450695

  @DF-RHF Final Energy:  -341.82600652414845

   => Energetics <=

    Nuclear Repulsion Energy =            248.8081480620869286
    One-Electron Energy =                -961.9286403527188440
    Two-Electron Energy =                 371.2944857664834331
    Total Energy =                       -341.8260065241484540
  Basis Set: (AUG-CC-PVTZ AUX)
    Blend: AUG-CC-PVTZ-RI
    Molecular point group: c1

    Geometry (in Angstrom), charge = 0, multiplicity = 1:

       Center              X                  Y                   Z               Mass
    ------------   -----------------  -----------------  -----------------  -----------------
         O           -1.352870967174    -1.143912217832     0.187257885735    15.994914619570
         O            1.428837032826     1.049431382168     0.305016685735    15.994914619570
         O            1.224642132826    -1.107388017832    -0.451951814265    15.994914619570
         C           -0.711132967174     0.103041782168     0.385910885735    12.000000000000
         C           -1.336195967174     1.208354782168    -0.458459114265    12.000000000000
         C            0.743680032826    -0.097654217832     0.020714885735    12.000000000000
         H           -0.730401967174     0.398583782168     1.445768885735     1.007825032230
         H           -1.286101967174     0.930071782168    -1.512658114265     1.007825032230
         H           -0.818727967174     2.157182782168    -0.306652114265     1.007825032230
         H           -2.387977967174     1.338715782168    -0.184565114265     1.007825032230
         H           -2.266000967174    -1.041691217832     0.506961885735     1.007825032230
         H            2.369939032826     0.839845782168     0.028363885735     1.007825032230

  Basis Set: AUG-CC-PVTZ
    Blend: AUG-CC-PVTZ
  Basis Set: (AUG-CC-PVTZ AUX)
    Blend: AUG-CC-PVTZ-JKFIT
	 Reference Energy          =    -341.8260065241484540 [Eh]
	 Singles Energy            =      -0.0000000000000000 [Eh]
	 Same-Spin Energy          =      -0.3274258429076404 [Eh]
	 Opposite-Spin Energy      =      -1.0137007859605349 [Eh]
	 Correlation Energy        =      -1.3411266288681754 [Eh]
	 Total Energy              =    -343.1671331530166071 [Eh]

	 ================> DF-SCS-MP2 Energies <==================
	-----------------------------------------------------------
	 SCS Same-Spin Scale       =       0.3333333333333333 [-]
	 SCS Opposite-Spin Scale   =       1.2000000000000000 [-]
	 SCS Same-Spin Energy      =      -0.1091419476358801 [Eh]
	 SCS Opposite-Spin Energy  =      -1.2164409431526420 [Eh]
	 SCS Correlation Energy    =      -1.3255828907885221 [Eh]
	 SCS Total Energy          =    -343.1515894149369501 [Eh]
	-----------------------------------------------------------

  Dipole Moment: [D]
     X:    -1.2045      Y:     2.7237      Z:     1.0483     Total:     3.1572

*** Psi4 exiting successfully. Buy a developer a beer!
