                               Psi4 1.3.2 release

  ==> Input File <==

--------------------------------------------------------------------------
#psi4
#
memory 32 gb

molecule  {
0 1
  O       -1.3597980    -1.1437690     0.1887320
  O        1.4419330     1.0393260     0.2985870
  O        1.2366830    -1.0978030    -0.4508720
  C       -0.7180600     0.1031850     0.3873850
  C       -1.3431230     1.2084980    -0.4569850
  C        0.7769548    -0.1175643     0.0062140
  H       -0.7373290     0.3987270     1.4472430
  H       -1.2930290     0.9302150    -1.5111840
  H       -0.8256550     2.1573260    -0.3051780
  H       -2.3949050     1.3388590    -0.1830910
  H       -2.2729280    -1.0415480     0.5084360
  H        2.3528356     0.8087546     0.0203045
units angstrom
no_reorient  #important for SAPT in psi4, default
symmetry c1  #important for SAPT in psi4, default
}

set PROPERTIES_ORIGIN ["COM"]
properties('MP2/aug-cc-pvtz', properties = ['dipole'])
--------------------------------------------------------------------------

    Molecular point group: c1
  Charge       = 0
  Multiplicity = 1
  Basis Set: AUG-CC-PVTZ
    Blend: AUG-CC-PVTZ
  Basis Set: (AUG-CC-PVTZ AUX)
    Blend: AUG-CC-PVTZ-JKFIT

    Orbital Energies [Eh]
    ---------------------

    Doubly Occupied:

       1A    -20.619877     2A    -20.572216     3A    -20.560513
       4A    -11.386535     5A    -11.310383     6A    -11.235577
       7A     -1.475070     8A     -1.385111     9A     -1.371549
      10A     -1.045797    11A     -0.911179    12A     -0.796693
      13A     -0.727986    14A     -0.713201    15A     -0.667089
      16A     -0.651109    17A     -0.616114    18A     -0.603869
      19A     -0.563241    20A     -0.559213    21A     -0.522433
      22A     -0.498635    23A     -0.460223    24A     -0.446642

  @DF-RHF Final Energy:  -341.82838649335866

   => Energetics <=

    Nuclear Repulsion Energy =            248.7905821325719273
    One-Electron Energy =                -961.8374323985621004
    Two-Electron Energy =                 371.2184637726315373
    Total Energy =                       -341.8283864933586642
  Basis Set: (AUG-CC-PVTZ AUX)
    Blend: AUG-CC-PVTZ-RI
    Molecular point group: c1

    Geometry (in Angstrom), charge = 0, multiplicity = 1:

       Center              X                  Y                   Z               Mass
    ------------   -----------------  -----------------  -----------------  -----------------
         O           -1.365042477411    -1.140746409276     0.190968084732    15.994914619570
         O            1.436688522589     1.042348590724     0.300823084732    15.994914619570
         O            1.231438522589    -1.094780409276    -0.448635915268    15.994914619570
         C           -0.723304477411     0.106207590724     0.389621084732    12.000000000000
         C           -1.348367477411     1.211520590724    -0.454748915268    12.000000000000
         C            0.771710322589    -0.114541709276     0.008450084732    12.000000000000
         H           -0.742573477411     0.401749590724     1.449479084732     1.007825032230
         H           -1.298273477411     0.933237590724    -1.508947915268     1.007825032230
         H           -0.830899477411     2.160348590724    -0.302941915268     1.007825032230
         H           -2.400149477411     1.341881590724    -0.180854915268     1.007825032230
         H           -2.278172477411    -1.038525409276     0.510672084732     1.007825032230
         H            2.347591122589     0.811777190724     0.022540584732     1.007825032230

  Basis Set: AUG-CC-PVTZ
    Blend: AUG-CC-PVTZ
  Basis Set: (AUG-CC-PVTZ AUX)
    Blend: AUG-CC-PVTZ-JKFIT
	 Reference Energy          =    -341.8283864933586642 [Eh]
	 Singles Energy            =      -0.0000000000000000 [Eh]
	 Same-Spin Energy          =      -0.3261074918779537 [Eh]
	 Opposite-Spin Energy      =      -1.0109950571981225 [Eh]
	 Correlation Energy        =      -1.3371025490760764 [Eh]
	 Total Energy              =    -343.1654890424347286 [Eh]

	 ================> DF-SCS-MP2 Energies <==================
	-----------------------------------------------------------
	 SCS Same-Spin Scale       =       0.3333333333333333 [-]
	 SCS Opposite-Spin Scale   =       1.2000000000000000 [-]
	 SCS Same-Spin Energy      =      -0.1087024972926512 [Eh]
	 SCS Opposite-Spin Energy  =      -1.2131940686377469 [Eh]
	 SCS Correlation Energy    =      -1.3218965659303983 [Eh]
	 SCS Total Energy          =    -343.1502830592890518 [Eh]
	-----------------------------------------------------------

  Dipole Moment: [D]
     X:    -1.1197      Y:     2.5174      Z:     0.9693     Total:     2.9207

*** Psi4 exiting successfully. Buy a developer a beer!
