                               Psi4 1.3.2 release

  ==> Input File <==

--------------------------------------------------------------------------
#psi4
#
memory 32 gb

molecule  {
0 1
  O       -1.3597980    -1.1437690     0.1887320
  O        1.4419330     1.0393260     0.2985870
  O        1.2366830    -1.0978030    -0.4508720
  C       -0.7180600     0.1031850     0.3873850
  C       -1.4251028     1.3534647    -0.5677279
  C        0.7367530    -0.0975110     0.0221890
  H       -0.7373290     0.3987270     1.4472430
  H       -1.2930290     0.9302150    -1.5111840
  H       -0.8256550     2.1573260    -0.3051780
  H       -2.3949050     1.3388590    -0.1830910
  H       -2.2729280    -1.0415480     0.5084360
  H        2.3630120     0.8399890     0.0298380
units angstrom
no_reorient  #important for SAPT in psi4, default
symmetry c1  #important for SAPT in psi4, default
}

set PROPERTIES_ORIGIN ["COM"]
properties('MP2/aug-cc-pvtz', properties = ['dipole'])
--------------------------------------------------------------------------

    Molecular point group: c1
  Charge       = 0
  Multiplicity = 1
  Basis Set: AUG-CC-PVTZ
    Blend: AUG-CC-PVTZ
  Basis Set: (AUG-CC-PVTZ AUX)
    Blend: AUG-CC-PVTZ-JKFIT

    Orbital Energies [Eh]
    ---------------------

    Doubly Occupied:

       1A    -20.618471     2A    -20.576741     3A    -20.552735
       4A    -11.389031     5A    -11.318124     6A    -11.239931
       7A     -1.461457     8A     -1.379700     9A     -1.355092
      10A     -1.032410    11A     -0.932384    12A     -0.800716
      13A     -0.725431    14A     -0.702318    15A     -0.659243
      16A     -0.640101    17A     -0.620007    18A     -0.607822
      19A     -0.584104    20A     -0.568215    21A     -0.525159
      22A     -0.484227    23A     -0.453498    24A     -0.426335

  @DF-RHF Final Energy:  -341.80263989274579

   => Energetics <=

    Nuclear Repulsion Energy =            245.6581465710549708
    One-Electron Energy =                -955.6150686750822842
    Two-Electron Energy =                 368.1542822112814974
    Total Energy =                       -341.8026398927457876
  Basis Set: (AUG-CC-PVTZ AUX)
    Blend: AUG-CC-PVTZ-RI
    Molecular point group: c1

    Geometry (in Angstrom), charge = 0, multiplicity = 1:

       Center              X                  Y                   Z               Mass
    ------------   -----------------  -----------------  -----------------  -----------------
         O           -1.348871248105    -1.163090971726     0.203492637468    15.994914619570
         O            1.452859751895     1.020004028274     0.313347637468    15.994914619570
         O            1.247609751895    -1.117124971726    -0.436111362532    15.994914619570
         C           -0.707133248105     0.083863028274     0.402145637468    12.000000000000
         C           -1.414176048105     1.334142728274    -0.552967262532    12.000000000000
         C            0.747679751895    -0.116832971726     0.036949637468    12.000000000000
         H           -0.726402248105     0.379405028274     1.462003637468     1.007825032230
         H           -1.282102248105     0.910893028274    -1.496423362532     1.007825032230
         H           -0.814728248105     2.138004028274    -0.290417362532     1.007825032230
         H           -2.383978248105     1.319537028274    -0.168330362532     1.007825032230
         H           -2.262001248105    -1.060869971726     0.523196637468     1.007825032230
         H            2.373938751895     0.820667028274     0.044598637468     1.007825032230

  Basis Set: AUG-CC-PVTZ
    Blend: AUG-CC-PVTZ
  Basis Set: (AUG-CC-PVTZ AUX)
    Blend: AUG-CC-PVTZ-JKFIT
	 Reference Energy          =    -341.8026398927457876 [Eh]
	 Singles Energy            =      -0.0000000000000000 [Eh]
	 Same-Spin Energy          =      -0.3269713956709415 [Eh]
	 Opposite-Spin Energy      =      -1.0139151899278662 [Eh]
	 Correlation Energy        =      -1.3408865855988077 [Eh]
	 Total Energy              =    -343.1435264783445973 [Eh]

	 ================> DF-SCS-MP2 Energies <==================
	-----------------------------------------------------------
	 SCS Same-Spin Scale       =       0.3333333333333333 [-]
	 SCS Opposite-Spin Scale   =       1.2000000000000000 [-]
	 SCS Same-Spin Energy      =      -0.1089904652236472 [Eh]
	 SCS Opposite-Spin Energy  =      -1.2166982279134395 [Eh]
	 SCS Correlation Energy    =      -1.3256886931370866 [Eh]
	 SCS Total Energy          =    -343.1283285858828549 [Eh]
	-----------------------------------------------------------

  Dipole Moment: [D]
     X:    -1.3658      Y:     2.5935      Z:     1.1236     Total:     3.1391

*** Psi4 exiting successfully. Buy a developer a beer!
