                               Psi4 1.3.2 release

  ==> Input File <==

--------------------------------------------------------------------------
#psi4
#
memory 32 gb

molecule  {
0 1
  O       -1.3597980    -1.1437690     0.1887320
  O        1.4518643     1.0340716     0.2946034
  O        1.2461102    -1.0929676    -0.4510151
  C       -0.7180600     0.1031850     0.3873850
  C       -1.3431230     1.2084980    -0.4569850
  C        0.7367530    -0.0975110     0.0221890
  H       -0.7373290     0.3987270     1.4472430
  H       -1.2930290     0.9302150    -1.5111840
  H       -0.8256550     2.1573260    -0.3051780
  H       -2.3949050     1.3388590    -0.1830910
  H       -2.2729280    -1.0415480     0.5084360
  H        2.3630120     0.8399890     0.0298380
units angstrom
no_reorient  #important for SAPT in psi4, default
symmetry c1  #important for SAPT in psi4, default
}

set PROPERTIES_ORIGIN ["COM"]
properties('MP2/aug-cc-pvtz', properties = ['dipole'])
--------------------------------------------------------------------------

    Molecular point group: c1
  Charge       = 0
  Multiplicity = 1
  Basis Set: AUG-CC-PVTZ
    Blend: AUG-CC-PVTZ
  Basis Set: (AUG-CC-PVTZ AUX)
    Blend: AUG-CC-PVTZ-JKFIT

    Orbital Energies [Eh]
    ---------------------

    Doubly Occupied:

       1A    -20.617323     2A    -20.575897     3A    -20.554147
       4A    -11.390474     5A    -11.314656     6A    -11.239567
       7A     -1.464295     8A     -1.382299     9A     -1.356330
      10A     -1.056607    11A     -0.922554    12A     -0.805133
      13A     -0.731755    14A     -0.704311    15A     -0.663216
      16A     -0.651094    17A     -0.614069    18A     -0.602919
      19A     -0.565664    20A     -0.558341    21A     -0.522510
      22A     -0.484581    23A     -0.464000    24A     -0.451458

  @DF-RHF Final Energy:  -341.82986419408650

   => Energetics <=

    Nuclear Repulsion Energy =            248.6642481274832335
    One-Electron Energy =                -961.6018210532993180
    Two-Electron Energy =                 371.1077087317295877
    Total Energy =                       -341.8298641940864968
  Basis Set: (AUG-CC-PVTZ AUX)
    Blend: AUG-CC-PVTZ-RI
    Molecular point group: c1

    Geometry (in Angstrom), charge = 0, multiplicity = 1:

       Center              X                  Y                   Z               Mass
    ------------   -----------------  -----------------  -----------------  -----------------
         O           -1.363237246304    -1.143694443785     0.189465259674    15.994914619570
         O            1.448425053696     1.034146156215     0.295336659674    15.994914619570
         O            1.242670953696    -1.092893043785    -0.450281840326    15.994914619570
         C           -0.721499246304     0.103259556215     0.388118259674    12.000000000000
         C           -1.346562246304     1.208572556215    -0.456251740326    12.000000000000
         C            0.733313753696    -0.097436443785     0.022922259674    12.000000000000
         H           -0.740768246304     0.398801556215     1.447976259674     1.007825032230
         H           -1.296468246304     0.930289556215    -1.510450740326     1.007825032230
         H           -0.829094246304     2.157400556215    -0.304444740326     1.007825032230
         H           -2.398344246304     1.338933556215    -0.182357740326     1.007825032230
         H           -2.276367246304    -1.041473443785     0.509169259674     1.007825032230
         H            2.359572753696     0.840063556215     0.030571259674     1.007825032230

  Basis Set: AUG-CC-PVTZ
    Blend: AUG-CC-PVTZ
  Basis Set: (AUG-CC-PVTZ AUX)
    Blend: AUG-CC-PVTZ-JKFIT
	 Reference Energy          =    -341.8298641940864968 [Eh]
	 Singles Energy            =      -0.0000000000000000 [Eh]
	 Same-Spin Energy          =      -0.3266042752981985 [Eh]
	 Opposite-Spin Energy      =      -1.0119921771822344 [Eh]
	 Correlation Energy        =      -1.3385964524804330 [Eh]
	 Total Energy              =    -343.1684606465669276 [Eh]

	 ================> DF-SCS-MP2 Energies <==================
	-----------------------------------------------------------
	 SCS Same-Spin Scale       =       0.3333333333333333 [-]
	 SCS Opposite-Spin Scale   =       1.2000000000000000 [-]
	 SCS Same-Spin Energy      =      -0.1088680917660662 [Eh]
	 SCS Opposite-Spin Energy  =      -1.2143906126186812 [Eh]
	 SCS Correlation Energy    =      -1.3232587043847475 [Eh]
	 SCS Total Energy          =    -343.1531228984712243 [Eh]
	-----------------------------------------------------------

  Dipole Moment: [D]
     X:    -1.3716      Y:     2.7099      Z:     1.0663     Total:     3.2189

*** Psi4 exiting successfully. Buy a developer a beer!
