                               Psi4 1.3.2 release

  ==> Input File <==

--------------------------------------------------------------------------
#psi4
#
memory 32 gb

molecule  {
0 1
  O       -1.3597980    -1.1437690     0.1887320
  O        1.4419330     1.0393260     0.2985870
  O        1.2366830    -1.0978030    -0.4508720
  C       -0.7180600     0.1031850     0.3873850
  C       -1.3841129     1.2809813    -0.5123564
  C        0.7367530    -0.0975110     0.0221890
  H       -0.7373290     0.3987270     1.4472430
  H       -1.2930290     0.9302150    -1.5111840
  H       -0.8256550     2.1573260    -0.3051780
  H       -2.3949050     1.3388590    -0.1830910
  H       -2.2729280    -1.0415480     0.5084360
  H        2.3630120     0.8399890     0.0298380
units angstrom
no_reorient  #important for SAPT in psi4, default
symmetry c1  #important for SAPT in psi4, default
}

set PROPERTIES_ORIGIN ["COM"]
properties('MP2/aug-cc-pvtz', properties = ['dipole'])
--------------------------------------------------------------------------

    Molecular point group: c1
  Charge       = 0
  Multiplicity = 1
  Basis Set: AUG-CC-PVTZ
    Blend: AUG-CC-PVTZ
  Basis Set: (AUG-CC-PVTZ AUX)
    Blend: AUG-CC-PVTZ-JKFIT

    Orbital Energies [Eh]
    ---------------------

    Doubly Occupied:

       1A    -20.619100     2A    -20.575844     3A    -20.553782
       4A    -11.389711     5A    -11.316258     6A    -11.237859
       7A     -1.462324     8A     -1.380441     9A     -1.355913
      10A     -1.042262    11A     -0.927244    12A     -0.801631
      13A     -0.727872    14A     -0.703493    15A     -0.660410
      16A     -0.644196    17A     -0.615352    18A     -0.603224
      19A     -0.574166    20A     -0.566240    21A     -0.526061
      22A     -0.484767    23A     -0.454231    24A     -0.445524

  @DF-RHF Final Energy:  -341.82186740358406

   => Energetics <=

    Nuclear Repulsion Energy =            247.1489023298119889
    One-Electron Energy =                -958.6057337111710694
    Two-Electron Energy =                 369.6349639777749871
    Total Energy =                       -341.8218674035840650
  Basis Set: (AUG-CC-PVTZ AUX)
    Blend: AUG-CC-PVTZ-RI
    Molecular point group: c1

    Geometry (in Angstrom), charge = 0, multiplicity = 1:

       Center              X                  Y                   Z               Mass
    ------------   -----------------  -----------------  -----------------  -----------------
         O           -1.354334644136    -1.153429920591     0.196112369808    15.994914619570
         O            1.447396355864     1.029665079409     0.305967369808    15.994914619570
         O            1.242146355864    -1.107463920591    -0.443491630192    15.994914619570
         C           -0.712596644136     0.093524079409     0.394765369808    12.000000000000
         C           -1.378649544136     1.271320379409    -0.504976030192    12.000000000000
         C            0.742216355864    -0.107171920591     0.029569369808    12.000000000000
         H           -0.731865644136     0.389066079409     1.454623369808     1.007825032230
         H           -1.287565644136     0.920554079409    -1.503803630192     1.007825032230
         H           -0.820191644136     2.147665079409    -0.297797630192     1.007825032230
         H           -2.389441644136     1.329198079409    -0.175710630192     1.007825032230
         H           -2.267464644136    -1.051208920591     0.515816369808     1.007825032230
         H            2.368475355864     0.830328079409     0.037218369808     1.007825032230

  Basis Set: AUG-CC-PVTZ
    Blend: AUG-CC-PVTZ
  Basis Set: (AUG-CC-PVTZ AUX)
    Blend: AUG-CC-PVTZ-JKFIT
	 Reference Energy          =    -341.8218674035840650 [Eh]
	 Singles Energy            =      -0.0000000000000000 [Eh]
	 Same-Spin Energy          =      -0.3266031926239750 [Eh]
	 Opposite-Spin Energy      =      -1.0126405184937179 [Eh]
	 Correlation Energy        =      -1.3392437111176929 [Eh]
	 Total Energy              =    -343.1611111147017823 [Eh]

	 ================> DF-SCS-MP2 Energies <==================
	-----------------------------------------------------------
	 SCS Same-Spin Scale       =       0.3333333333333333 [-]
	 SCS Opposite-Spin Scale   =       1.2000000000000000 [-]
	 SCS Same-Spin Energy      =      -0.1088677308746583 [Eh]
	 SCS Opposite-Spin Energy  =      -1.2151686221924616 [Eh]
	 SCS Correlation Energy    =      -1.3240363530671200 [Eh]
	 SCS Total Energy          =    -343.1459037566511938 [Eh]
	-----------------------------------------------------------

  Dipole Moment: [D]
     X:    -1.3465      Y:     2.6631      Z:     1.0860     Total:     3.1756

*** Psi4 exiting successfully. Buy a developer a beer!
