                               Psi4 1.3.2 release

  ==> Input File <==

--------------------------------------------------------------------------
#psi4
#
memory 32 gb

molecule  {
0 1
  O       -1.3597980    -1.1437690     0.1887320
  O        1.4419330     1.0393260     0.2985870
  O        1.2366830    -1.0978030    -0.4508720
  C       -0.7180600     0.1031850     0.3873850
  C       -1.3431230     1.2084980    -0.4569850
  C        0.7169712    -0.0869634     0.0303040
  H       -0.7373290     0.3987270     1.4472430
  H       -1.2930290     0.9302150    -1.5111840
  H       -0.8256550     2.1573260    -0.3051780
  H       -2.3949050     1.3388590    -0.1830910
  H       -2.2729280    -1.0415480     0.5084360
  H        2.3676801     0.8556997     0.0347283
units angstrom
no_reorient  #important for SAPT in psi4, default
symmetry c1  #important for SAPT in psi4, default
}

set PROPERTIES_ORIGIN ["COM"]
properties('MP2/aug-cc-pvtz', properties = ['dipole'])
--------------------------------------------------------------------------

    Molecular point group: c1
  Charge       = 0
  Multiplicity = 1
  Basis Set: AUG-CC-PVTZ
    Blend: AUG-CC-PVTZ
  Basis Set: (AUG-CC-PVTZ AUX)
    Blend: AUG-CC-PVTZ-JKFIT

    Orbital Energies [Eh]
    ---------------------

    Doubly Occupied:

       1A    -20.619729     2A    -20.576595     3A    -20.552014
       4A    -11.392656     5A    -11.314709     6A    -11.240769
       7A     -1.458817     8A     -1.382729     9A     -1.345724
      10A     -1.061104    11A     -0.926597    12A     -0.805718
      13A     -0.733114    14A     -0.700772    15A     -0.662109
      16A     -0.651603    17A     -0.612078    18A     -0.600997
      19A     -0.566326    20A     -0.557757    21A     -0.521980
      22A     -0.478929    23A     -0.464286    24A     -0.451829

  @DF-RHF Final Energy:  -341.82595370700483

   => Energetics <=

    Nuclear Repulsion Energy =            248.6803559440290314
    One-Electron Energy =                -961.6547384728693260
    Two-Electron Energy =                 371.1484288218355232
    Total Energy =                       -341.8259537070048282
  Basis Set: (AUG-CC-PVTZ AUX)
    Blend: AUG-CC-PVTZ-RI
    Molecular point group: c1

    Geometry (in Angstrom), charge = 0, multiplicity = 1:

       Center              X                  Y                   Z               Mass
    ------------   -----------------  -----------------  -----------------  -----------------
         O           -1.357213650588    -1.145350601736     0.187595753800    15.994914619570
         O            1.444517349412     1.037744398264     0.297450753800    15.994914619570
         O            1.239267349412    -1.099384601736    -0.452008246200    15.994914619570
         C           -0.715475650588     0.101603398264     0.386248753800    12.000000000000
         C           -1.340538650588     1.206916398264    -0.458121246200    12.000000000000
         C            0.719555549412    -0.088545001736     0.029167753800    12.000000000000
         H           -0.734744650588     0.397145398264     1.446106753800     1.007825032230
         H           -1.290444650588     0.928633398264    -1.512320246200     1.007825032230
         H           -0.823070650588     2.155744398264    -0.306314246200     1.007825032230
         H           -2.392320650588     1.337277398264    -0.184227246200     1.007825032230
         H           -2.270343650588    -1.043129601736     0.507299753800     1.007825032230
         H            2.370264449412     0.854118098264     0.033592053800     1.007825032230

  Basis Set: AUG-CC-PVTZ
    Blend: AUG-CC-PVTZ
  Basis Set: (AUG-CC-PVTZ AUX)
    Blend: AUG-CC-PVTZ-JKFIT
	 Reference Energy          =    -341.8259537070048282 [Eh]
	 Singles Energy            =      -0.0000000000000000 [Eh]
	 Same-Spin Energy          =      -0.3273633760869443 [Eh]
	 Opposite-Spin Energy      =      -1.0135172359062321 [Eh]
	 Correlation Energy        =      -1.3408806119931764 [Eh]
	 Total Energy              =    -343.1668343189979851 [Eh]

	 ================> DF-SCS-MP2 Energies <==================
	-----------------------------------------------------------
	 SCS Same-Spin Scale       =       0.3333333333333333 [-]
	 SCS Opposite-Spin Scale   =       1.2000000000000000 [-]
	 SCS Same-Spin Energy      =      -0.1091211253623147 [Eh]
	 SCS Opposite-Spin Energy  =      -1.2162206830874784 [Eh]
	 SCS Correlation Energy    =      -1.3253418084497932 [Eh]
	 SCS Total Energy          =    -343.1512955154546489 [Eh]
	-----------------------------------------------------------

  Dipole Moment: [D]
     X:    -1.4058      Y:     2.8116      Z:     1.1039     Total:     3.3316

*** Psi4 exiting successfully. Buy a developer a beer!
