                               Psi4 1.3.2 release

  ==> Input File <==

--------------------------------------------------------------------------
#psi4
#
memory 32 gb

molecule  {
0 1
  O       -1.4232791    -1.1124028     0.2107576
  O        1.4419330     1.0393260     0.2985870
  O        1.2366830    -1.0978030    -0.4508720
  C       -0.7180600     0.1031850     0.3873850
  C       -1.3431230     1.2084980    -0.4569850
  C        0.7495604    -0.0213714     0.0399601
  H       -0.7373290     0.3987270     1.4472430
  H       -1.2930290     0.9302150    -1.5111840
  H       -0.8256550     2.1573260    -0.3051780
  H       -2.3949050     1.3388590    -0.1830910
  H       -2.2729280    -1.0415480     0.5084360
  H        2.3630120     0.8399890     0.0298380
units angstrom
no_reorient  #important for SAPT in psi4, default
symmetry c1  #important for SAPT in psi4, default
}

set PROPERTIES_ORIGIN ["COM"]
properties('MP2/aug-cc-pvtz', properties = ['dipole'])
--------------------------------------------------------------------------

    Molecular point group: c1
  Charge       = 0
  Multiplicity = 1
  Basis Set: AUG-CC-PVTZ
    Blend: AUG-CC-PVTZ
  Basis Set: (AUG-CC-PVTZ AUX)
    Blend: AUG-CC-PVTZ-JKFIT

    Orbital Energies [Eh]
    ---------------------

    Doubly Occupied:

       1A    -20.642485     2A    -20.565936     3A    -20.541126
       4A    -11.397243     5A    -11.316166     6A    -11.239002
       7A     -1.495207     8A     -1.392778     9A     -1.324488
      10A     -1.063368    11A     -0.928203    12A     -0.834361
      13A     -0.731665    14A     -0.716620    15A     -0.681964
      16A     -0.660985    17A     -0.621795    18A     -0.599051
      19A     -0.564001    20A     -0.553524    21A     -0.513233
      22A     -0.469909    23A     -0.456539    24A     -0.443365

  @DF-RHF Final Energy:  -341.81523775271796

   => Energetics <=

    Nuclear Repulsion Energy =            248.5484297159318317
    One-Electron Energy =                -961.2213142891140478
    Two-Electron Energy =                 370.8576468204643106
    Total Energy =                       -341.8152377527179624
  Basis Set: (AUG-CC-PVTZ AUX)
    Blend: AUG-CC-PVTZ-RI
    Molecular point group: c1

    Geometry (in Angstrom), charge = 0, multiplicity = 1:

       Center              X                  Y                   Z               Mass
    ------------   -----------------  -----------------  -----------------  -----------------
         O           -1.413708222020    -1.128123534267     0.204476029927    15.994914619570
         O            1.451503877980     1.023605265733     0.292305429927    15.994914619570
         O            1.246253877980    -1.113523734267    -0.457153570073    15.994914619570
         C           -0.708489122020     0.087464265733     0.381103429927    12.000000000000
         C           -1.333552122020     1.192777265733    -0.463266570073    12.000000000000
         C            0.759131277980    -0.037092134267     0.033678529927    12.000000000000
         H           -0.727758122020     0.383006265733     1.440961429927     1.007825032230
         H           -1.283458122020     0.914494265733    -1.517465570073     1.007825032230
         H           -0.816084122020     2.141605265733    -0.311459570073     1.007825032230
         H           -2.385334122020     1.323138265733    -0.189372570073     1.007825032230
         H           -2.263357122020    -1.057268734267     0.502154429927     1.007825032230
         H            2.372582877980     0.824268265733     0.023556429927     1.007825032230

  Basis Set: AUG-CC-PVTZ
    Blend: AUG-CC-PVTZ
  Basis Set: (AUG-CC-PVTZ AUX)
    Blend: AUG-CC-PVTZ-JKFIT
	 Reference Energy          =    -341.8152377527179624 [Eh]
	 Singles Energy            =      -0.0000000000000000 [Eh]
	 Same-Spin Energy          =      -0.3268787597658621 [Eh]
	 Opposite-Spin Energy      =      -1.0115344297941271 [Eh]
	 Correlation Energy        =      -1.3384131895599891 [Eh]
	 Total Energy              =    -343.1536509422779773 [Eh]

	 ================> DF-SCS-MP2 Energies <==================
	-----------------------------------------------------------
	 SCS Same-Spin Scale       =       0.3333333333333333 [-]
	 SCS Opposite-Spin Scale   =       1.2000000000000000 [-]
	 SCS Same-Spin Energy      =      -0.1089595865886207 [Eh]
	 SCS Opposite-Spin Energy  =      -1.2138413157529524 [Eh]
	 SCS Correlation Energy    =      -1.3228009023415730 [Eh]
	 SCS Total Energy          =    -343.1380386550595176 [Eh]
	-----------------------------------------------------------

  Dipole Moment: [D]
     X:    -1.0530      Y:     3.2775      Z:     1.2301     Total:     3.6557

*** Psi4 exiting successfully. Buy a developer a beer!
