                               Psi4 1.3.2 release

  ==> Input File <==

--------------------------------------------------------------------------
#psi4
#
memory 32 gb

molecule  {
0 1
  O       -1.3597980    -1.1437690     0.1887320
  O        1.4419330     1.0393260     0.2985870
  O        1.2366830    -1.0978030    -0.4508720
  C       -0.7180600     0.1031850     0.3873850
  C       -1.3431230     1.2084980    -0.4569850
  C        0.8190997    -0.2622755    -0.0557319
  H       -0.7373290     0.3987270     1.4472430
  H       -1.2930290     0.9302150    -1.5111840
  H       -0.8256550     2.1573260    -0.3051780
  H       -2.3949050     1.3388590    -0.1830910
  H       -2.2729280    -1.0415480     0.5084360
  H        2.3630120     0.8399890     0.0298380
units angstrom
no_reorient  #important for SAPT in psi4, default
symmetry c1  #important for SAPT in psi4, default
}

set PROPERTIES_ORIGIN ["COM"]
properties('MP2/aug-cc-pvtz', properties = ['dipole'])
--------------------------------------------------------------------------

    Molecular point group: c1
  Charge       = 0
  Multiplicity = 1
  Basis Set: AUG-CC-PVTZ
    Blend: AUG-CC-PVTZ
  Basis Set: (AUG-CC-PVTZ AUX)
    Blend: AUG-CC-PVTZ-JKFIT

    Orbital Energies [Eh]
    ---------------------

    Doubly Occupied:

       1A    -20.589639     2A    -20.579242     3A    -20.568861
       4A    -11.369431     5A    -11.305578     6A    -11.228940
       7A     -1.578804     8A     -1.373784     9A     -1.354452
      10A     -1.028269    11A     -0.888088    12A     -0.774879
      13A     -0.740924    14A     -0.727135    15A     -0.692988
      16A     -0.679061    17A     -0.615452    18A     -0.596041
      19A     -0.574909    20A     -0.556142    21A     -0.526185
      22A     -0.506227    23A     -0.455053    24A     -0.421060

  @DF-RHF Final Energy:  -341.74603768810169

   => Energetics <=

    Nuclear Repulsion Energy =            249.6028197129537887
    One-Electron Energy =                -963.2354234799945516
    Two-Electron Energy =                 371.8865660789390972
    Total Energy =                       -341.7460376881016941
  Basis Set: (AUG-CC-PVTZ AUX)
    Blend: AUG-CC-PVTZ-RI
    Molecular point group: c1

    Geometry (in Angstrom), charge = 0, multiplicity = 1:

       Center              X                  Y                   Z               Mass
    ------------   -----------------  -----------------  -----------------  -----------------
         O           -1.370773735009    -1.121808016438     0.199117911388    15.994914619570
         O            1.430957264991     1.061286983562     0.308972911388    15.994914619570
         O            1.225707264991    -1.075842016438    -0.440486088612    15.994914619570
         C           -0.729035735009     0.125145983562     0.397770911388    12.000000000000
         C           -1.354098735009     1.230458983562    -0.446599088612    12.000000000000
         C            0.808123964991    -0.240314516438    -0.045345988612    12.000000000000
         H           -0.748304735009     0.420687983562     1.457628911388     1.007825032230
         H           -1.304004735009     0.952175983562    -1.500798088612     1.007825032230
         H           -0.836630735009     2.179286983562    -0.294792088612     1.007825032230
         H           -2.405880735009     1.360819983562    -0.172705088612     1.007825032230
         H           -2.283903735009    -1.019587016438     0.518821911388     1.007825032230
         H            2.352036264991     0.861949983562     0.040223911388     1.007825032230

  Basis Set: AUG-CC-PVTZ
    Blend: AUG-CC-PVTZ
  Basis Set: (AUG-CC-PVTZ AUX)
    Blend: AUG-CC-PVTZ-JKFIT
	 Reference Energy          =    -341.7460376881016941 [Eh]
	 Singles Energy            =      -0.0000000000000000 [Eh]
	 Same-Spin Energy          =      -0.3238412268290242 [Eh]
	 Opposite-Spin Energy      =      -1.0072235723462937 [Eh]
	 Correlation Energy        =      -1.3310647991753179 [Eh]
	 Total Energy              =    -343.0771024872769885 [Eh]

	 ================> DF-SCS-MP2 Energies <==================
	-----------------------------------------------------------
	 SCS Same-Spin Scale       =       0.3333333333333333 [-]
	 SCS Opposite-Spin Scale   =       1.2000000000000000 [-]
	 SCS Same-Spin Energy      =      -0.1079470756096747 [Eh]
	 SCS Opposite-Spin Energy  =      -1.2086682868155523 [Eh]
	 SCS Correlation Energy    =      -1.3166153624252270 [Eh]
	 SCS Total Energy          =    -343.0626530505269329 [Eh]
	-----------------------------------------------------------

  Dipole Moment: [D]
     X:    -0.9834      Y:     1.2372      Z:     0.4959     Total:     1.6564

*** Psi4 exiting successfully. Buy a developer a beer!
