                               Psi4 1.3.2 release

  ==> Input File <==

--------------------------------------------------------------------------
#psi4
#
memory 32 gb

molecule  {
0 1
  O       -1.3597980    -1.1437690     0.1887320
  O        1.4419330     1.0393260     0.2985870
  O        1.2366830    -1.0978030    -0.4508720
  C       -0.7180600     0.1031850     0.3873850
  C       -1.3431230     1.2084980    -0.4569850
  C        0.7367530    -0.0975110     0.0221890
  H       -0.7390800     0.4255832     1.5435533
  H       -1.2930290     0.9302150    -1.5111840
  H       -0.8256550     2.1573260    -0.3051780
  H       -2.3949050     1.3388590    -0.1830910
  H       -2.2729280    -1.0415480     0.5084360
  H        2.3630120     0.8399890     0.0298380
units angstrom
no_reorient  #important for SAPT in psi4, default
symmetry c1  #important for SAPT in psi4, default
}

set PROPERTIES_ORIGIN ["COM"]
properties('MP2/aug-cc-pvtz', properties = ['dipole'])
--------------------------------------------------------------------------

    Molecular point group: c1
  Charge       = 0
  Multiplicity = 1
  Basis Set: AUG-CC-PVTZ
    Blend: AUG-CC-PVTZ
  Basis Set: (AUG-CC-PVTZ AUX)
    Blend: AUG-CC-PVTZ-JKFIT

    Orbital Energies [Eh]
    ---------------------

    Doubly Occupied:

       1A    -20.619453     2A    -20.577155     3A    -20.555398
       4A    -11.391432     5A    -11.324916     6A    -11.240109
       7A     -1.463262     8A     -1.382707     9A     -1.357220
      10A     -1.052817    11A     -0.920503    12A     -0.799684
      13A     -0.720380    14A     -0.703227    15A     -0.662614
      16A     -0.651277    17A     -0.613165    18A     -0.602635
      19A     -0.565466    20A     -0.558735    21A     -0.518687
      22A     -0.485547    23A     -0.459951    24A     -0.450215

  @DF-RHF Final Energy:  -341.82224680893842

   => Energetics <=

    Nuclear Repulsion Energy =            248.2154270051448748
    One-Electron Energy =                -960.7222376163695117
    Two-Electron Energy =                 370.6845638022862204
    Total Energy =                       -341.8222468089384165
  Basis Set: (AUG-CC-PVTZ AUX)
    Blend: AUG-CC-PVTZ-RI
    Molecular point group: c1

    Geometry (in Angstrom), charge = 0, multiplicity = 1:

       Center              X                  Y                   Z               Mass
    ------------   -----------------  -----------------  -----------------  -----------------
         O           -1.359778439274    -1.144069514145     0.187654007014    15.994914619570
         O            1.441952560726     1.039025485855     0.297509007014    15.994914619570
         O            1.236702560726    -1.098103514145    -0.451949992986    15.994914619570
         C           -0.718040439274     0.102884485855     0.386307007014    12.000000000000
         C           -1.343103439274     1.208197485855    -0.458062992986    12.000000000000
         C            0.736772560726    -0.097811514145     0.021111007014    12.000000000000
         H           -0.739060439274     0.425282685855     1.542475307014     1.007825032230
         H           -1.293009439274     0.929914485855    -1.512261992986     1.007825032230
         H           -0.825635439274     2.157025485855    -0.306255992986     1.007825032230
         H           -2.394885439274     1.338558485855    -0.184168992986     1.007825032230
         H           -2.272908439274    -1.041848514145     0.507358007014     1.007825032230
         H            2.363031560726     0.839688485855     0.028760007014     1.007825032230

  Basis Set: AUG-CC-PVTZ
    Blend: AUG-CC-PVTZ
  Basis Set: (AUG-CC-PVTZ AUX)
    Blend: AUG-CC-PVTZ-JKFIT
	 Reference Energy          =    -341.8222468089384165 [Eh]
	 Singles Energy            =      -0.0000000000000000 [Eh]
	 Same-Spin Energy          =      -0.3270412392404709 [Eh]
	 Opposite-Spin Energy      =      -1.0134249254900038 [Eh]
	 Correlation Energy        =      -1.3404661647304748 [Eh]
	 Total Energy              =    -343.1627129736688744 [Eh]

	 ================> DF-SCS-MP2 Energies <==================
	-----------------------------------------------------------
	 SCS Same-Spin Scale       =       0.3333333333333333 [-]
	 SCS Opposite-Spin Scale   =       1.2000000000000000 [-]
	 SCS Same-Spin Energy      =      -0.1090137464134903 [Eh]
	 SCS Opposite-Spin Energy  =      -1.2161099105880047 [Eh]
	 SCS Correlation Energy    =      -1.3251236570014950 [Eh]
	 SCS Total Energy          =    -343.1473704659399004 [Eh]
	-----------------------------------------------------------

  Dipole Moment: [D]
     X:    -1.3332      Y:     2.6829      Z:     1.0002     Total:     3.1585

*** Psi4 exiting successfully. Buy a developer a beer!
