                               Psi4 1.3.2 release

  ==> Input File <==

--------------------------------------------------------------------------
#psi4
#
memory 32 gb

molecule  {
0 1
  O       -1.3690772    -1.1457432     0.2372524
  O        1.4419330     1.0393260     0.2985870
  O        1.2366830    -1.0978030    -0.4508720
  C       -0.7180600     0.1031850     0.3873850
  C       -1.3431230     1.2084980    -0.4569850
  C        0.7367530    -0.0975110     0.0221890
  H       -0.7562587     0.3662775     1.4552513
  H       -1.2930290     0.9302150    -1.5111840
  H       -0.8256550     2.1573260    -0.3051780
  H       -2.3949050     1.3388590    -0.1830910
  H       -2.2729280    -1.0415480     0.5084360
  H        2.3630120     0.8399890     0.0298380
units angstrom
no_reorient  #important for SAPT in psi4, default
symmetry c1  #important for SAPT in psi4, default
}

set PROPERTIES_ORIGIN ["COM"]
properties('MP2/aug-cc-pvtz', properties = ['dipole'])
--------------------------------------------------------------------------

    Molecular point group: c1
  Charge       = 0
  Multiplicity = 1
  Basis Set: AUG-CC-PVTZ
    Blend: AUG-CC-PVTZ
  Basis Set: (AUG-CC-PVTZ AUX)
    Blend: AUG-CC-PVTZ-JKFIT

    Orbital Energies [Eh]
    ---------------------

    Doubly Occupied:

       1A    -20.620299     2A    -20.570977     3A    -20.555477
       4A    -11.391555     5A    -11.313744     6A    -11.240285
       7A     -1.463742     8A     -1.384612     9A     -1.357989
      10A     -1.056936    11A     -0.922658    12A     -0.806004
      13A     -0.729875    14A     -0.705403    15A     -0.664181
      16A     -0.654380    17A     -0.614519    18A     -0.604781
      19A     -0.565298    20A     -0.558995    21A     -0.520706
      22A     -0.485872    23A     -0.462855    24A     -0.451752

  @DF-RHF Final Energy:  -341.82984257186905

   => Energetics <=

    Nuclear Repulsion Energy =            248.5546461660250941
    One-Electron Energy =                -961.3631875007052940
    Two-Electron Energy =                 370.9786987628111206
    Total Energy =                       -341.8298425718690510
  Basis Set: (AUG-CC-PVTZ AUX)
    Blend: AUG-CC-PVTZ-RI
    Molecular point group: c1

    Geometry (in Angstrom), charge = 0, multiplicity = 1:

       Center              X                  Y                   Z               Mass
    ------------   -----------------  -----------------  -----------------  -----------------
         O           -1.367216808250    -1.145029105562     0.228542797984    15.994914619570
         O            1.443793391750     1.040040094438     0.289877397984    15.994914619570
         O            1.238543391750    -1.097088905562    -0.459581602016    15.994914619570
         C           -0.716199608250     0.103899094438     0.378675397984    12.000000000000
         C           -1.341262608250     1.209212094438    -0.465694602016    12.000000000000
         C            0.738613391750    -0.096796905562     0.013479397984    12.000000000000
         H           -0.754398308250     0.366991594438     1.446541697984     1.007825032230
         H           -1.291168608250     0.930929094438    -1.519893602016     1.007825032230
         H           -0.823794608250     2.158040094438    -0.313887602016     1.007825032230
         H           -2.393044608250     1.339573094438    -0.191800602016     1.007825032230
         H           -2.271067608250    -1.040833905562     0.499726397984     1.007825032230
         H            2.364872391750     0.840703094438     0.021128397984     1.007825032230

  Basis Set: AUG-CC-PVTZ
    Blend: AUG-CC-PVTZ
  Basis Set: (AUG-CC-PVTZ AUX)
    Blend: AUG-CC-PVTZ-JKFIT
	 Reference Energy          =    -341.8298425718690510 [Eh]
	 Singles Energy            =      -0.0000000000000000 [Eh]
	 Same-Spin Energy          =      -0.3264425618258048 [Eh]
	 Opposite-Spin Energy      =      -1.0116220029238194 [Eh]
	 Correlation Energy        =      -1.3380645647496241 [Eh]
	 Total Energy              =    -343.1679071366186804 [Eh]

	 ================> DF-SCS-MP2 Energies <==================
	-----------------------------------------------------------
	 SCS Same-Spin Scale       =       0.3333333333333333 [-]
	 SCS Opposite-Spin Scale   =       1.2000000000000000 [-]
	 SCS Same-Spin Energy      =      -0.1088141872752683 [Eh]
	 SCS Opposite-Spin Energy  =      -1.2139464035085832 [Eh]
	 SCS Correlation Energy    =      -1.3227605907838513 [Eh]
	 SCS Total Energy          =    -343.1526031626528948 [Eh]
	-----------------------------------------------------------

  Dipole Moment: [D]
     X:    -1.3024      Y:     2.7545      Z:     0.9571     Total:     3.1936

*** Psi4 exiting successfully. Buy a developer a beer!
