                               Psi4 1.3.2 release

  ==> Input File <==

--------------------------------------------------------------------------
#psi4
#
memory 32 gb

molecule  {
0 1
  O       -1.3597980    -1.1437690     0.1887320
  O        1.4218881     1.0496144     0.3063828
  O        1.2366830    -1.0978030    -0.4508720
  C       -0.7124472     0.1277542     0.3952873
  C       -1.3431230     1.2084980    -0.4569850
  C        0.7367530    -0.0975110     0.0221890
  H       -0.7373290     0.3987270     1.4472430
  H       -1.2930290     0.9302150    -1.5111840
  H       -0.8256550     2.1573260    -0.3051780
  H       -2.3949050     1.3388590    -0.1830910
  H       -2.2729280    -1.0415480     0.5084360
  H        2.3630120     0.8399890     0.0298380
units angstrom
no_reorient  #important for SAPT in psi4, default
symmetry c1  #important for SAPT in psi4, default
}

set PROPERTIES_ORIGIN ["COM"]
properties('MP2/aug-cc-pvtz', properties = ['dipole'])
--------------------------------------------------------------------------

    Molecular point group: c1
  Charge       = 0
  Multiplicity = 1
  Basis Set: AUG-CC-PVTZ
    Blend: AUG-CC-PVTZ
  Basis Set: (AUG-CC-PVTZ AUX)
    Blend: AUG-CC-PVTZ-JKFIT

    Orbital Energies [Eh]
    ---------------------

    Doubly Occupied:

       1A    -20.622753     2A    -20.571814     3A    -20.557019
       4A    -11.391469     5A    -11.312036     6A    -11.238955
       7A     -1.461692     8A     -1.372715     9A     -1.355611
      10A     -1.058111    11A     -0.921143    12A     -0.796970
      13A     -0.730050    14A     -0.705910    15A     -0.658494
      16A     -0.648253    17A     -0.612363    18A     -0.600419
      19A     -0.565373    20A     -0.557348    21A     -0.520321
      22A     -0.486378    23A     -0.465938    24A     -0.452621

  @DF-RHF Final Energy:  -341.82487980911594

   => Energetics <=

    Nuclear Repulsion Energy =            248.5668470593532220
    One-Electron Energy =                -961.4559430213189444
    Two-Electron Energy =                 371.0642161528497809
    Total Energy =                       -341.8248798091159415
  Basis Set: (AUG-CC-PVTZ AUX)
    Blend: AUG-CC-PVTZ-RI
    Molecular point group: c1

    Geometry (in Angstrom), charge = 0, multiplicity = 1:

       Center              X                  Y                   Z               Mass
    ------------   -----------------  -----------------  -----------------  -----------------
         O           -1.356984998975    -1.148871446770     0.186293854620    15.994914619570
         O            1.424701101025     1.044511953230     0.303944654620    15.994914619570
         O            1.239496001025    -1.102905446770    -0.453310145380    15.994914619570
         C           -0.709634198975     0.122651753230     0.392849154620    12.000000000000
         C           -1.340309998975     1.203395553230    -0.459423145380    12.000000000000
         C            0.739566001025    -0.102613446770     0.019750854620    12.000000000000
         H           -0.734515998975     0.393624553230     1.444804854620     1.007825032230
         H           -1.290215998975     0.925112553230    -1.513622145380     1.007825032230
         H           -0.822841998975     2.152223553230    -0.307616145380     1.007825032230
         H           -2.392091998975     1.333756553230    -0.185529145380     1.007825032230
         H           -2.270114998975    -1.046650446770     0.505997854620     1.007825032230
         H            2.365825001025     0.834886553230     0.027399854620     1.007825032230

  Basis Set: AUG-CC-PVTZ
    Blend: AUG-CC-PVTZ
  Basis Set: (AUG-CC-PVTZ AUX)
    Blend: AUG-CC-PVTZ-JKFIT
	 Reference Energy          =    -341.8248798091159415 [Eh]
	 Singles Energy            =      -0.0000000000000000 [Eh]
	 Same-Spin Energy          =      -0.3275190742519571 [Eh]
	 Opposite-Spin Energy      =      -1.0142144236908994 [Eh]
	 Correlation Energy        =      -1.3417334979428566 [Eh]
	 Total Energy              =    -343.1666133070588103 [Eh]

	 ================> DF-SCS-MP2 Energies <==================
	-----------------------------------------------------------
	 SCS Same-Spin Scale       =       0.3333333333333333 [-]
	 SCS Opposite-Spin Scale   =       1.2000000000000000 [-]
	 SCS Same-Spin Energy      =      -0.1091730247506524 [Eh]
	 SCS Opposite-Spin Energy  =      -1.2170573084290792 [Eh]
	 SCS Correlation Energy    =      -1.3262303331797316 [Eh]
	 SCS Total Energy          =    -343.1511101422956926 [Eh]
	-----------------------------------------------------------

  Dipole Moment: [D]
     X:    -1.2144      Y:     2.7842      Z:     1.0524     Total:     3.2146

*** Psi4 exiting successfully. Buy a developer a beer!
