                               Psi4 1.3.2 release

  ==> Input File <==

--------------------------------------------------------------------------
#psi4
#
memory 32 gb

molecule  {
0 1
  O       -1.3597980    -1.1437690     0.1887320
  O        1.4419330     1.0393260     0.2985870
  O        1.2366830    -1.0978030    -0.4508720
  C       -0.7180600     0.1031850     0.3873850
  C       -1.3431230     1.2084980    -0.4569850
  C        0.7367530    -0.0975110     0.0221890
  H       -0.7373290     0.3987270     1.4472430
  H       -1.2930290     0.9302150    -1.5111840
  H       -0.8256550     2.1573260    -0.3051780
  H       -2.3949050     1.3388590    -0.1830910
  H       -2.2729280    -1.0415480     0.5084360
  H        2.4570022     0.8196479     0.0024139
units angstrom
no_reorient  #important for SAPT in psi4, default
symmetry c1  #important for SAPT in psi4, default
}

set PROPERTIES_ORIGIN ["COM"]
properties('MP2/aug-cc-pvtz', properties = ['dipole'])
--------------------------------------------------------------------------

    Molecular point group: c1
  Charge       = 0
  Multiplicity = 1
  Basis Set: AUG-CC-PVTZ
    Blend: AUG-CC-PVTZ
  Basis Set: (AUG-CC-PVTZ AUX)
    Blend: AUG-CC-PVTZ-JKFIT

    Orbital Energies [Eh]
    ---------------------

    Doubly Occupied:

       1A    -20.624771     2A    -20.574600     3A    -20.552899
       4A    -11.388602     5A    -11.313006     6A    -11.238377
       7A     -1.451551     8A     -1.379048     9A     -1.349247
      10A     -1.053171    11A     -0.916761    12A     -0.788319
      13A     -0.729026    14A     -0.697514    15A     -0.659436
      16A     -0.648241    17A     -0.609917    18A     -0.596021
      19A     -0.564263    20A     -0.555879    21A     -0.520607
      22A     -0.482462    23A     -0.462727    24A     -0.449593

  @DF-RHF Final Energy:  -341.81575755780187

   => Energetics <=

    Nuclear Repulsion Energy =            248.1451910672406314
    One-Electron Energy =                -960.7098236520944283
    Two-Electron Energy =                 370.7488750270519517
    Total Energy =                       -341.8157575578018736
  Basis Set: (AUG-CC-PVTZ AUX)
    Blend: AUG-CC-PVTZ-RI
    Molecular point group: c1

    Geometry (in Angstrom), charge = 0, multiplicity = 1:

       Center              X                  Y                   Z               Mass
    ------------   -----------------  -----------------  -----------------  -----------------
         O           -1.360850177166    -1.143541182196     0.189039103973    15.994914619570
         O            1.440880822834     1.039553817804     0.298894103973    15.994914619570
         O            1.235630822834    -1.097575182196    -0.450564896027    15.994914619570
         C           -0.719112177166     0.103412817804     0.387692103973    12.000000000000
         C           -1.344175177166     1.208725817804    -0.456677896027    12.000000000000
         C            0.735700822834    -0.097283182196     0.022496103973    12.000000000000
         H           -0.738381177166     0.398954817804     1.447550103973     1.007825032230
         H           -1.294081177166     0.930442817804    -1.510876896027     1.007825032230
         H           -0.826707177166     2.157553817804    -0.304870896027     1.007825032230
         H           -2.395957177166     1.339086817804    -0.182783896027     1.007825032230
         H           -2.273980177166    -1.041320182196     0.508743103973     1.007825032230
         H            2.455950022834     0.819875717804     0.002721003973     1.007825032230

  Basis Set: AUG-CC-PVTZ
    Blend: AUG-CC-PVTZ
  Basis Set: (AUG-CC-PVTZ AUX)
    Blend: AUG-CC-PVTZ-JKFIT
	 Reference Energy          =    -341.8157575578018736 [Eh]
	 Singles Energy            =      -0.0000000000000000 [Eh]
	 Same-Spin Energy          =      -0.3281451396134007 [Eh]
	 Opposite-Spin Energy      =      -1.0156516558326456 [Eh]
	 Correlation Energy        =      -1.3437967954460464 [Eh]
	 Total Energy              =    -343.1595543532479269 [Eh]

	 ================> DF-SCS-MP2 Energies <==================
	-----------------------------------------------------------
	 SCS Same-Spin Scale       =       0.3333333333333333 [-]
	 SCS Opposite-Spin Scale   =       1.2000000000000000 [-]
	 SCS Same-Spin Energy      =      -0.1093817132044669 [Eh]
	 SCS Opposite-Spin Energy  =      -1.2187819869991747 [Eh]
	 SCS Correlation Energy    =      -1.3281637002036417 [Eh]
	 SCS Total Energy          =    -343.1439212580054914 [Eh]
	-----------------------------------------------------------

  Dipole Moment: [D]
     X:    -1.1940      Y:     2.7158      Z:     1.0360     Total:     3.1424

*** Psi4 exiting successfully. Buy a developer a beer!
