                               Psi4 1.4a3.dev225

  ==> Input File <==

--------------------------------------------------------------------------
#psi4
#
memory 32 gb

molecule  {
0 1
  O        1.3501930    -1.1356630    -0.2433140
  O       -1.5558540     0.8884770    -0.3921630
  O       -1.2169910    -1.1507310     0.5497490
  C        0.6629050     0.0959340    -0.3934650
  C        1.2396040     1.1907030     0.5015680
  C       -0.7811570    -0.1720460    -0.0200300
  H        0.6687891     0.4275953    -1.4214843
  H        1.2084250     0.8592770     1.5425200
  H        0.6765780     2.1206880     0.3977210
  H        2.2819130     1.3850820     0.2293300
  H        2.2793940    -0.9684070    -0.4767370
  H       -2.4621080     0.6654070    -0.0949290
units angstrom
no_reorient  #important for SAPT in psi4, default
symmetry c1  #important for SAPT in psi4, default
}

set PROPERTIES_ORIGIN ["COM"]
properties('MP2/aug-cc-pvtz', properties = ['dipole'])
--------------------------------------------------------------------------

    Molecular point group: c1
  Charge       = 0
  Multiplicity = 1
  Basis Set: AUG-CC-PVTZ
    Blend: AUG-CC-PVTZ
  Basis Set: (AUG-CC-PVTZ AUX)
    Blend: AUG-CC-PVTZ-JKFIT

    Orbital Energies [Eh]
    ---------------------

    Doubly Occupied:

       1A    -20.619518     2A    -20.575063     3A    -20.554491
       4A    -11.390104     5A    -11.311423     6A    -11.240730
       7A     -1.463465     8A     -1.380951     9A     -1.356952
      10A     -1.056443    11A     -0.922442    12A     -0.803469
      13A     -0.732606    14A     -0.703638    15A     -0.659843
      16A     -0.654766    17A     -0.617478    18A     -0.602054
      19A     -0.563001    20A     -0.557368    21A     -0.524347
      22A     -0.485244    23A     -0.464551    24A     -0.451164

  @DF-RHF Final Energy:  -341.82943949307253

   => Energetics <=

    Nuclear Repulsion Energy =            248.6879797792874740
    One-Electron Energy =                -961.6526205507447003
    Two-Electron Energy =                 371.1352012783846703
    Total Energy =                       -341.8294394930725275
  Basis Set: (AUG-CC-PVTZ AUX)
    Blend: AUG-CC-PVTZ-RI
    Molecular point group: c1

    Geometry (in Angstrom), charge = 0, multiplicity = 1:

       Center              X                  Y                   Z               Mass
    ------------   -----------------  -----------------  -----------------  -----------------
         O            1.401392440559    -1.086128253248    -0.241797480242    15.994914619570
         O           -1.504654559441     0.938011746752    -0.390646480242    15.994914619570
         O           -1.165791559441    -1.101196253248     0.551265519758    15.994914619570
         C            0.714104440559     0.145468746752    -0.391948480242    12.000000000000
         C            1.290803440559     1.240237746752     0.503084519758    12.000000000000
         C           -0.729957559441    -0.122511253248    -0.018513480242    12.000000000000
         H            0.719988540559     0.477130046752    -1.419967780242     1.007825032230
         H            1.259624440559     0.908811746752     1.544036519758     1.007825032230
         H            0.727777440559     2.170222746752     0.399237519758     1.007825032230
         H            2.333112440559     1.434616746752     0.230846519758     1.007825032230
         H            2.330593440559    -0.918872253248    -0.475220480242     1.007825032230
         H           -2.410908559441     0.714941746752    -0.093412480242     1.007825032230

  Basis Set: AUG-CC-PVTZ
    Blend: AUG-CC-PVTZ
  Basis Set: (AUG-CC-PVTZ AUX)
    Blend: AUG-CC-PVTZ-JKFIT
	 Reference Energy          =    -341.8294394930725275 [Eh]
	 Singles Energy            =      -0.0000000000000000 [Eh]
	 Same-Spin Energy          =      -0.3267650991550808 [Eh]
	 Opposite-Spin Energy      =      -1.0123317035465151 [Eh]
	 Correlation Energy        =      -1.3390968027015959 [Eh]
	 Total Energy              =    -343.1685362957741177 [Eh]

	 ================> DF-SCS-MP2 Energies <==================
	-----------------------------------------------------------
	 SCS Same-Spin Scale       =       0.3333333333333333 [-]
	 SCS Opposite-Spin Scale   =       1.2000000000000000 [-]
	 SCS Same-Spin Energy      =      -0.1089216997183603 [Eh]
	 SCS Opposite-Spin Energy  =      -1.2147980442558182 [Eh]
	 SCS Correlation Energy    =      -1.3237197439741784 [Eh]
	 SCS Total Energy          =    -343.1531592370466797 [Eh]
	-----------------------------------------------------------

  Dipole Moment: [D]
     X:     1.2103      Y:     2.8003      Z:    -0.9667     Total:     3.2001

*** Psi4 exiting successfully. Buy a developer a beer!
