                               Psi4 1.4a3.dev225

  ==> Input File <==

--------------------------------------------------------------------------
#psi4
#
memory 32 gb

molecule  {
0 1
  O        1.3501930    -1.1356630    -0.2433140
  O       -1.5558540     0.8884770    -0.3921630
  O       -1.2169910    -1.1507310     0.5497490
  C        0.6629050     0.0959340    -0.3934650
  C        1.2396040     1.1907030     0.5015680
  C       -0.8288017    -0.1808876    -0.0077091
  H        0.6688980     0.4337360    -1.4405180
  H        1.2084250     0.8592770     1.5425200
  H        0.6765780     2.1206880     0.3977210
  H        2.2819130     1.3850820     0.2293300
  H        2.2793940    -0.9684070    -0.4767370
  H       -2.4621080     0.6654070    -0.0949290
units angstrom
no_reorient  #important for SAPT in psi4, default
symmetry c1  #important for SAPT in psi4, default
}

set PROPERTIES_ORIGIN ["COM"]
properties('MP2/aug-cc-pvtz', properties = ['dipole'])
--------------------------------------------------------------------------

    Molecular point group: c1
  Charge       = 0
  Multiplicity = 1
  Basis Set: AUG-CC-PVTZ
    Blend: AUG-CC-PVTZ
  Basis Set: (AUG-CC-PVTZ AUX)
    Blend: AUG-CC-PVTZ-JKFIT

    Orbital Energies [Eh]
    ---------------------

    Doubly Occupied:

       1A    -20.623574     2A    -20.571919     3A    -20.556985
       4A    -11.386596     5A    -11.310329     6A    -11.237010
       7A     -1.476227     8A     -1.384222     9A     -1.369203
      10A     -1.045195    11A     -0.912198    12A     -0.803233
      13A     -0.725763    14A     -0.710918    15A     -0.664389
      16A     -0.655636    17A     -0.619018    18A     -0.603630
      19A     -0.559549    20A     -0.557670    21A     -0.522859
      22A     -0.495416    23A     -0.460059    24A     -0.444574

  @DF-RHF Final Energy:  -341.82933760069915

   => Energetics <=

    Nuclear Repulsion Energy =            248.5653411032983797
    One-Electron Energy =                -961.3970128559068371
    Two-Electron Energy =                 371.0023341519093378
    Total Energy =                       -341.8293376006991480
  Basis Set: (AUG-CC-PVTZ AUX)
    Blend: AUG-CC-PVTZ-RI
    Molecular point group: c1

    Geometry (in Angstrom), charge = 0, multiplicity = 1:

       Center              X                  Y                   Z               Mass
    ------------   -----------------  -----------------  -----------------  -----------------
         O            1.407741611858    -1.085018527946    -0.243226623191    15.994914619570
         O           -1.498305388142     0.939121472054    -0.392075623191    15.994914619570
         O           -1.159442388142    -1.100086527946     0.549836376809    15.994914619570
         C            0.720453611858     0.146578472054    -0.393377623191    12.000000000000
         C            1.297152611858     1.241347472054     0.501655376809    12.000000000000
         C           -0.771253088142    -0.130243127946    -0.007621723191    12.000000000000
         H            0.726446611858     0.484380472054    -1.440430623191     1.007825032230
         H            1.265973611858     0.909921472054     1.542607376809     1.007825032230
         H            0.734126611858     2.171332472054     0.397808376809     1.007825032230
         H            2.339461611858     1.435726472054     0.229417376809     1.007825032230
         H            2.336942611858    -0.917762527946    -0.476649623191     1.007825032230
         H           -2.404559388142     0.716051472054    -0.094841623191     1.007825032230

  Basis Set: AUG-CC-PVTZ
    Blend: AUG-CC-PVTZ
  Basis Set: (AUG-CC-PVTZ AUX)
    Blend: AUG-CC-PVTZ-JKFIT
	 Reference Energy          =    -341.8293376006991480 [Eh]
	 Singles Energy            =      -0.0000000000000000 [Eh]
	 Same-Spin Energy          =      -0.3260231817124506 [Eh]
	 Opposite-Spin Energy      =      -1.0108402919337078 [Eh]
	 Correlation Energy        =      -1.3368634736461584 [Eh]
	 Total Energy              =    -343.1662010743452811 [Eh]

	 ================> DF-SCS-MP2 Energies <==================
	-----------------------------------------------------------
	 SCS Same-Spin Scale       =       0.3333333333333333 [-]
	 SCS Opposite-Spin Scale   =       1.2000000000000000 [-]
	 SCS Same-Spin Energy      =      -0.1086743939041502 [Eh]
	 SCS Opposite-Spin Energy  =      -1.2130083503204494 [Eh]
	 SCS Correlation Energy    =      -1.3216827442245995 [Eh]
	 SCS Total Energy          =    -343.1510203449237224 [Eh]
	-----------------------------------------------------------

  Dipole Moment: [D]
     X:     0.9310      Y:     2.7357      Z:    -0.9116     Total:     3.0301

*** Psi4 exiting successfully. Buy a developer a beer!
