                               Psi4 1.3.2 release

  ==> Input File <==

--------------------------------------------------------------------------
#psi4
#
memory 32 gb

molecule  {
0 1
  O       -1.3597980    -1.1437690     0.1887320
  O        1.4319480     1.0444938     0.3025496
  O        1.2272177    -1.1025622    -0.4506929
  C       -0.7180600     0.1031850     0.3873850
  C       -1.3431230     1.2084980    -0.4569850
  C        0.7367530    -0.0975110     0.0221890
  H       -0.7373290     0.3987270     1.4472430
  H       -1.2930290     0.9302150    -1.5111840
  H       -0.8256550     2.1573260    -0.3051780
  H       -2.3949050     1.3388590    -0.1830910
  H       -2.2729280    -1.0415480     0.5084360
  H        2.3630120     0.8399890     0.0298380
units angstrom
no_reorient  #important for SAPT in psi4, default
symmetry c1  #important for SAPT in psi4, default
}

set PROPERTIES_ORIGIN ["COM"]
properties('MP2/aug-cc-pvtz', properties = ['dipole'])
--------------------------------------------------------------------------

    Molecular point group: c1
  Charge       = 0
  Multiplicity = 1
  Basis Set: AUG-CC-PVTZ
    Blend: AUG-CC-PVTZ
  Basis Set: (AUG-CC-PVTZ AUX)
    Blend: AUG-CC-PVTZ-JKFIT

    Orbital Energies [Eh]
    ---------------------

    Doubly Occupied:

       1A    -20.622017     2A    -20.574413     3A    -20.555479
       4A    -11.390524     5A    -11.312338     6A    -11.238499
       7A     -1.462229     8A     -1.381098     9A     -1.357293
      10A     -1.054843    11A     -0.920563    12A     -0.800256
      13A     -0.730622    14A     -0.705341    15A     -0.662150
      16A     -0.650429    17A     -0.613575    18A     -0.602180
      19A     -0.564497    20A     -0.557954    21A     -0.521610
      22A     -0.486017    23A     -0.462718    24A     -0.451015

  @DF-RHF Final Energy:  -341.82767389887357

   => Energetics <=

    Nuclear Repulsion Energy =            248.7552953597763121
    One-Electron Energy =                -961.8106193154466155
    Two-Electron Energy =                 371.2276500567966764
    Total Energy =                       -341.8276738988735701
  Basis Set: (AUG-CC-PVTZ AUX)
    Blend: AUG-CC-PVTZ-RI
    Molecular point group: c1

    Geometry (in Angstrom), charge = 0, multiplicity = 1:

       Center              X                  Y                   Z               Mass
    ------------   -----------------  -----------------  -----------------  -----------------
         O           -1.356342524962    -1.143841474133     0.187996306397    15.994914619570
         O            1.435403475038     1.044421325867     0.301813906397    15.994914619570
         O            1.230673175038    -1.102634674133    -0.451428593603    15.994914619570
         C           -0.714604524962     0.103112525867     0.386649306397    12.000000000000
         C           -1.339667524962     1.208425525867    -0.457720693603    12.000000000000
         C            0.740208475038    -0.097583474133     0.021453306397    12.000000000000
         H           -0.733873524962     0.398654525867     1.446507306397     1.007825032230
         H           -1.289573524962     0.930142525867    -1.511919693603     1.007825032230
         H           -0.822199524962     2.157253525867    -0.305913693603     1.007825032230
         H           -2.391449524962     1.338786525867    -0.183826693603     1.007825032230
         H           -2.269472524962    -1.041620474133     0.507700306397     1.007825032230
         H            2.366467475038     0.839916525867     0.029102306397     1.007825032230

  Basis Set: AUG-CC-PVTZ
    Blend: AUG-CC-PVTZ
  Basis Set: (AUG-CC-PVTZ AUX)
    Blend: AUG-CC-PVTZ-JKFIT
	 Reference Energy          =    -341.8276738988735701 [Eh]
	 Singles Energy            =      -0.0000000000000000 [Eh]
	 Same-Spin Energy          =      -0.3271442034963863 [Eh]
	 Opposite-Spin Energy      =      -1.0131117461917820 [Eh]
	 Correlation Energy        =      -1.3402559496881683 [Eh]
	 Total Energy              =    -343.1679298485617551 [Eh]

	 ================> DF-SCS-MP2 Energies <==================
	-----------------------------------------------------------
	 SCS Same-Spin Scale       =       0.3333333333333333 [-]
	 SCS Opposite-Spin Scale   =       1.2000000000000000 [-]
	 SCS Same-Spin Energy      =      -0.1090480678321288 [Eh]
	 SCS Opposite-Spin Energy  =      -1.2157340954301383 [Eh]
	 SCS Correlation Energy    =      -1.3247821632622672 [Eh]
	 SCS Total Energy          =    -343.1524560621358546 [Eh]
	-----------------------------------------------------------

  Dipole Moment: [D]
     X:    -1.2597      Y:     2.7194      Z:     1.0543     Total:     3.1770

*** Psi4 exiting successfully. Buy a developer a beer!
