                               Psi4 1.3.2 release

  ==> Input File <==

--------------------------------------------------------------------------
#psi4
#
memory 32 gb

molecule  {
0 1
  O       -1.3597980    -1.1437690     0.1887320
  O        1.4419330     1.0393260     0.2985870
  O        1.2366830    -1.0978030    -0.4508720
  C       -0.7180600     0.1031850     0.3873850
  C       -1.3431230     1.2084980    -0.4569850
  C        0.7367530    -0.0975110     0.0221890
  H       -0.7373290     0.3987270     1.4472430
  H       -1.2930290     0.9302150    -1.5111840
  H       -0.8256550     2.1573260    -0.3051780
  H       -2.3949050     1.3388590    -0.1830910
  H       -2.1790681    -1.0520552     0.4755739
  H        2.3630120     0.8399890     0.0298380
units angstrom
no_reorient  #important for SAPT in psi4, default
symmetry c1  #important for SAPT in psi4, default
}

set PROPERTIES_ORIGIN ["COM"]
properties('MP2/aug-cc-pvtz', properties = ['dipole'])
--------------------------------------------------------------------------

    Molecular point group: c1
  Charge       = 0
  Multiplicity = 1
  Basis Set: AUG-CC-PVTZ
    Blend: AUG-CC-PVTZ
  Basis Set: (AUG-CC-PVTZ AUX)
    Blend: AUG-CC-PVTZ-JKFIT

    Orbital Energies [Eh]
    ---------------------

    Doubly Occupied:

       1A    -20.620127     2A    -20.565286     3A    -20.555243
       4A    -11.390973     5A    -11.314776     6A    -11.239852
       7A     -1.464033     8A     -1.404852     9A     -1.359132
      10A     -1.061765    11A     -0.924345    12A     -0.810399
      13A     -0.739455    14A     -0.705511    15A     -0.669554
      16A     -0.655234    17A     -0.615741    18A     -0.604297
      19A     -0.568192    20A     -0.558922    21A     -0.525772
      22A     -0.485855    23A     -0.466187    24A     -0.452057

  @DF-RHF Final Energy:  -341.82399703499220

   => Energetics <=

    Nuclear Repulsion Energy =            249.3731554393976921
    One-Electron Energy =                -962.8791860378404408
    Two-Electron Energy =                 371.6820335634505454
    Total Energy =                       -341.8239970349922032
  Basis Set: (AUG-CC-PVTZ AUX)
    Blend: AUG-CC-PVTZ-RI
    Molecular point group: c1

    Geometry (in Angstrom), charge = 0, multiplicity = 1:

       Center              X                  Y                   Z               Mass
    ------------   -----------------  -----------------  -----------------  -----------------
         O           -1.360848718573    -1.143651263992     0.189099977564    15.994914619570
         O            1.440882281427     1.039443736008     0.298954977564    15.994914619570
         O            1.235632281427    -1.097685263992    -0.450504022436    15.994914619570
         C           -0.719110718573     0.103302736008     0.387752977564    12.000000000000
         C           -1.344173718573     1.208615736008    -0.456617022436    12.000000000000
         C            0.735702281427    -0.097393263992     0.022556977564    12.000000000000
         H           -0.738379718573     0.398844736008     1.447610977564     1.007825032230
         H           -1.294079718573     0.930332736008    -1.510816022436     1.007825032230
         H           -0.826705718573     2.157443736008    -0.304810022436     1.007825032230
         H           -2.395955718573     1.338976736008    -0.182723022436     1.007825032230
         H           -2.180118818573    -1.051937463992     0.475941877564     1.007825032230
         H            2.361961281427     0.840106736008     0.030205977564     1.007825032230

  Basis Set: AUG-CC-PVTZ
    Blend: AUG-CC-PVTZ
  Basis Set: (AUG-CC-PVTZ AUX)
    Blend: AUG-CC-PVTZ-JKFIT
	 Reference Energy          =    -341.8239970349922032 [Eh]
	 Singles Energy            =      -0.0000000000000000 [Eh]
	 Same-Spin Energy          =      -0.3257141055013926 [Eh]
	 Opposite-Spin Energy      =      -1.0096280779584970 [Eh]
	 Correlation Energy        =      -1.3353421834598895 [Eh]
	 Total Energy              =    -343.1593392184520894 [Eh]

	 ================> DF-SCS-MP2 Energies <==================
	-----------------------------------------------------------
	 SCS Same-Spin Scale       =       0.3333333333333333 [-]
	 SCS Opposite-Spin Scale   =       1.2000000000000000 [-]
	 SCS Same-Spin Energy      =      -0.1085713685004642 [Eh]
	 SCS Opposite-Spin Energy  =      -1.2115536935501963 [Eh]
	 SCS Correlation Energy    =      -1.3201250620506604 [Eh]
	 SCS Total Energy          =    -343.1441220970428390 [Eh]
	-----------------------------------------------------------

  Dipole Moment: [D]
     X:    -1.2321      Y:     2.7412      Z:     1.0342     Total:     3.1783

*** Psi4 exiting successfully. Buy a developer a beer!
