                               Psi4 1.3.2 release

  ==> Input File <==

--------------------------------------------------------------------------
#psi4
#
memory 32 gb

molecule  {
0 1
  O       -1.3597980    -1.1437690     0.1887320
  O        1.4419330     1.0393260     0.2985870
  O        1.2366830    -1.0978030    -0.4508720
  C       -0.7180600     0.1031850     0.3873850
  C       -1.3431230     1.2084980    -0.4569850
  C        0.8399972     0.0689314     0.0626560
  H       -0.7373290     0.3987270     1.4472430
  H       -1.2930290     0.9302150    -1.5111840
  H       -0.8256550     2.1573260    -0.3051780
  H       -2.3949050     1.3388590    -0.1830910
  H       -2.2729280    -1.0415480     0.5084360
  H        2.3630120     0.8399890     0.0298380
units angstrom
no_reorient  #important for SAPT in psi4, default
symmetry c1  #important for SAPT in psi4, default
}

set PROPERTIES_ORIGIN ["COM"]
properties('MP2/aug-cc-pvtz', properties = ['dipole'])
--------------------------------------------------------------------------

    Molecular point group: c1
  Charge       = 0
  Multiplicity = 1
  Basis Set: AUG-CC-PVTZ
    Blend: AUG-CC-PVTZ
  Basis Set: (AUG-CC-PVTZ AUX)
    Blend: AUG-CC-PVTZ-JKFIT

    Orbital Energies [Eh]
    ---------------------

    Doubly Occupied:

       1A    -20.676014     2A    -20.569580     3A    -20.520004
       4A    -11.394514     5A    -11.312086     6A    -11.235707
       7A     -1.584271     8A     -1.371795     9A     -1.285356
      10A     -1.049365    11A     -0.940998    12A     -0.851410
      13A     -0.762886    14A     -0.720613    15A     -0.696058
      16A     -0.667198    17A     -0.622912    18A     -0.587998
      19A     -0.559040    20A     -0.542107    21A     -0.493506
      22A     -0.459038    23A     -0.436616    24A     -0.417206

  @DF-RHF Final Energy:  -341.76650701698486

   => Energetics <=

    Nuclear Repulsion Energy =            248.7397199844869533
    One-Electron Energy =                -961.4998987636515722
    Two-Electron Energy =                 370.9936717621797015
    Total Energy =                       -341.7665070169848605
  Basis Set: (AUG-CC-PVTZ AUX)
    Blend: AUG-CC-PVTZ-RI
    Molecular point group: c1

    Geometry (in Angstrom), charge = 0, multiplicity = 1:

       Center              X                  Y                   Z               Mass
    ------------   -----------------  -----------------  -----------------  -----------------
         O           -1.373559087464    -1.165953390374     0.183338414901    15.994914619570
         O            1.428171912536     1.017141609626     0.293193414901    15.994914619570
         O            1.222921912536    -1.119987390374    -0.456265585099    15.994914619570
         C           -0.731821087464     0.081000609626     0.381991414901    12.000000000000
         C           -1.356884087464     1.186313609626    -0.462378585099    12.000000000000
         C            0.826236112536     0.046747009626     0.057262414901    12.000000000000
         H           -0.751090087464     0.376542609626     1.441849414901     1.007825032230
         H           -1.306790087464     0.908030609626    -1.516577585099     1.007825032230
         H           -0.839416087464     2.135141609626    -0.310571585099     1.007825032230
         H           -2.408666087464     1.316674609626    -0.188484585099     1.007825032230
         H           -2.286689087464    -1.063732390374     0.503042414901     1.007825032230
         H            2.349250912536     0.817804609626     0.024444414901     1.007825032230

  Basis Set: AUG-CC-PVTZ
    Blend: AUG-CC-PVTZ
  Basis Set: (AUG-CC-PVTZ AUX)
    Blend: AUG-CC-PVTZ-JKFIT
	 Reference Energy          =    -341.7665070169848605 [Eh]
	 Singles Energy            =      -0.0000000000000000 [Eh]
	 Same-Spin Energy          =      -0.3285096348833286 [Eh]
	 Opposite-Spin Energy      =      -1.0141671095104037 [Eh]
	 Correlation Energy        =      -1.3426767443937324 [Eh]
	 Total Energy              =    -343.1091837613785742 [Eh]

	 ================> DF-SCS-MP2 Energies <==================
	-----------------------------------------------------------
	 SCS Same-Spin Scale       =       0.3333333333333333 [-]
	 SCS Opposite-Spin Scale   =       1.2000000000000000 [-]
	 SCS Same-Spin Energy      =      -0.1095032116277762 [Eh]
	 SCS Opposite-Spin Energy  =      -1.2170005314124843 [Eh]
	 SCS Correlation Energy    =      -1.3265037430402606 [Eh]
	 SCS Total Energy          =    -343.0930107600250949 [Eh]
	-----------------------------------------------------------

  Dipole Moment: [D]
     X:    -0.6435      Y:     4.0569      Z:     1.4639     Total:     4.3607

*** Psi4 exiting successfully. Buy a developer a beer!
