                               Psi4 1.3.2 release

  ==> Input File <==

--------------------------------------------------------------------------
#psi4
#
memory 32 gb

molecule  {
0 1
  O       -1.3597980    -1.1437690     0.1887320
  O        1.4419330     1.0393260     0.2985870
  O        1.2366830    -1.0978030    -0.4508720
  C       -0.7180600     0.1031850     0.3873850
  C       -1.3431230     1.2084980    -0.4569850
  C        0.7973627    -0.1270638    -0.0016412
  H       -0.7373290     0.3987270     1.4472430
  H       -1.2930290     0.9302150    -1.5111840
  H       -0.8256550     2.1573260    -0.3051780
  H       -2.3949050     1.3388590    -0.1830910
  H       -2.2729280    -1.0415480     0.5084360
  H        2.3473303     0.7932404     0.0156642
units angstrom
no_reorient  #important for SAPT in psi4, default
symmetry c1  #important for SAPT in psi4, default
}

set PROPERTIES_ORIGIN ["COM"]
properties('MP2/aug-cc-pvtz', properties = ['dipole'])
--------------------------------------------------------------------------

    Molecular point group: c1
  Charge       = 0
  Multiplicity = 1
  Basis Set: AUG-CC-PVTZ
    Blend: AUG-CC-PVTZ
  Basis Set: (AUG-CC-PVTZ AUX)
    Blend: AUG-CC-PVTZ-JKFIT

    Orbital Energies [Eh]
    ---------------------

    Doubly Occupied:

       1A    -20.620136     2A    -20.570698     3A    -20.563478
       4A    -11.384855     5A    -11.308436     6A    -11.233834
       7A     -1.482801     8A     -1.392251     9A     -1.372164
      10A     -1.041205    11A     -0.905914    12A     -0.793811
      13A     -0.727107    14A     -0.717147    15A     -0.670753
      16A     -0.652516    17A     -0.616477    18A     -0.603878
      19A     -0.563718    20A     -0.558919    21A     -0.522666
      22A     -0.504977    23A     -0.458424    24A     -0.442572

  @DF-RHF Final Energy:  -341.82466103517504

   => Energetics <=

    Nuclear Repulsion Energy =            248.8461076458216041
    One-Electron Energy =                -961.9240535238848224
    Two-Electron Energy =                 371.2532848428882062
    Total Energy =                       -341.8246610351750405
  Basis Set: (AUG-CC-PVTZ AUX)
    Blend: AUG-CC-PVTZ-RI
    Molecular point group: c1

    Geometry (in Angstrom), charge = 0, multiplicity = 1:

       Center              X                  Y                   Z               Mass
    ------------   -----------------  -----------------  -----------------  -----------------
         O           -1.367700945891    -1.139306587439     0.192067020074    15.994914619570
         O            1.434030054109     1.043788412561     0.301922020074    15.994914619570
         O            1.228780054109    -1.093340587439    -0.447536979926    15.994914619570
         C           -0.725962945891     0.107647412561     0.390720020074    12.000000000000
         C           -1.351025945891     1.212960412561    -0.453649979926    12.000000000000
         C            0.789459754109    -0.122601387439     0.001693820074    12.000000000000
         H           -0.745231945891     0.403189412561     1.450578020074     1.007825032230
         H           -1.300931945891     0.934677412561    -1.507848979926     1.007825032230
         H           -0.833557945891     2.161788412561    -0.301842979926     1.007825032230
         H           -2.402807945891     1.343321412561    -0.179755979926     1.007825032230
         H           -2.280830945891    -1.037085587439     0.511771020074     1.007825032230
         H            2.339427354109     0.797702812561     0.018999220074     1.007825032230

  Basis Set: AUG-CC-PVTZ
    Blend: AUG-CC-PVTZ
  Basis Set: (AUG-CC-PVTZ AUX)
    Blend: AUG-CC-PVTZ-JKFIT
	 Reference Energy          =    -341.8246610351750405 [Eh]
	 Singles Energy            =      -0.0000000000000000 [Eh]
	 Same-Spin Energy          =      -0.3258401016428644 [Eh]
	 Opposite-Spin Energy      =      -1.0104289318442683 [Eh]
	 Correlation Energy        =      -1.3362690334871328 [Eh]
	 Total Energy              =    -343.1609300686621964 [Eh]

	 ================> DF-SCS-MP2 Energies <==================
	-----------------------------------------------------------
	 SCS Same-Spin Scale       =       0.3333333333333333 [-]
	 SCS Opposite-Spin Scale   =       1.2000000000000000 [-]
	 SCS Same-Spin Energy      =      -0.1086133672142881 [Eh]
	 SCS Opposite-Spin Energy  =      -1.2125147182131220 [Eh]
	 SCS Correlation Energy    =      -1.3211280854274101 [Eh]
	 SCS Total Energy          =    -343.1457891206024442 [Eh]
	-----------------------------------------------------------

  Dipole Moment: [D]
     X:    -1.0132      Y:     2.4171      Z:     0.9219     Total:     2.7783

*** Psi4 exiting successfully. Buy a developer a beer!
