                               Psi4 1.3.2 release

  ==> Input File <==

--------------------------------------------------------------------------
#psi4
#
memory 32 gb

molecule  {
0 1
  O       -1.3597980    -1.1437690     0.1887320
  O        1.4419330     1.0393260     0.2985870
  O        1.2366830    -1.0978030    -0.4508720
  C       -0.7180600     0.1031850     0.3873850
  C       -1.3431230     1.2084980    -0.4569850
  C        0.7367530    -0.0975110     0.0221890
  H       -0.7373290     0.3987270     1.4472430
  H       -1.2930290     0.9302150    -1.5111840
  H       -0.8256550     2.1573260    -0.3051780
  H       -2.3949050     1.3388590    -0.1830910
  H       -2.3667879    -1.0310408     0.5412981
  H        2.3630120     0.8399890     0.0298380
units angstrom
no_reorient  #important for SAPT in psi4, default
symmetry c1  #important for SAPT in psi4, default
}

set PROPERTIES_ORIGIN ["COM"]
properties('MP2/aug-cc-pvtz', properties = ['dipole'])
--------------------------------------------------------------------------

    Molecular point group: c1
  Charge       = 0
  Multiplicity = 1
  Basis Set: AUG-CC-PVTZ
    Blend: AUG-CC-PVTZ
  Basis Set: (AUG-CC-PVTZ AUX)
    Blend: AUG-CC-PVTZ-JKFIT

    Orbital Energies [Eh]
    ---------------------

    Doubly Occupied:

       1A    -20.619405     2A    -20.583257     3A    -20.554542
       4A    -11.390240     5A    -11.312415     6A    -11.238273
       7A     -1.462799     8A     -1.368976     9A     -1.351308
      10A     -1.051019    11A     -0.919343    12A     -0.797291
      13A     -0.724149    14A     -0.704267    15A     -0.658692
      16A     -0.642784    17A     -0.611792    18A     -0.600368
      19A     -0.561827    20A     -0.557447    21A     -0.517738
      22A     -0.484946    23A     -0.461148    24A     -0.450562

  @DF-RHF Final Energy:  -341.81552405760124

   => Energetics <=

    Nuclear Repulsion Energy =            248.1386059470552539
    One-Electron Energy =                -960.6590880075369796
    Two-Electron Energy =                 370.7049580028805167
    Total Energy =                       -341.8155240576012375
  Basis Set: (AUG-CC-PVTZ AUX)
    Blend: AUG-CC-PVTZ-RI
    Molecular point group: c1

    Geometry (in Angstrom), charge = 0, multiplicity = 1:

       Center              X                  Y                   Z               Mass
    ------------   -----------------  -----------------  -----------------  -----------------
         O           -1.358747361762    -1.143886501578     0.188364253388    15.994914619570
         O            1.442983638238     1.039208498422     0.298219253388    15.994914619570
         O            1.237733638238    -1.097920501578    -0.451239746612    15.994914619570
         C           -0.717009361762     0.103067498422     0.387017253388    12.000000000000
         C           -1.342072361762     1.208380498422    -0.457352746612    12.000000000000
         C            0.737803638238    -0.097628501578     0.021821253388    12.000000000000
         H           -0.736278361762     0.398609498422     1.446875253388     1.007825032230
         H           -1.291978361762     0.930097498422    -1.511551746612     1.007825032230
         H           -0.824604361762     2.157208498422    -0.305545746612     1.007825032230
         H           -2.393854361762     1.338741498422    -0.183458746612     1.007825032230
         H           -2.365737261762    -1.031158301578     0.540930353388     1.007825032230
         H            2.364062638238     0.839871498422     0.029470253388     1.007825032230

  Basis Set: AUG-CC-PVTZ
    Blend: AUG-CC-PVTZ
  Basis Set: (AUG-CC-PVTZ AUX)
    Blend: AUG-CC-PVTZ-JKFIT
	 Reference Energy          =    -341.8155240576012375 [Eh]
	 Singles Energy            =      -0.0000000000000000 [Eh]
	 Same-Spin Energy          =      -0.3279692643872737 [Eh]
	 Opposite-Spin Energy      =      -1.0157369834903331 [Eh]
	 Correlation Energy        =      -1.3437062478776070 [Eh]
	 Total Energy              =    -343.1592303054788431 [Eh]

	 ================> DF-SCS-MP2 Energies <==================
	-----------------------------------------------------------
	 SCS Same-Spin Scale       =       0.3333333333333333 [-]
	 SCS Opposite-Spin Scale   =       1.2000000000000000 [-]
	 SCS Same-Spin Energy      =      -0.1093230881290912 [Eh]
	 SCS Opposite-Spin Energy  =      -1.2188843801883997 [Eh]
	 SCS Correlation Energy    =      -1.3282074683174909 [Eh]
	 SCS Total Energy          =    -343.1437315259187244 [Eh]
	-----------------------------------------------------------

  Dipole Moment: [D]
     X:    -1.3885      Y:     2.6953      Z:     1.0852     Total:     3.2203

*** Psi4 exiting successfully. Buy a developer a beer!
