                               Psi4 1.3.2 release

  ==> Input File <==

--------------------------------------------------------------------------
#psi4
#
memory 32 gb

molecule  {
0 1
  O       -1.3520453    -1.1489865     0.1968223
  O        1.4419330     1.0393260     0.2985870
  O        1.2366830    -1.0978030    -0.4508720
  C       -0.7180600     0.1031850     0.3873850
  C       -1.3343913     1.2171933    -0.4519615
  C        0.7367530    -0.0975110     0.0221890
  H       -0.7373290     0.3987270     1.4472430
  H       -1.2930290     0.9302150    -1.5111840
  H       -0.8256550     2.1573260    -0.3051780
  H       -2.3949050     1.3388590    -0.1830910
  H       -2.2729280    -1.0415480     0.5084360
  H        2.3630120     0.8399890     0.0298380
units angstrom
no_reorient  #important for SAPT in psi4, default
symmetry c1  #important for SAPT in psi4, default
}

set PROPERTIES_ORIGIN ["COM"]
properties('MP2/aug-cc-pvtz', properties = ['dipole'])
--------------------------------------------------------------------------

    Molecular point group: c1
  Charge       = 0
  Multiplicity = 1
  Basis Set: AUG-CC-PVTZ
    Blend: AUG-CC-PVTZ
  Basis Set: (AUG-CC-PVTZ AUX)
    Blend: AUG-CC-PVTZ-JKFIT

    Orbital Energies [Eh]
    ---------------------

    Doubly Occupied:

       1A    -20.619492     2A    -20.576307     3A    -20.554538
       4A    -11.390105     5A    -11.313437     6A    -11.239561
       7A     -1.463052     8A     -1.381096     9A     -1.356456
      10A     -1.055950    11A     -0.921273    12A     -0.802248
      13A     -0.730521    14A     -0.704778    15A     -0.661884
      16A     -0.650982    17A     -0.614979    18A     -0.602227
      19A     -0.564101    20A     -0.557454    21A     -0.523403
      22A     -0.485084    23A     -0.463617    24A     -0.450774

  @DF-RHF Final Energy:  -341.82830828570241

   => Energetics <=

    Nuclear Repulsion Energy =            248.7087575339949126
    One-Electron Energy =                -961.7074938440522374
    Two-Electron Energy =                 371.1704280243549192
    Total Energy =                       -341.8283082857024056
  Basis Set: (AUG-CC-PVTZ AUX)
    Blend: AUG-CC-PVTZ-RI
    Molecular point group: c1

    Geometry (in Angstrom), charge = 0, multiplicity = 1:

       Center              X                  Y                   Z               Mass
    ------------   -----------------  -----------------  -----------------  -----------------
         O           -1.354586491670    -1.149218413662     0.194715539006    15.994914619570
         O            1.439391808330     1.039094086338     0.296480239006    15.994914619570
         O            1.234141808330    -1.098034913662    -0.452978760994    15.994914619570
         C           -0.720601191670     0.102953086338     0.385278239006    12.000000000000
         C           -1.336932491670     1.216961386338    -0.454068260994    12.000000000000
         C            0.734211808330    -0.097742913662     0.020082239006    12.000000000000
         H           -0.739870191670     0.398495086338     1.445136239006     1.007825032230
         H           -1.295570191670     0.929983086338    -1.513290760994     1.007825032230
         H           -0.828196191670     2.157094086338    -0.307284760994     1.007825032230
         H           -2.397446191670     1.338627086338    -0.185197760994     1.007825032230
         H           -2.275469191670    -1.041779913662     0.506329239006     1.007825032230
         H            2.360470808330     0.839757086338     0.027731239006     1.007825032230

  Basis Set: AUG-CC-PVTZ
    Blend: AUG-CC-PVTZ
  Basis Set: (AUG-CC-PVTZ AUX)
    Blend: AUG-CC-PVTZ-JKFIT
	 Reference Energy          =    -341.8283082857024056 [Eh]
	 Singles Energy            =      -0.0000000000000000 [Eh]
	 Same-Spin Energy          =      -0.3269642995768146 [Eh]
	 Opposite-Spin Energy      =      -1.0127587983370376 [Eh]
	 Correlation Energy        =      -1.3397230979138521 [Eh]
	 Total Energy              =    -343.1680313836162668 [Eh]

	 ================> DF-SCS-MP2 Energies <==================
	-----------------------------------------------------------
	 SCS Same-Spin Scale       =       0.3333333333333333 [-]
	 SCS Opposite-Spin Scale   =       1.2000000000000000 [-]
	 SCS Same-Spin Energy      =      -0.1089880998589382 [Eh]
	 SCS Opposite-Spin Energy  =      -1.2153105580044452 [Eh]
	 SCS Correlation Energy    =      -1.3242986578633833 [Eh]
	 SCS Total Energy          =    -343.1526069435657860 [Eh]
	-----------------------------------------------------------

  Dipole Moment: [D]
     X:    -1.3321      Y:     2.7258      Z:     1.0407     Total:     3.2074

*** Psi4 exiting successfully. Buy a developer a beer!
