                               Psi4 1.3.2 release

  ==> Input File <==

--------------------------------------------------------------------------
#psi4
#
memory 32 gb

molecule  {
0 1
  O       -1.3597980    -1.1437690     0.1887320
  O        1.4419330     1.0393260     0.2985870
  O        1.2927187    -1.0677870    -0.4508517
  C       -0.6998243     0.1765409     0.4111222
  C       -1.3431230     1.2084980    -0.4569850
  C        0.7367530    -0.0975110     0.0221890
  H       -0.7373290     0.3987270     1.4472430
  H       -1.2930290     0.9302150    -1.5111840
  H       -0.8256550     2.1573260    -0.3051780
  H       -2.3949050     1.3388590    -0.1830910
  H       -2.2729280    -1.0415480     0.5084360
  H        2.3630120     0.8399890     0.0298380
units angstrom
no_reorient  #important for SAPT in psi4, default
symmetry c1  #important for SAPT in psi4, default
}

set PROPERTIES_ORIGIN ["COM"]
properties('MP2/aug-cc-pvtz', properties = ['dipole'])
--------------------------------------------------------------------------

    Molecular point group: c1
  Charge       = 0
  Multiplicity = 1
  Basis Set: AUG-CC-PVTZ
    Blend: AUG-CC-PVTZ
  Basis Set: (AUG-CC-PVTZ AUX)
    Blend: AUG-CC-PVTZ-JKFIT

    Orbital Energies [Eh]
    ---------------------

    Doubly Occupied:

       1A    -20.614994     2A    -20.569390     3A    -20.557386
       4A    -11.393448     5A    -11.316762     6A    -11.242047
       7A     -1.464927     8A     -1.361884     9A     -1.347998
      10A     -1.067947    11A     -0.926474    12A     -0.801269
      13A     -0.731113    14A     -0.705448    15A     -0.655671
      16A     -0.643617    17A     -0.611458    18A     -0.599845
      19A     -0.571165    20A     -0.556215    21A     -0.517917
      22A     -0.484220    23A     -0.472097    24A     -0.455713

  @DF-RHF Final Energy:  -341.82014105719838

   => Energetics <=

    Nuclear Repulsion Energy =            248.0475438818870657
    One-Electron Energy =                -960.3973575589000120
    Two-Electron Energy =                 370.5296726198145052
    Total Energy =                       -341.8201410571983843
  Basis Set: (AUG-CC-PVTZ AUX)
    Blend: AUG-CC-PVTZ-RI
    Molecular point group: c1

    Geometry (in Angstrom), charge = 0, multiplicity = 1:

       Center              X                  Y                   Z               Mass
    ------------   -----------------  -----------------  -----------------  -----------------
         O           -1.372183841067    -1.158878830138     0.185564663172    15.994914619570
         O            1.429547158933     1.024216169862     0.295419663172    15.994914619570
         O            1.280332858933    -1.082896830138    -0.454019036828    15.994914619570
         C           -0.712210141067     0.161431069862     0.407954863172    12.000000000000
         C           -1.355508841067     1.193388169862    -0.460152336828    12.000000000000
         C            0.724367158933    -0.112620830138     0.019021663172    12.000000000000
         H           -0.749714841067     0.383617169862     1.444075663172     1.007825032230
         H           -1.305414841067     0.915105169862    -1.514351336828     1.007825032230
         H           -0.838040841067     2.142216169862    -0.308345336828     1.007825032230
         H           -2.407290841067     1.323749169862    -0.186258336828     1.007825032230
         H           -2.285313841067    -1.056657830138     0.505268663172     1.007825032230
         H            2.350626158933     0.824879169862     0.026670663172     1.007825032230

  Basis Set: AUG-CC-PVTZ
    Blend: AUG-CC-PVTZ
  Basis Set: (AUG-CC-PVTZ AUX)
    Blend: AUG-CC-PVTZ-JKFIT
	 Reference Energy          =    -341.8201410571983843 [Eh]
	 Singles Energy            =      -0.0000000000000000 [Eh]
	 Same-Spin Energy          =      -0.3273453406712994 [Eh]
	 Opposite-Spin Energy      =      -1.0144704531910425 [Eh]
	 Correlation Energy        =      -1.3418157938623418 [Eh]
	 Total Energy              =    -343.1619568510607223 [Eh]

	 ================> DF-SCS-MP2 Energies <==================
	-----------------------------------------------------------
	 SCS Same-Spin Scale       =       0.3333333333333333 [-]
	 SCS Opposite-Spin Scale   =       1.2000000000000000 [-]
	 SCS Same-Spin Energy      =      -0.1091151135570998 [Eh]
	 SCS Opposite-Spin Energy  =      -1.2173645438292509 [Eh]
	 SCS Correlation Energy    =      -1.3264796573863507 [Eh]
	 SCS Total Energy          =    -343.1466207145847420 [Eh]
	-----------------------------------------------------------

  Dipole Moment: [D]
     X:    -1.3456      Y:     2.8831      Z:     1.0647     Total:     3.3551

*** Psi4 exiting successfully. Buy a developer a beer!
