                               Psi4 1.3.2 release

  ==> Input File <==

--------------------------------------------------------------------------
#psi4
#
memory 32 gb

molecule  {
0 1
  O       -1.4052675    -1.1104843     0.1405296
  O        1.4419330     1.0393260     0.2985870
  O        1.2366830    -1.0978030    -0.4508720
  C       -0.7180600     0.1031850     0.3873850
  C       -1.3944905     1.1545821    -0.4857629
  C        0.7367530    -0.0975110     0.0221890
  H       -0.7373290     0.3987270     1.4472430
  H       -1.2930290     0.9302150    -1.5111840
  H       -0.8256550     2.1573260    -0.3051780
  H       -2.3949050     1.3388590    -0.1830910
  H       -2.2729280    -1.0415480     0.5084360
  H        2.3630120     0.8399890     0.0298380
units angstrom
no_reorient  #important for SAPT in psi4, default
symmetry c1  #important for SAPT in psi4, default
}

set PROPERTIES_ORIGIN ["COM"]
properties('MP2/aug-cc-pvtz', properties = ['dipole'])
--------------------------------------------------------------------------

    Molecular point group: c1
  Charge       = 0
  Multiplicity = 1
  Basis Set: AUG-CC-PVTZ
    Blend: AUG-CC-PVTZ
  Basis Set: (AUG-CC-PVTZ AUX)
    Blend: AUG-CC-PVTZ-JKFIT

    Orbital Energies [Eh]
    ---------------------

    Doubly Occupied:

       1A    -20.620918     2A    -20.569034     3A    -20.556591
       4A    -11.392869     5A    -11.314428     6A    -11.237294
       7A     -1.464418     8A     -1.385782     9A     -1.358999
      10A     -1.054867    11A     -0.923758    12A     -0.805405
      13A     -0.735689    14A     -0.705606    15A     -0.669037
      16A     -0.649974    17A     -0.611224    18A     -0.604127
      19A     -0.573810    20A     -0.557588    21A     -0.512231
      22A     -0.486772    23A     -0.458050    24A     -0.453849

  @DF-RHF Final Energy:  -341.82207060624904

   => Energetics <=

    Nuclear Repulsion Energy =            248.7469923347749159
    One-Electron Energy =                -961.7334854244876396
    Two-Electron Energy =                 371.1644224834636248
    Total Energy =                       -341.8220706062490422
  Basis Set: (AUG-CC-PVTZ AUX)
    Blend: AUG-CC-PVTZ-RI
    Molecular point group: c1

    Geometry (in Angstrom), charge = 0, multiplicity = 1:

       Center              X                  Y                   Z               Mass
    ------------   -----------------  -----------------  -----------------  -----------------
         O           -1.390342898524    -1.109211243665     0.152928994244    15.994914619570
         O            1.456857601476     1.040599056335     0.310986394244    15.994914619570
         O            1.251607601476    -1.096529943665    -0.438472605756    15.994914619570
         C           -0.703135398524     0.104458056335     0.399784394244    12.000000000000
         C           -1.379565898524     1.155855156335    -0.473363505756    12.000000000000
         C            0.751677601476    -0.096237943665     0.034588394244    12.000000000000
         H           -0.722404398524     0.400000056335     1.459642394244     1.007825032230
         H           -1.278104398524     0.931488056335    -1.498784605756     1.007825032230
         H           -0.810730398524     2.158599056335    -0.292778605756     1.007825032230
         H           -2.379980398524     1.340132056335    -0.170691605756     1.007825032230
         H           -2.258003398524    -1.040274943665     0.520835394244     1.007825032230
         H            2.377936601476     0.841262056335     0.042237394244     1.007825032230

  Basis Set: AUG-CC-PVTZ
    Blend: AUG-CC-PVTZ
  Basis Set: (AUG-CC-PVTZ AUX)
    Blend: AUG-CC-PVTZ-JKFIT
	 Reference Energy          =    -341.8220706062490422 [Eh]
	 Singles Energy            =      -0.0000000000000000 [Eh]
	 Same-Spin Energy          =      -0.3265655541540518 [Eh]
	 Opposite-Spin Energy      =      -1.0119126321476268 [Eh]
	 Correlation Energy        =      -1.3384781863016786 [Eh]
	 Total Energy              =    -343.1605487925507418 [Eh]

	 ================> DF-SCS-MP2 Energies <==================
	-----------------------------------------------------------
	 SCS Same-Spin Scale       =       0.3333333333333333 [-]
	 SCS Opposite-Spin Scale   =       1.2000000000000000 [-]
	 SCS Same-Spin Energy      =      -0.1088551847180173 [Eh]
	 SCS Opposite-Spin Energy  =      -1.2142951585771522 [Eh]
	 SCS Correlation Energy    =      -1.3231503432951695 [Eh]
	 SCS Total Energy          =    -343.1452209495442389 [Eh]
	-----------------------------------------------------------

  Dipole Moment: [D]
     X:    -1.2156      Y:     2.6134      Z:     1.1846     Total:     3.1162

*** Psi4 exiting successfully. Buy a developer a beer!
