                               Psi4 1.3.2 release

  ==> Input File <==

--------------------------------------------------------------------------
#psi4
#
memory 32 gb

molecule  {
0 1
  O       -1.3597980    -1.1437690     0.1887320
  O        1.4419330     1.0393260     0.2985870
  O        1.2366830    -1.0978030    -0.4508720
  C       -0.6727523     0.1912219     0.4014102
  C       -1.3431230     1.2084980    -0.4569850
  C        0.7367530    -0.0975110     0.0221890
  H       -0.7373290     0.3987270     1.4472430
  H       -1.2930290     0.9302150    -1.5111840
  H       -0.8256550     2.1573260    -0.3051780
  H       -2.3949050     1.3388590    -0.1830910
  H       -2.2729280    -1.0415480     0.5084360
  H        2.3630120     0.8399890     0.0298380
units angstrom
no_reorient  #important for SAPT in psi4, default
symmetry c1  #important for SAPT in psi4, default
}

set PROPERTIES_ORIGIN ["COM"]
properties('MP2/aug-cc-pvtz', properties = ['dipole'])
--------------------------------------------------------------------------

    Molecular point group: c1
  Charge       = 0
  Multiplicity = 1
  Basis Set: AUG-CC-PVTZ
    Blend: AUG-CC-PVTZ
  Basis Set: (AUG-CC-PVTZ AUX)
    Blend: AUG-CC-PVTZ-JKFIT

    Orbital Energies [Eh]
    ---------------------

    Doubly Occupied:

       1A    -20.620571     2A    -20.563795     3A    -20.559494
       4A    -11.394365     5A    -11.314084     6A    -11.241772
       7A     -1.466450     8A     -1.365457     9A     -1.339072
      10A     -1.070352    11A     -0.930403    12A     -0.801119
      13A     -0.729460    14A     -0.707825    15A     -0.656291
      16A     -0.642220    17A     -0.609231    18A     -0.600170
      19A     -0.571317    20A     -0.556320    21A     -0.509943
      22A     -0.487110    23A     -0.468429    24A     -0.458934

  @DF-RHF Final Energy:  -341.81698365333659

   => Energetics <=

    Nuclear Repulsion Energy =            248.4250582021014679
    One-Electron Energy =                -961.1557123320114897
    Two-Electron Energy =                 370.9136704765734294
    Total Energy =                       -341.8169836533365924
  Basis Set: (AUG-CC-PVTZ AUX)
    Blend: AUG-CC-PVTZ-RI
    Molecular point group: c1

    Geometry (in Angstrom), charge = 0, multiplicity = 1:

       Center              X                  Y                   Z               Mass
    ------------   -----------------  -----------------  -----------------  -----------------
         O           -1.365836940199    -1.155503003875     0.186862747119    15.994914619570
         O            1.435894059801     1.027591996125     0.296717747119    15.994914619570
         O            1.230644059801    -1.109537003875    -0.452741252881    15.994914619570
         C           -0.678791240199     0.179487896125     0.399540947119    12.000000000000
         C           -1.349161940199     1.196763996125    -0.458854252881    12.000000000000
         C            0.730714059801    -0.109245003875     0.020319747119    12.000000000000
         H           -0.743367940199     0.386992996125     1.445373747119     1.007825032230
         H           -1.299067940199     0.918480996125    -1.513053252881     1.007825032230
         H           -0.831693940199     2.145591996125    -0.307047252881     1.007825032230
         H           -2.400943940199     1.327124996125    -0.184960252881     1.007825032230
         H           -2.278966940199    -1.053282003875     0.506566747119     1.007825032230
         H            2.356973059801     0.828254996125     0.027968747119     1.007825032230

  Basis Set: AUG-CC-PVTZ
    Blend: AUG-CC-PVTZ
  Basis Set: (AUG-CC-PVTZ AUX)
    Blend: AUG-CC-PVTZ-JKFIT
	 Reference Energy          =    -341.8169836533365924 [Eh]
	 Singles Energy            =      -0.0000000000000000 [Eh]
	 Same-Spin Energy          =      -0.3277923496209184 [Eh]
	 Opposite-Spin Energy      =      -1.0155044687876496 [Eh]
	 Correlation Energy        =      -1.3432968184085681 [Eh]
	 Total Energy              =    -343.1602804717451818 [Eh]

	 ================> DF-SCS-MP2 Energies <==================
	-----------------------------------------------------------
	 SCS Same-Spin Scale       =       0.3333333333333333 [-]
	 SCS Opposite-Spin Scale   =       1.2000000000000000 [-]
	 SCS Same-Spin Energy      =      -0.1092641165403061 [Eh]
	 SCS Opposite-Spin Energy  =      -1.2186053625451794 [Eh]
	 SCS Correlation Energy    =      -1.3278694790854855 [Eh]
	 SCS Total Energy          =    -343.1448531324220994 [Eh]
	-----------------------------------------------------------

  Dipole Moment: [D]
     X:    -1.1227      Y:     2.9966      Z:     1.0436     Total:     3.3659

*** Psi4 exiting successfully. Buy a developer a beer!
