                               Psi4 1.3.2 release

  ==> Input File <==

--------------------------------------------------------------------------
#psi4
#
memory 32 gb

molecule  {
0 1
  O       -1.3597980    -1.1437690     0.1887320
  O        1.3812441     1.0690205     0.3220363
  O        1.1793455    -1.1252030    -0.4492574
  C       -0.7180600     0.1031850     0.3873850
  C       -1.3431230     1.2084980    -0.4569850
  C        0.7367530    -0.0975110     0.0221890
  H       -0.7373290     0.3987270     1.4472430
  H       -1.2930290     0.9302150    -1.5111840
  H       -0.8256550     2.1573260    -0.3051780
  H       -2.3949050     1.3388590    -0.1830910
  H       -2.2729280    -1.0415480     0.5084360
  H        2.3630120     0.8399890     0.0298380
units angstrom
no_reorient  #important for SAPT in psi4, default
symmetry c1  #important for SAPT in psi4, default
}

set PROPERTIES_ORIGIN ["COM"]
properties('MP2/aug-cc-pvtz', properties = ['dipole'])
--------------------------------------------------------------------------

    Molecular point group: c1
  Charge       = 0
  Multiplicity = 1
  Basis Set: AUG-CC-PVTZ
    Blend: AUG-CC-PVTZ
  Basis Set: (AUG-CC-PVTZ AUX)
    Blend: AUG-CC-PVTZ-JKFIT

    Orbital Energies [Eh]
    ---------------------

    Doubly Occupied:

       1A    -20.632891     2A    -20.570697     3A    -20.558686
       4A    -11.390974     5A    -11.306515     6A    -11.235832
       7A     -1.457947     8A     -1.378666     9A     -1.359249
      10A     -1.050472    11A     -0.915892    12A     -0.789540
      13A     -0.727801    14A     -0.707118    15A     -0.660684
      16A     -0.649066    17A     -0.611744    18A     -0.599041
      19A     -0.561557    20A     -0.556954    21A     -0.519267
      22A     -0.489447    23A     -0.459411    24A     -0.448808

  @DF-RHF Final Energy:  -341.81593269369358

   => Energetics <=

    Nuclear Repulsion Energy =            249.0675275861961495
    One-Electron Energy =                -962.4904029196106876
    Two-Electron Energy =                 371.6069426397210123
    Total Energy =                       -341.8159326936935827
  Basis Set: (AUG-CC-PVTZ AUX)
    Blend: AUG-CC-PVTZ-RI
    Molecular point group: c1

    Geometry (in Angstrom), charge = 0, multiplicity = 1:

       Center              X                  Y                   Z               Mass
    ------------   -----------------  -----------------  -----------------  -----------------
         O           -1.338829622204    -1.144176520695     0.184279295336    15.994914619570
         O            1.402212477796     1.068612979305     0.317583595336    15.994914619570
         O            1.200313877796    -1.125610520695    -0.453710104664    15.994914619570
         C           -0.697091622204     0.102777479305     0.382932295336    12.000000000000
         C           -1.322154622204     1.208090479305    -0.461437704664    12.000000000000
         C            0.757721377796    -0.097918520695     0.017736295336    12.000000000000
         H           -0.716360622204     0.398319479305     1.442790295336     1.007825032230
         H           -1.272060622204     0.929807479305    -1.515636704664     1.007825032230
         H           -0.804686622204     2.156918479305    -0.309630704664     1.007825032230
         H           -2.373936622204     1.338451479305    -0.187543704664     1.007825032230
         H           -2.251959622204    -1.041955520695     0.503983295336     1.007825032230
         H            2.383980377796     0.839581479305     0.025385295336     1.007825032230

  Basis Set: AUG-CC-PVTZ
    Blend: AUG-CC-PVTZ
  Basis Set: (AUG-CC-PVTZ AUX)
    Blend: AUG-CC-PVTZ-JKFIT
	 Reference Energy          =    -341.8159326936935827 [Eh]
	 Singles Energy            =      -0.0000000000000000 [Eh]
	 Same-Spin Energy          =      -0.3286273347192750 [Eh]
	 Opposite-Spin Energy      =      -1.0162478401638477 [Eh]
	 Correlation Energy        =      -1.3448751748831227 [Eh]
	 Total Energy              =    -343.1608078685766827 [Eh]

	 ================> DF-SCS-MP2 Energies <==================
	-----------------------------------------------------------
	 SCS Same-Spin Scale       =       0.3333333333333333 [-]
	 SCS Opposite-Spin Scale   =       1.2000000000000000 [-]
	 SCS Same-Spin Energy      =      -0.1095424449064250 [Eh]
	 SCS Opposite-Spin Energy  =      -1.2194974081966172 [Eh]
	 SCS Correlation Energy    =      -1.3290398531030423 [Eh]
	 SCS Total Energy          =    -343.1449725467966232 [Eh]
	-----------------------------------------------------------

  Dipole Moment: [D]
     X:    -0.9885      Y:     2.7377      Z:     1.0240     Total:     3.0856

*** Psi4 exiting successfully. Buy a developer a beer!
