                               Psi4 1.3.2 release

  ==> Input File <==

--------------------------------------------------------------------------
#psi4
#
memory 32 gb

molecule  {
0 1
  O       -1.3597980    -1.1437690     0.1887320
  O        1.4419330     1.0393260     0.2985870
  O        1.2366830    -1.0978030    -0.4508720
  C       -0.7180600     0.1031850     0.3873850
  C       -1.3431230     1.2084980    -0.4569850
  C        0.7367530    -0.0975110     0.0221890
  H       -0.7373290     0.3987270     1.4472430
  H       -1.2930290     0.9302150    -1.5111840
  H       -0.8256550     2.1573260    -0.3051780
  H       -2.3949050     1.3388590    -0.1830910
  H       -2.4606478    -1.0205336     0.5741602
  H        2.3630120     0.8399890     0.0298380
units angstrom
no_reorient  #important for SAPT in psi4, default
symmetry c1  #important for SAPT in psi4, default
}

set PROPERTIES_ORIGIN ["COM"]
properties('MP2/aug-cc-pvtz', properties = ['dipole'])
--------------------------------------------------------------------------

    Molecular point group: c1
  Charge       = 0
  Multiplicity = 1
  Basis Set: AUG-CC-PVTZ
    Blend: AUG-CC-PVTZ
  Basis Set: (AUG-CC-PVTZ AUX)
    Blend: AUG-CC-PVTZ-JKFIT

    Orbital Energies [Eh]
    ---------------------

    Doubly Occupied:

       1A    -20.619273     2A    -20.589943     3A    -20.554436
       4A    -11.390244     5A    -11.311562     6A    -11.237591
       7A     -1.462602     8A     -1.364699     9A     -1.342902
      10A     -1.047490    11A     -0.917664    12A     -0.793722
      13A     -0.718941    14A     -0.703764    15A     -0.656940
      16A     -0.634279    17A     -0.609703    18A     -0.597216
      19A     -0.558256    20A     -0.556836    21A     -0.512371
      22A     -0.484783    23A     -0.459592    24A     -0.449910

  @DF-RHF Final Energy:  -341.79319897636333

   => Energetics <=

    Nuclear Repulsion Energy =            247.6434402080108157
    One-Electron Energy =                -959.7238432159351760
    Two-Electron Energy =                 370.2872040315610320
    Total Energy =                       -341.7931989763633283
  Basis Set: (AUG-CC-PVTZ AUX)
    Blend: AUG-CC-PVTZ-RI
    Molecular point group: c1

    Geometry (in Angstrom), charge = 0, multiplicity = 1:

       Center              X                  Y                   Z               Mass
    ------------   -----------------  -----------------  -----------------  -----------------
         O           -1.357696683357    -1.144004120370     0.187996391299    15.994914619570
         O            1.444034316643     1.039090879630     0.297851391299    15.994914619570
         O            1.238784316643    -1.098038120370    -0.451607608701    15.994914619570
         C           -0.715958683357     0.102949879630     0.386649391299    12.000000000000
         C           -1.341021683357     1.208262879630    -0.457720608701    12.000000000000
         C            0.738854316643    -0.097746120370     0.021453391299    12.000000000000
         H           -0.735227683357     0.398491879630     1.446507391299     1.007825032230
         H           -1.290927683357     0.929979879630    -1.511919608701     1.007825032230
         H           -0.823553683357     2.157090879630    -0.305913608701     1.007825032230
         H           -2.392803683357     1.338623879630    -0.183826608701     1.007825032230
         H           -2.458546483357    -1.020768720370     0.573424591299     1.007825032230
         H            2.365113316643     0.839753879630     0.029102391299     1.007825032230

  Basis Set: AUG-CC-PVTZ
    Blend: AUG-CC-PVTZ
  Basis Set: (AUG-CC-PVTZ AUX)
    Blend: AUG-CC-PVTZ-JKFIT
	 Reference Energy          =    -341.7931989763633283 [Eh]
	 Singles Energy            =      -0.0000000000000000 [Eh]
	 Same-Spin Energy          =      -0.3289742060220135 [Eh]
	 Opposite-Spin Energy      =      -1.0191859879572451 [Eh]
	 Correlation Energy        =      -1.3481601939792587 [Eh]
	 Total Energy              =    -343.1413591703425823 [Eh]

	 ================> DF-SCS-MP2 Energies <==================
	-----------------------------------------------------------
	 SCS Same-Spin Scale       =       0.3333333333333333 [-]
	 SCS Opposite-Spin Scale   =       1.2000000000000000 [-]
	 SCS Same-Spin Energy      =      -0.1096580686740045 [Eh]
	 SCS Opposite-Spin Energy  =      -1.2230231855486942 [Eh]
	 SCS Correlation Energy    =      -1.3326812542226987 [Eh]
	 SCS Total Energy          =    -343.1258802305860058 [Eh]
	-----------------------------------------------------------

  Dipole Moment: [D]
     X:    -1.4491      Y:     2.6823      Z:     1.1078     Total:     3.2437

*** Psi4 exiting successfully. Buy a developer a beer!
