                               Psi4 1.3.2 release

  ==> Input File <==

--------------------------------------------------------------------------
#psi4
#
memory 32 gb

molecule  {
0 1
  O       -1.3597980    -1.1437690     0.1887320
  O        1.5006890     1.0065155     0.2743801
  O        1.2926502    -1.0676612    -0.4511899
  C       -0.7180600     0.1031850     0.3873850
  C       -1.3431230     1.2084980    -0.4569850
  C        0.7367530    -0.0975110     0.0221890
  H       -0.7373290     0.3987270     1.4472430
  H       -1.2930290     0.9302150    -1.5111840
  H       -0.8256550     2.1573260    -0.3051780
  H       -2.3949050     1.3388590    -0.1830910
  H       -2.2729280    -1.0415480     0.5084360
  H        2.3630120     0.8399890     0.0298380
units angstrom
no_reorient  #important for SAPT in psi4, default
symmetry c1  #important for SAPT in psi4, default
}

set PROPERTIES_ORIGIN ["COM"]
properties('MP2/aug-cc-pvtz', properties = ['dipole'])
--------------------------------------------------------------------------

    Molecular point group: c1
  Charge       = 0
  Multiplicity = 1
  Basis Set: AUG-CC-PVTZ
    Blend: AUG-CC-PVTZ
  Basis Set: (AUG-CC-PVTZ AUX)
    Blend: AUG-CC-PVTZ-JKFIT

    Orbital Energies [Eh]
    ---------------------

    Doubly Occupied:

       1A    -20.604701     2A    -20.579598     3A    -20.550684
       4A    -11.390712     5A    -11.320416     6A    -11.242238
       7A     -1.470419     8A     -1.385620     9A     -1.353770
      10A     -1.061047    11A     -0.927861    12A     -0.818465
      13A     -0.734639    14A     -0.701011    15A     -0.667053
      16A     -0.652846    17A     -0.614703    18A     -0.603775
      19A     -0.568553    20A     -0.559271    21A     -0.524659
      22A     -0.480932    23A     -0.466966    24A     -0.451302

  @DF-RHF Final Energy:  -341.82770171275166

   => Energetics <=

    Nuclear Repulsion Energy =            248.5239962113422223
    One-Electron Energy =                -961.2409153892731410
    Two-Electron Energy =                 370.8892174651792288
    Total Energy =                       -341.8277017127516615
  Basis Set: (AUG-CC-PVTZ AUX)
    Blend: AUG-CC-PVTZ-RI
    Molecular point group: c1

    Geometry (in Angstrom), charge = 0, multiplicity = 1:

       Center              X                  Y                   Z               Mass
    ------------   -----------------  -----------------  -----------------  -----------------
         O           -1.380179615881    -1.143294764985     0.193089159806    15.994914619570
         O            1.480307384119     1.006989735015     0.278737259806    15.994914619570
         O            1.272268584119    -1.067186964985    -0.446832740194    15.994914619570
         C           -0.738441615881     0.103659235015     0.391742159806    12.000000000000
         C           -1.363504615881     1.208972235015    -0.452627840194    12.000000000000
         C            0.716371384119    -0.097036764985     0.026546159806    12.000000000000
         H           -0.757710615881     0.399201235015     1.451600159806     1.007825032230
         H           -1.313410615881     0.930689235015    -1.506826840194     1.007825032230
         H           -0.846036615881     2.157800235015    -0.300820840194     1.007825032230
         H           -2.415286615881     1.339333235015    -0.178733840194     1.007825032230
         H           -2.293309615881    -1.041073764985     0.512793159806     1.007825032230
         H            2.342630384119     0.840463235015     0.034195159806     1.007825032230

  Basis Set: AUG-CC-PVTZ
    Blend: AUG-CC-PVTZ
  Basis Set: (AUG-CC-PVTZ AUX)
    Blend: AUG-CC-PVTZ-JKFIT
	 Reference Energy          =    -341.8277017127516615 [Eh]
	 Singles Energy            =      -0.0000000000000000 [Eh]
	 Same-Spin Energy          =      -0.3253989081131518 [Eh]
	 Opposite-Spin Energy      =      -1.0095452387243751 [Eh]
	 Correlation Energy        =      -1.3349441468375269 [Eh]
	 Total Energy              =    -343.1626458595891904 [Eh]

	 ================> DF-SCS-MP2 Energies <==================
	-----------------------------------------------------------
	 SCS Same-Spin Scale       =       0.3333333333333333 [-]
	 SCS Opposite-Spin Scale   =       1.2000000000000000 [-]
	 SCS Same-Spin Energy      =      -0.1084663027043839 [Eh]
	 SCS Opposite-Spin Energy  =      -1.2114542864692501 [Eh]
	 SCS Correlation Energy    =      -1.3199205891736341 [Eh]
	 SCS Total Energy          =    -343.1476223019253098 [Eh]
	-----------------------------------------------------------

  Dipole Moment: [D]
     X:    -1.6587      Y:     2.6809      Z:     1.0957     Total:     3.3375

*** Psi4 exiting successfully. Buy a developer a beer!
