                               Psi4 1.3.2 release

  ==> Input File <==

--------------------------------------------------------------------------
#psi4
#
memory 32 gb

molecule  {
0 1
  O       -1.3903142    -1.1219535     0.1565284
  O        1.4419330     1.0393260     0.2985870
  O        1.2366830    -1.0978030    -0.4508720
  C       -0.7180600     0.1031850     0.3873850
  C       -1.3775671     1.1728817    -0.4764324
  C        0.7367530    -0.0975110     0.0221890
  H       -0.7373290     0.3987270     1.4472430
  H       -1.2930290     0.9302150    -1.5111840
  H       -0.8256550     2.1573260    -0.3051780
  H       -2.3949050     1.3388590    -0.1830910
  H       -2.2729280    -1.0415480     0.5084360
  H        2.3630120     0.8399890     0.0298380
units angstrom
no_reorient  #important for SAPT in psi4, default
symmetry c1  #important for SAPT in psi4, default
}

set PROPERTIES_ORIGIN ["COM"]
properties('MP2/aug-cc-pvtz', properties = ['dipole'])
--------------------------------------------------------------------------

    Molecular point group: c1
  Charge       = 0
  Multiplicity = 1
  Basis Set: AUG-CC-PVTZ
    Blend: AUG-CC-PVTZ
  Basis Set: (AUG-CC-PVTZ AUX)
    Blend: AUG-CC-PVTZ-JKFIT

    Orbital Energies [Eh]
    ---------------------

    Doubly Occupied:

       1A    -20.620512     2A    -20.570908     3A    -20.555983
       4A    -11.392064     5A    -11.314017     6A    -11.237591
       7A     -1.464012     8A     -1.384309     9A     -1.358274
      10A     -1.055064    11A     -0.922934    12A     -0.804446
      13A     -0.734100    14A     -0.705296    15A     -0.666704
      16A     -0.650105    17A     -0.610957    18A     -0.603897
      19A     -0.570753    20A     -0.558452    21A     -0.515554
      22A     -0.486253    23A     -0.460638    24A     -0.453108

  @DF-RHF Final Energy:  -341.82631983927104

   => Energetics <=

    Nuclear Repulsion Energy =            248.7248662372801675
    One-Electron Energy =                -961.7105150203057065
    Two-Electron Energy =                 371.1593289437545309
    Total Energy =                       -341.8263198392710365
  Basis Set: (AUG-CC-PVTZ AUX)
    Blend: AUG-CC-PVTZ-RI
    Molecular point group: c1

    Geometry (in Angstrom), charge = 0, multiplicity = 1:

       Center              X                  Y                   Z               Mass
    ------------   -----------------  -----------------  -----------------  -----------------
         O           -1.380301841501    -1.121081928116     0.164841839360    15.994914619570
         O            1.451945358499     1.040197571884     0.306900439360    15.994914619570
         O            1.246695358499    -1.096931428116    -0.442558560640    15.994914619570
         C           -0.708047641501     0.104056571884     0.395698439360    12.000000000000
         C           -1.367554741501     1.173753271884    -0.468118960640    12.000000000000
         C            0.746765358499    -0.096639428116     0.030502439360    12.000000000000
         H           -0.727316641501     0.399598571884     1.455556439360     1.007825032230
         H           -1.283016641501     0.931086571884    -1.502870560640     1.007825032230
         H           -0.815642641501     2.158197571884    -0.296864560640     1.007825032230
         H           -2.384892641501     1.339730571884    -0.174777560640     1.007825032230
         H           -2.262915641501    -1.040676428116     0.516749439360     1.007825032230
         H            2.373024358499     0.840860571884     0.038151439360     1.007825032230

  Basis Set: AUG-CC-PVTZ
    Blend: AUG-CC-PVTZ
  Basis Set: (AUG-CC-PVTZ AUX)
    Blend: AUG-CC-PVTZ-JKFIT
	 Reference Energy          =    -341.8263198392710365 [Eh]
	 Singles Energy            =      -0.0000000000000000 [Eh]
	 Same-Spin Energy          =      -0.3266173276588299 [Eh]
	 Opposite-Spin Energy      =      -1.0119953081925697 [Eh]
	 Correlation Energy        =      -1.3386126358513994 [Eh]
	 Total Energy              =    -343.1649324751224412 [Eh]

	 ================> DF-SCS-MP2 Energies <==================
	-----------------------------------------------------------
	 SCS Same-Spin Scale       =       0.3333333333333333 [-]
	 SCS Opposite-Spin Scale   =       1.2000000000000000 [-]
	 SCS Same-Spin Energy      =      -0.1088724425529433 [Eh]
	 SCS Opposite-Spin Energy  =      -1.2143943698310835 [Eh]
	 SCS Correlation Energy    =      -1.3232668123840268 [Eh]
	 SCS Total Energy          =    -343.1495866516550564 [Eh]
	-----------------------------------------------------------

  Dipole Moment: [D]
     X:    -1.2485      Y:     2.6542      Z:     1.1420     Total:     3.1477

*** Psi4 exiting successfully. Buy a developer a beer!
