                               Psi4 1.3.2 release

  ==> Input File <==

--------------------------------------------------------------------------
#psi4
#
memory 32 gb

molecule  {
0 1
  O       -1.3597980    -1.1437690     0.1887320
  O        1.3811784     1.0691400     0.3217124
  O        1.2366830    -1.0978030    -0.4508720
  C       -0.6998990     0.1766793     0.4107485
  C       -1.3431230     1.2084980    -0.4569850
  C        0.7367530    -0.0975110     0.0221890
  H       -0.7373290     0.3987270     1.4472430
  H       -1.2930290     0.9302150    -1.5111840
  H       -0.8256550     2.1573260    -0.3051780
  H       -2.3949050     1.3388590    -0.1830910
  H       -2.2729280    -1.0415480     0.5084360
  H        2.3630120     0.8399890     0.0298380
units angstrom
no_reorient  #important for SAPT in psi4, default
symmetry c1  #important for SAPT in psi4, default
}

set PROPERTIES_ORIGIN ["COM"]
properties('MP2/aug-cc-pvtz', properties = ['dipole'])
--------------------------------------------------------------------------

    Molecular point group: c1
  Charge       = 0
  Multiplicity = 1
  Basis Set: AUG-CC-PVTZ
    Blend: AUG-CC-PVTZ
  Basis Set: (AUG-CC-PVTZ AUX)
    Blend: AUG-CC-PVTZ-JKFIT

    Orbital Energies [Eh]
    ---------------------

    Doubly Occupied:

       1A    -20.628632     2A    -20.564790     3A    -20.561520
       4A    -11.393843     5A    -11.310029     6A    -11.238943
       7A     -1.459527     8A     -1.364694     9A     -1.345199
      10A     -1.062819    11A     -0.920768    12A     -0.789128
      13A     -0.726290    14A     -0.708025    15A     -0.655913
      16A     -0.642803    17A     -0.608880    18A     -0.594804
      19A     -0.567919    20A     -0.554728    21A     -0.514482
      22A     -0.488876    23A     -0.467933    24A     -0.454844

  @DF-RHF Final Energy:  -341.80922533321120

   => Energetics <=

    Nuclear Repulsion Energy =            248.3471543883386516
    One-Electron Energy =                -961.0619816736550547
    Two-Electron Energy =                 370.9056019521052576
    Total Energy =                       -341.8092253332112023
  Basis Set: (AUG-CC-PVTZ AUX)
    Blend: AUG-CC-PVTZ-RI
    Molecular point group: c1

    Geometry (in Angstrom), charge = 0, multiplicity = 1:

       Center              X                  Y                   Z               Mass
    ------------   -----------------  -----------------  -----------------  -----------------
         O           -1.351425070541    -1.158861389915     0.181509650039    15.994914619570
         O            1.389551329459     1.054047610085     0.314490050039    15.994914619570
         O            1.245055929459    -1.112895389915    -0.458094349961    15.994914619570
         C           -0.691526070541     0.161586910085     0.403526150039    12.000000000000
         C           -1.334750070541     1.193405610085    -0.464207349961    12.000000000000
         C            0.745125929459    -0.112603389915     0.014966650039    12.000000000000
         H           -0.728956070541     0.383634610085     1.440020650039     1.007825032230
         H           -1.284656070541     0.915122610085    -1.518406349961     1.007825032230
         H           -0.817282070541     2.142233610085    -0.312400349961     1.007825032230
         H           -2.386532070541     1.323766610085    -0.190313349961     1.007825032230
         H           -2.264555070541    -1.056640389915     0.501213650039     1.007825032230
         H            2.371384929459     0.824896610085     0.022615650039     1.007825032230

  Basis Set: AUG-CC-PVTZ
    Blend: AUG-CC-PVTZ
  Basis Set: (AUG-CC-PVTZ AUX)
    Blend: AUG-CC-PVTZ-JKFIT
	 Reference Energy          =    -341.8092253332112023 [Eh]
	 Singles Energy            =      -0.0000000000000000 [Eh]
	 Same-Spin Energy          =      -0.3290497314581283 [Eh]
	 Opposite-Spin Energy      =      -1.0180311047010175 [Eh]
	 Correlation Energy        =      -1.3470808361591460 [Eh]
	 Total Energy              =    -343.1563061693703389 [Eh]

	 ================> DF-SCS-MP2 Energies <==================
	-----------------------------------------------------------
	 SCS Same-Spin Scale       =       0.3333333333333333 [-]
	 SCS Opposite-Spin Scale   =       1.2000000000000000 [-]
	 SCS Same-Spin Energy      =      -0.1096832438193761 [Eh]
	 SCS Opposite-Spin Energy  =      -1.2216373256412210 [Eh]
	 SCS Correlation Energy    =      -1.3313205694605972 [Eh]
	 SCS Total Energy          =    -343.1405459026718177 [Eh]
	-----------------------------------------------------------

  Dipole Moment: [D]
     X:    -1.0196      Y:     2.9157      Z:     1.0323     Total:     3.2568

*** Psi4 exiting successfully. Buy a developer a beer!
