                               Psi4 1.3.2 release

  ==> Input File <==

--------------------------------------------------------------------------
#psi4
#
memory 32 gb

molecule  {
0 1
  O       -1.3597980    -1.1437690     0.1887320
  O        1.4419330     1.0393260     0.2985870
  O        1.2272063    -1.1025412    -0.4507493
  C       -0.7207128     0.0909001     0.3833297
  C       -1.3431230     1.2084980    -0.4569850
  C        0.7367530    -0.0975110     0.0221890
  H       -0.7373290     0.3987270     1.4472430
  H       -1.2930290     0.9302150    -1.5111840
  H       -0.8256550     2.1573260    -0.3051780
  H       -2.3949050     1.3388590    -0.1830910
  H       -2.2729280    -1.0415480     0.5084360
  H        2.3630120     0.8399890     0.0298380
units angstrom
no_reorient  #important for SAPT in psi4, default
symmetry c1  #important for SAPT in psi4, default
}

set PROPERTIES_ORIGIN ["COM"]
properties('MP2/aug-cc-pvtz', properties = ['dipole'])
--------------------------------------------------------------------------

    Molecular point group: c1
  Charge       = 0
  Multiplicity = 1
  Basis Set: AUG-CC-PVTZ
    Blend: AUG-CC-PVTZ
  Basis Set: (AUG-CC-PVTZ AUX)
    Blend: AUG-CC-PVTZ-JKFIT

    Orbital Energies [Eh]
    ---------------------

    Doubly Occupied:

       1A    -20.620491     2A    -20.576060     3A    -20.554389
       4A    -11.390070     5A    -11.313177     6A    -11.238546
       7A     -1.463071     8A     -1.386125     9A     -1.357581
      10A     -1.053650    11A     -0.920807    12A     -0.803397
      13A     -0.731072    14A     -0.704850    15A     -0.664925
      16A     -0.651470    17A     -0.614276    18A     -0.603227
      19A     -0.564669    20A     -0.558105    21A     -0.522255
      22A     -0.485519    23A     -0.461073    24A     -0.450297

  @DF-RHF Final Energy:  -341.82901974123979

   => Energetics <=

    Nuclear Repulsion Energy =            248.8308251915095752
    One-Electron Energy =                -961.9414830973091739
    Two-Electron Energy =                 371.2816381645598085
    Total Energy =                       -341.8290197412397902
  Basis Set: (AUG-CC-PVTZ AUX)
    Blend: AUG-CC-PVTZ-RI
    Molecular point group: c1

    Geometry (in Angstrom), charge = 0, multiplicity = 1:

       Center              X                  Y                   Z               Mass
    ------------   -----------------  -----------------  -----------------  -----------------
         O           -1.357760839721    -1.141289690242     0.189250833073    15.994914619570
         O            1.443970160279     1.041805309758     0.299105833073    15.994914619570
         O            1.229243460279    -1.100061890242    -0.450230466927    15.994914619570
         C           -0.718675639721     0.093379409758     0.383848533073    12.000000000000
         C           -1.341085839721     1.210977309758    -0.456466166927    12.000000000000
         C            0.738790160279    -0.095031690242     0.022707833073    12.000000000000
         H           -0.735291839721     0.401206309758     1.447761833073     1.007825032230
         H           -1.290991839721     0.932694309758    -1.510665166927     1.007825032230
         H           -0.823617839721     2.159805309758    -0.304659166927     1.007825032230
         H           -2.392867839721     1.341338309758    -0.182572166927     1.007825032230
         H           -2.270890839721    -1.039068690242     0.508954833073     1.007825032230
         H            2.365049160279     0.842468309758     0.030356833073     1.007825032230

  Basis Set: AUG-CC-PVTZ
    Blend: AUG-CC-PVTZ
  Basis Set: (AUG-CC-PVTZ AUX)
    Blend: AUG-CC-PVTZ-JKFIT
	 Reference Energy          =    -341.8290197412397902 [Eh]
	 Singles Energy            =      -0.0000000000000000 [Eh]
	 Same-Spin Energy          =      -0.3268436954662951 [Eh]
	 Opposite-Spin Energy      =      -1.0123221250480627 [Eh]
	 Correlation Energy        =      -1.3391658205143577 [Eh]
	 Total Energy              =    -343.1681855617541714 [Eh]

	 ================> DF-SCS-MP2 Energies <==================
	-----------------------------------------------------------
	 SCS Same-Spin Scale       =       0.3333333333333333 [-]
	 SCS Opposite-Spin Scale   =       1.2000000000000000 [-]
	 SCS Same-Spin Energy      =      -0.1089478984887650 [Eh]
	 SCS Opposite-Spin Energy  =      -1.2147865500576753 [Eh]
	 SCS Correlation Energy    =      -1.3237344485464404 [Eh]
	 SCS Total Energy          =    -343.1527541897862079 [Eh]
	-----------------------------------------------------------

  Dipole Moment: [D]
     X:    -1.3107      Y:     2.6836      Z:     1.0577     Total:     3.1683

*** Psi4 exiting successfully. Buy a developer a beer!
