                               Psi4 1.3.2 release

  ==> Input File <==

--------------------------------------------------------------------------
#psi4
#
memory 32 gb

molecule  {
0 1
  O       -1.3597980    -1.1437690     0.1887320
  O        1.4518753     1.0340517     0.2946574
  O        1.2366830    -1.0978030    -0.4508720
  C       -0.7207003     0.0908770     0.3833920
  C       -1.3431230     1.2084980    -0.4569850
  C        0.7367530    -0.0975110     0.0221890
  H       -0.7373290     0.3987270     1.4472430
  H       -1.2930290     0.9302150    -1.5111840
  H       -0.8256550     2.1573260    -0.3051780
  H       -2.3949050     1.3388590    -0.1830910
  H       -2.2729280    -1.0415480     0.5084360
  H        2.3630120     0.8399890     0.0298380
units angstrom
no_reorient  #important for SAPT in psi4, default
symmetry c1  #important for SAPT in psi4, default
}

set PROPERTIES_ORIGIN ["COM"]
properties('MP2/aug-cc-pvtz', properties = ['dipole'])
--------------------------------------------------------------------------

    Molecular point group: c1
  Charge       = 0
  Multiplicity = 1
  Basis Set: AUG-CC-PVTZ
    Blend: AUG-CC-PVTZ
  Basis Set: (AUG-CC-PVTZ AUX)
    Blend: AUG-CC-PVTZ-JKFIT

    Orbital Energies [Eh]
    ---------------------

    Doubly Occupied:

       1A    -20.618131     2A    -20.576800     3A    -20.553726
       4A    -11.390052     5A    -11.314338     6A    -11.239084
       7A     -1.464125     8A     -1.386781     9A     -1.357066
      10A     -1.054527    11A     -0.921808    12A     -0.805886
      13A     -0.731626    14A     -0.704317    15A     -0.665602
      16A     -0.651779    17A     -0.614485    18A     -0.603517
      19A     -0.565255    20A     -0.558301    21A     -0.522683
      22A     -0.484810    23A     -0.461703    24A     -0.450538

  @DF-RHF Final Energy:  -341.82998302773245

   => Energetics <=

    Nuclear Repulsion Energy =            248.7854103416009650
    One-Electron Energy =                -961.8369074879755090
    Two-Electron Energy =                 371.2215141186421192
    Total Energy =                       -341.8299830277324531
  Basis Set: (AUG-CC-PVTZ AUX)
    Blend: AUG-CC-PVTZ-RI
    Molecular point group: c1

    Geometry (in Angstrom), charge = 0, multiplicity = 1:

       Center              X                  Y                   Z               Mass
    ------------   -----------------  -----------------  -----------------  -----------------
         O           -1.361212460289    -1.141191368492     0.189962455721    15.994914619570
         O            1.450460839711     1.036629331508     0.295887855721    15.994914619570
         O            1.235268539711    -1.095225368492    -0.449641544279    15.994914619570
         C           -0.722114760289     0.093454631508     0.384622455721    12.000000000000
         C           -1.344537460289     1.211075631508    -0.455754544279    12.000000000000
         C            0.735338539711    -0.094933368492     0.023419455721    12.000000000000
         H           -0.738743460289     0.401304631508     1.448473455721     1.007825032230
         H           -1.294443460289     0.932792631508    -1.509953544279     1.007825032230
         H           -0.827069460289     2.159903631508    -0.303947544279     1.007825032230
         H           -2.396319460289     1.341436631508    -0.181860544279     1.007825032230
         H           -2.274342460289    -1.038970368492     0.509666455721     1.007825032230
         H            2.361597539711     0.842566631508     0.031068455721     1.007825032230

  Basis Set: AUG-CC-PVTZ
    Blend: AUG-CC-PVTZ
  Basis Set: (AUG-CC-PVTZ AUX)
    Blend: AUG-CC-PVTZ-JKFIT
	 Reference Energy          =    -341.8299830277324531 [Eh]
	 Singles Energy            =      -0.0000000000000000 [Eh]
	 Same-Spin Energy          =      -0.3265755549028133 [Eh]
	 Opposite-Spin Energy      =      -1.0117674693789915 [Eh]
	 Correlation Energy        =      -1.3383430242818048 [Eh]
	 Total Energy              =    -343.1683260520142653 [Eh]

	 ================> DF-SCS-MP2 Energies <==================
	-----------------------------------------------------------
	 SCS Same-Spin Scale       =       0.3333333333333333 [-]
	 SCS Opposite-Spin Scale   =       1.2000000000000000 [-]
	 SCS Same-Spin Energy      =      -0.1088585183009377 [Eh]
	 SCS Opposite-Spin Energy  =      -1.2141209632547898 [Eh]
	 SCS Correlation Energy    =      -1.3229794815557276 [Eh]
	 SCS Total Energy          =    -343.1529625092881588 [Eh]
	-----------------------------------------------------------

  Dipole Moment: [D]
     X:    -1.3670      Y:     2.6789      Z:     1.0637     Total:     3.1901

*** Psi4 exiting successfully. Buy a developer a beer!
