                               Psi4 1.4a3.dev225

  ==> Input File <==

--------------------------------------------------------------------------
#psi4
#
memory 32 gb

molecule  {
0 1
  O        1.3501930    -1.1356630    -0.2433140
  O       -1.5558540     0.8884770    -0.3921630
  O       -1.2169910    -1.1507310     0.5497490
  C        0.6629050     0.0959340    -0.3934650
  C        1.2396040     1.1907030     0.5015680
  C       -0.8002149    -0.1755826    -0.0151016
  H        0.6688980     0.4337360    -1.4405180
  H        1.2084250     0.8592770     1.5425200
  H        0.6765780     2.1206880     0.3977210
  H        2.2819130     1.3850820     0.2293300
  H        2.2793940    -0.9684070    -0.4767370
  H       -2.4621080     0.6654070    -0.0949290
units angstrom
no_reorient  #important for SAPT in psi4, default
symmetry c1  #important for SAPT in psi4, default
}

set PROPERTIES_ORIGIN ["COM"]
properties('MP2/aug-cc-pvtz', properties = ['dipole'])
--------------------------------------------------------------------------

    Molecular point group: c1
  Charge       = 0
  Multiplicity = 1
  Basis Set: AUG-CC-PVTZ
    Blend: AUG-CC-PVTZ
  Basis Set: (AUG-CC-PVTZ AUX)
    Blend: AUG-CC-PVTZ-JKFIT

    Orbital Energies [Eh]
    ---------------------

    Doubly Occupied:

       1A    -20.621072     2A    -20.574016     3A    -20.555484
       4A    -11.388696     5A    -11.312534     6A    -11.239339
       7A     -1.468508     8A     -1.380825     9A     -1.363407
      10A     -1.051311    11A     -0.918083    12A     -0.802916
      13A     -0.728212    14A     -0.706492    15A     -0.661332
      16A     -0.654817    17A     -0.618247    18A     -0.602958
      19A     -0.561630    20A     -0.557397    21A     -0.523324
      22A     -0.489253    23A     -0.462389    24A     -0.448993

  @DF-RHF Final Energy:  -341.83019787584811

   => Energetics <=

    Nuclear Repulsion Energy =            248.5738806926321161
    One-Electron Energy =                -961.4256873461293935
    Two-Electron Energy =                 371.0216087776491918
    Total Energy =                       -341.8301978758481141
  Basis Set: (AUG-CC-PVTZ AUX)
    Blend: AUG-CC-PVTZ-RI
    Molecular point group: c1

    Geometry (in Angstrom), charge = 0, multiplicity = 1:

       Center              X                  Y                   Z               Mass
    ------------   -----------------  -----------------  -----------------  -----------------
         O            1.403931380321    -1.085725612276    -0.242241303510    15.994914619570
         O           -1.502115619679     0.938414387724    -0.391090303510    15.994914619570
         O           -1.163252619679    -1.100793612276     0.550821696490    15.994914619570
         C            0.716643380321     0.145871387724    -0.392392303510    12.000000000000
         C            1.293342380321     1.240640387724     0.502640696490    12.000000000000
         C           -0.746476519679    -0.125645212276    -0.014028903510    12.000000000000
         H            0.722636380321     0.483673387724    -1.439445303510     1.007825032230
         H            1.262163380321     0.909214387724     1.543592696490     1.007825032230
         H            0.730316380321     2.170625387724     0.398793696490     1.007825032230
         H            2.335651380321     1.435019387724     0.230402696490     1.007825032230
         H            2.333132380321    -0.918469612276    -0.475664303510     1.007825032230
         H           -2.408369619679     0.715344387724    -0.093856303510     1.007825032230

  Basis Set: AUG-CC-PVTZ
    Blend: AUG-CC-PVTZ
  Basis Set: (AUG-CC-PVTZ AUX)
    Blend: AUG-CC-PVTZ-JKFIT
	 Reference Energy          =    -341.8301978758481141 [Eh]
	 Singles Energy            =      -0.0000000000000000 [Eh]
	 Same-Spin Energy          =      -0.3264496130208285 [Eh]
	 Opposite-Spin Energy      =      -1.0117513965879332 [Eh]
	 Correlation Energy        =      -1.3382010096087618 [Eh]
	 Total Energy              =    -343.1683988854568952 [Eh]

	 ================> DF-SCS-MP2 Energies <==================
	-----------------------------------------------------------
	 SCS Same-Spin Scale       =       0.3333333333333333 [-]
	 SCS Opposite-Spin Scale   =       1.2000000000000000 [-]
	 SCS Same-Spin Energy      =      -0.1088165376736095 [Eh]
	 SCS Opposite-Spin Energy  =      -1.2141016759055199 [Eh]
	 SCS Correlation Energy    =      -1.3229182135791293 [Eh]
	 SCS Total Energy          =    -343.1531160894272716 [Eh]
	-----------------------------------------------------------

  Dipole Moment: [D]
     X:     1.1023      Y:     2.7723      Z:    -0.9402     Total:     3.1280

*** Psi4 exiting successfully. Buy a developer a beer!
