                               Psi4 1.3.2 release

  ==> Input File <==

--------------------------------------------------------------------------
#psi4
#
memory 32 gb

molecule  {
0 1
  O       -1.3597980    -1.1437690     0.1887320
  O        1.4419330     1.0393260     0.2985870
  O        1.2366830    -1.0978030    -0.4508720
  C       -0.7155219     0.0962457     0.3763174
  C       -1.3431230     1.2084980    -0.4569850
  C        0.7367530    -0.0975110     0.0221890
  H       -0.7373290     0.3987270     1.4472430
  H       -1.2887398     0.9220565    -1.5087835
  H       -0.8256550     2.1573260    -0.3051780
  H       -2.3949050     1.3388590    -0.1830910
  H       -2.2729280    -1.0415480     0.5084360
  H        2.3630120     0.8399890     0.0298380
units angstrom
no_reorient  #important for SAPT in psi4, default
symmetry c1  #important for SAPT in psi4, default
}

set PROPERTIES_ORIGIN ["COM"]
properties('MP2/aug-cc-pvtz', properties = ['dipole'])
--------------------------------------------------------------------------

    Molecular point group: c1
  Charge       = 0
  Multiplicity = 1
  Basis Set: AUG-CC-PVTZ
    Blend: AUG-CC-PVTZ
  Basis Set: (AUG-CC-PVTZ AUX)
    Blend: AUG-CC-PVTZ-JKFIT

    Orbital Energies [Eh]
    ---------------------

    Doubly Occupied:

       1A    -20.619829     2A    -20.575639     3A    -20.554623
       4A    -11.390304     5A    -11.313759     6A    -11.239014
       7A     -1.463425     8A     -1.383930     9A     -1.357104
      10A     -1.055926    11A     -0.922218    12A     -0.802666
      13A     -0.730161    14A     -0.704765    15A     -0.664347
      16A     -0.651977    17A     -0.614144    18A     -0.603453
      19A     -0.564431    20A     -0.558914    21A     -0.521780
      22A     -0.485400    23A     -0.461543    24A     -0.451398

  @DF-RHF Final Energy:  -341.82886579683100

   => Energetics <=

    Nuclear Repulsion Energy =            248.8650876148645921
    One-Electron Energy =                -962.0064082316565646
    Two-Electron Energy =                 371.3124548199609762
    Total Energy =                       -341.8288657968309963
  Basis Set: (AUG-CC-PVTZ AUX)
    Blend: AUG-CC-PVTZ-RI
    Molecular point group: c1

    Geometry (in Angstrom), charge = 0, multiplicity = 1:

       Center              X                  Y                   Z               Mass
    ------------   -----------------  -----------------  -----------------  -----------------
         O           -1.360184348162    -1.142752641321     0.190180404519    15.994914619570
         O            1.441546651838     1.040342358679     0.300035404519    15.994914619570
         O            1.236296651838    -1.096786641321    -0.449423595481    15.994914619570
         C           -0.715908248162     0.097262058679     0.377765804519    12.000000000000
         C           -1.343509348162     1.209514358679    -0.455536595481    12.000000000000
         C            0.736366651838    -0.096494641321     0.023637404519    12.000000000000
         H           -0.737715348162     0.399743358679     1.448691404519     1.007825032230
         H           -1.289126148162     0.923072858679    -1.507335095481     1.007825032230
         H           -0.826041348162     2.158342358679    -0.303729595481     1.007825032230
         H           -2.395291348162     1.339875358679    -0.181642595481     1.007825032230
         H           -2.273314348162    -1.040531641321     0.509884404519     1.007825032230
         H            2.362625651838     0.841005358679     0.031286404519     1.007825032230

  Basis Set: AUG-CC-PVTZ
    Blend: AUG-CC-PVTZ
  Basis Set: (AUG-CC-PVTZ AUX)
    Blend: AUG-CC-PVTZ-JKFIT
	 Reference Energy          =    -341.8288657968309963 [Eh]
	 Singles Energy            =      -0.0000000000000000 [Eh]
	 Same-Spin Energy          =      -0.3268796887506201 [Eh]
	 Opposite-Spin Energy      =      -1.0124303917790911 [Eh]
	 Correlation Energy        =      -1.3393100805297111 [Eh]
	 Total Energy              =    -343.1681758773606816 [Eh]

	 ================> DF-SCS-MP2 Energies <==================
	-----------------------------------------------------------
	 SCS Same-Spin Scale       =       0.3333333333333333 [-]
	 SCS Opposite-Spin Scale   =       1.2000000000000000 [-]
	 SCS Same-Spin Energy      =      -0.1089598962502067 [Eh]
	 SCS Opposite-Spin Energy  =      -1.2149164701349093 [Eh]
	 SCS Correlation Energy    =      -1.3238763663851161 [Eh]
	 SCS Total Energy          =    -343.1527421632160895 [Eh]
	-----------------------------------------------------------

  Dipole Moment: [D]
     X:    -1.3296      Y:     2.6995      Z:     1.0497     Total:     3.1870

*** Psi4 exiting successfully. Buy a developer a beer!
