                               Psi4 1.3.2 release

  ==> Input File <==

--------------------------------------------------------------------------
#psi4
#
memory 32 gb

molecule  {
0 1
  O       -1.3597980    -1.1437690     0.1887320
  O        1.4419330     1.0393260     0.2985870
  O        1.2366830    -1.0978030    -0.4508720
  C       -0.7180600     0.1031850     0.3873850
  C       -1.3431230     1.2084980    -0.4569850
  C        0.7268349    -0.0922803     0.0262361
  H       -0.7373290     0.3987270     1.4472430
  H       -1.2930290     0.9302150    -1.5111840
  H       -0.8256550     2.1573260    -0.3051780
  H       -2.3949050     1.3388590    -0.1830910
  H       -2.2729280    -1.0415480     0.5084360
  H        2.3653812     0.8478370     0.0322730
units angstrom
no_reorient  #important for SAPT in psi4, default
symmetry c1  #important for SAPT in psi4, default
}

set PROPERTIES_ORIGIN ["COM"]
properties('MP2/aug-cc-pvtz', properties = ['dipole'])
--------------------------------------------------------------------------

    Molecular point group: c1
  Charge       = 0
  Multiplicity = 1
  Basis Set: AUG-CC-PVTZ
    Blend: AUG-CC-PVTZ
  Basis Set: (AUG-CC-PVTZ AUX)
    Blend: AUG-CC-PVTZ-JKFIT

    Orbital Energies [Eh]
    ---------------------

    Doubly Occupied:

       1A    -20.619704     2A    -20.575877     3A    -20.553415
       4A    -11.391562     5A    -11.314130     6A    -11.239899
       7A     -1.460920     8A     -1.382146     9A     -1.351394
      10A     -1.058378    11A     -0.924088    12A     -0.804182
      13A     -0.732133    14A     -0.702794    15A     -0.662238
      16A     -0.651110    17A     -0.612982    18A     -0.601890
      19A     -0.565699    20A     -0.557928    21A     -0.522011
      22A     -0.482029    23A     -0.463933    24A     -0.451691

  @DF-RHF Final Energy:  -341.82772777146062

   => Energetics <=

    Nuclear Repulsion Energy =            248.6925830011419976
    One-Electron Energy =                -961.6763596245350527
    Two-Electron Energy =                 371.1560488519324394
    Total Energy =                       -341.8277277714606157
  Basis Set: (AUG-CC-PVTZ AUX)
    Blend: AUG-CC-PVTZ-RI
    Molecular point group: c1

    Geometry (in Angstrom), charge = 0, multiplicity = 1:

       Center              X                  Y                   Z               Mass
    ------------   -----------------  -----------------  -----------------  -----------------
         O           -1.358502613461    -1.144553915340     0.188165434437    15.994914619570
         O            1.443228386539     1.038541084660     0.298020434437    15.994914619570
         O            1.237978386539    -1.098587915340    -0.451438565563    15.994914619570
         C           -0.716764613461     0.102400084660     0.386818434437    12.000000000000
         C           -1.341827613461     1.207713084660    -0.457551565563    12.000000000000
         C            0.728130286539    -0.093065215340     0.025669534437    12.000000000000
         H           -0.736033613461     0.397942084660     1.446676434437     1.007825032230
         H           -1.291733613461     0.929430084660    -1.511750565563     1.007825032230
         H           -0.824359613461     2.156541084660    -0.305744565563     1.007825032230
         H           -2.393609613461     1.338074084660    -0.183657565563     1.007825032230
         H           -2.271632613461    -1.042332915340     0.507869434437     1.007825032230
         H            2.366676586539     0.847052084660     0.031706434437     1.007825032230

  Basis Set: AUG-CC-PVTZ
    Blend: AUG-CC-PVTZ
  Basis Set: (AUG-CC-PVTZ AUX)
    Blend: AUG-CC-PVTZ-JKFIT
	 Reference Energy          =    -341.8277277714606157 [Eh]
	 Singles Energy            =      -0.0000000000000000 [Eh]
	 Same-Spin Energy          =      -0.3271077102221647 [Eh]
	 Opposite-Spin Energy      =      -1.0130133615253571 [Eh]
	 Correlation Energy        =      -1.3401210717475218 [Eh]
	 Total Energy              =    -343.1678488432081622 [Eh]

	 ================> DF-SCS-MP2 Energies <==================
	-----------------------------------------------------------
	 SCS Same-Spin Scale       =       0.3333333333333333 [-]
	 SCS Opposite-Spin Scale   =       1.2000000000000000 [-]
	 SCS Same-Spin Energy      =      -0.1090359034073882 [Eh]
	 SCS Opposite-Spin Energy  =      -1.2156160338304285 [Eh]
	 SCS Correlation Energy    =      -1.3246519372378167 [Eh]
	 SCS Total Energy          =    -343.1523797086984473 [Eh]
	-----------------------------------------------------------

  Dipole Moment: [D]
     X:    -1.3612      Y:     2.7633      Z:     1.0823     Total:     3.2650

*** Psi4 exiting successfully. Buy a developer a beer!
