                               Psi4 1.3.2 release

  ==> Input File <==

--------------------------------------------------------------------------
#psi4
#
memory 32 gb

molecule  {
0 1
  O       -1.3811625    -1.1336893     0.1960163
  O        1.4419330     1.0393260     0.2985870
  O        1.2366830    -1.0978030    -0.4508720
  C       -0.7180600     0.1031850     0.3873850
  C       -1.3431230     1.2084980    -0.4569850
  C        0.7414671    -0.0721820     0.0280038
  H       -0.7373290     0.3987270     1.4472430
  H       -1.2930290     0.9302150    -1.5111840
  H       -0.8256550     2.1573260    -0.3051780
  H       -2.3949050     1.3388590    -0.1830910
  H       -2.2729280    -1.0415480     0.5084360
  H        2.3630120     0.8399890     0.0298380
units angstrom
no_reorient  #important for SAPT in psi4, default
symmetry c1  #important for SAPT in psi4, default
}

set PROPERTIES_ORIGIN ["COM"]
properties('MP2/aug-cc-pvtz', properties = ['dipole'])
--------------------------------------------------------------------------

    Molecular point group: c1
  Charge       = 0
  Multiplicity = 1
  Basis Set: AUG-CC-PVTZ
    Blend: AUG-CC-PVTZ
  Basis Set: (AUG-CC-PVTZ AUX)
    Blend: AUG-CC-PVTZ-JKFIT

    Orbital Energies [Eh]
    ---------------------

    Doubly Occupied:

       1A    -20.627466     2A    -20.572101     3A    -20.550393
       4A    -11.392778     5A    -11.314111     6A    -11.238958
       7A     -1.470944     8A     -1.384985     9A     -1.348245
      10A     -1.058082    11A     -0.923459    12A     -0.812943
      13A     -0.730682    14A     -0.707825    15A     -0.667638
      16A     -0.653985    17A     -0.615667    18A     -0.603265
      19A     -0.564731    20A     -0.556740    21A     -0.519576
      22A     -0.479312    23A     -0.462424    24A     -0.449406

  @DF-RHF Final Energy:  -341.82797601128357

   => Energetics <=

    Nuclear Repulsion Energy =            248.6238141071734731
    One-Electron Energy =                -961.4921437038186696
    Two-Electron Energy =                 371.0403535853616859
    Total Energy =                       -341.8279760112835675
  Basis Set: (AUG-CC-PVTZ AUX)
    Blend: AUG-CC-PVTZ-RI
    Molecular point group: c1

    Geometry (in Angstrom), charge = 0, multiplicity = 1:

       Center              X                  Y                   Z               Mass
    ------------   -----------------  -----------------  -----------------  -----------------
         O           -1.377995276057    -1.138855940400     0.193947262401    15.994914619570
         O            1.445100223943     1.034159359600     0.296517962401    15.994914619570
         O            1.239850223943    -1.102969640400    -0.452941037599    15.994914619570
         C           -0.714892776057     0.098018359600     0.385315962401    12.000000000000
         C           -1.339955776057     1.203331359600    -0.459054037599    12.000000000000
         C            0.744634323943    -0.077348640400     0.025934762401    12.000000000000
         H           -0.734161776057     0.393560359600     1.445173962401     1.007825032230
         H           -1.289861776057     0.925048359600    -1.513253037599     1.007825032230
         H           -0.822487776057     2.152159359600    -0.307247037599     1.007825032230
         H           -2.391737776057     1.333692359600    -0.185160037599     1.007825032230
         H           -2.269760776057    -1.046714640400     0.506366962401     1.007825032230
         H            2.366179223943     0.834822359600     0.027768962401     1.007825032230

  Basis Set: AUG-CC-PVTZ
    Blend: AUG-CC-PVTZ
  Basis Set: (AUG-CC-PVTZ AUX)
    Blend: AUG-CC-PVTZ-JKFIT
	 Reference Energy          =    -341.8279760112835675 [Eh]
	 Singles Energy            =      -0.0000000000000000 [Eh]
	 Same-Spin Energy          =      -0.3268219086526367 [Eh]
	 Opposite-Spin Energy      =      -1.0120967326578225 [Eh]
	 Correlation Energy        =      -1.3389186413104592 [Eh]
	 Total Energy              =    -343.1668946525940100 [Eh]

	 ================> DF-SCS-MP2 Energies <==================
	-----------------------------------------------------------
	 SCS Same-Spin Scale       =       0.3333333333333333 [-]
	 SCS Opposite-Spin Scale   =       1.2000000000000000 [-]
	 SCS Same-Spin Energy      =      -0.1089406362175455 [Eh]
	 SCS Opposite-Spin Energy  =      -1.2145160791893870 [Eh]
	 SCS Correlation Energy    =      -1.3234567154069325 [Eh]
	 SCS Total Energy          =    -343.1514327266904729 [Eh]
	-----------------------------------------------------------

  Dipole Moment: [D]
     X:    -1.2239      Y:     2.9055      Z:     1.1174     Total:     3.3449

*** Psi4 exiting successfully. Buy a developer a beer!
