                               Psi4 1.4a3.dev225

  ==> Input File <==

--------------------------------------------------------------------------
#psi4
#
memory 32 gb

molecule  {
0 1
  O        1.3501930    -1.1356630    -0.2433140
  O       -1.5558540     0.8884770    -0.3921630
  O       -1.2169910    -1.1507310     0.5497490
  C        0.6629050     0.0959340    -0.3934650
  C        1.2471566     1.2050404     0.5132896
  C       -0.7811570    -0.1720460    -0.0200300
  H        0.6688980     0.4337360    -1.4405180
  H        1.2084250     0.8592770     1.5425200
  H        0.6765780     2.1206880     0.3977210
  H        2.2819130     1.3850820     0.2293300
  H        2.2793940    -0.9684070    -0.4767370
  H       -2.4621080     0.6654070    -0.0949290
units angstrom
no_reorient  #important for SAPT in psi4, default
symmetry c1  #important for SAPT in psi4, default
}

set PROPERTIES_ORIGIN ["COM"]
properties('MP2/aug-cc-pvtz', properties = ['dipole'])
--------------------------------------------------------------------------

    Molecular point group: c1
  Charge       = 0
  Multiplicity = 1
  Basis Set: AUG-CC-PVTZ
    Blend: AUG-CC-PVTZ
  Basis Set: (AUG-CC-PVTZ AUX)
    Blend: AUG-CC-PVTZ-JKFIT

    Orbital Energies [Eh]
    ---------------------

    Doubly Occupied:

       1A    -20.619334     2A    -20.575530     3A    -20.554385
       4A    -11.390097     5A    -11.314430     6A    -11.240420
       7A     -1.463265     8A     -1.380807     9A     -1.356825
      10A     -1.052618    11A     -0.923274    12A     -0.802403
      13A     -0.729442    14A     -0.703055    15A     -0.659618
      16A     -0.652961    17A     -0.617432    18A     -0.601920
      19A     -0.564383    20A     -0.559763    21A     -0.524867
      22A     -0.485188    23A     -0.461386    24A     -0.451111

  @DF-RHF Final Energy:  -341.82912609863513

   => Energetics <=

    Nuclear Repulsion Energy =            248.2653416626198748
    One-Electron Energy =                -960.8199026924145301
    Two-Electron Energy =                 370.7254349311594979
    Total Energy =                       -341.8291260986351290
  Basis Set: (AUG-CC-PVTZ AUX)
    Blend: AUG-CC-PVTZ-RI
    Molecular point group: c1

    Geometry (in Angstrom), charge = 0, multiplicity = 1:

       Center              X                  Y                   Z               Mass
    ------------   -----------------  -----------------  -----------------  -----------------
         O            1.400384562688    -1.088107973312    -0.243146744654    15.994914619570
         O           -1.505662437312     0.936032026688    -0.391995744654    15.994914619570
         O           -1.166799437312    -1.103175973312     0.549916255346    15.994914619570
         C            0.713096562688     0.143489026688    -0.393297744654    12.000000000000
         C            1.297348162688     1.252595426688     0.513456855346    12.000000000000
         C           -0.730965437312    -0.124490973312    -0.019862744654    12.000000000000
         H            0.719089562688     0.481291026688    -1.440350744654     1.007825032230
         H            1.258616562688     0.906832026688     1.542687255346     1.007825032230
         H            0.726769562688     2.168243026688     0.397888255346     1.007825032230
         H            2.332104562688     1.432637026688     0.229497255346     1.007825032230
         H            2.329585562688    -0.920851973312    -0.476569744654     1.007825032230
         H           -2.411916437312     0.712962026688    -0.094761744654     1.007825032230

  Basis Set: AUG-CC-PVTZ
    Blend: AUG-CC-PVTZ
  Basis Set: (AUG-CC-PVTZ AUX)
    Blend: AUG-CC-PVTZ-JKFIT
	 Reference Energy          =    -341.8291260986351290 [Eh]
	 Singles Energy            =      -0.0000000000000000 [Eh]
	 Same-Spin Energy          =      -0.3266845472724196 [Eh]
	 Opposite-Spin Energy      =      -1.0123976264539702 [Eh]
	 Correlation Energy        =      -1.3390821737263898 [Eh]
	 Total Energy              =    -343.1682082723615395 [Eh]

	 ================> DF-SCS-MP2 Energies <==================
	-----------------------------------------------------------
	 SCS Same-Spin Scale       =       0.3333333333333333 [-]
	 SCS Opposite-Spin Scale   =       1.2000000000000000 [-]
	 SCS Same-Spin Energy      =      -0.1088948490908065 [Eh]
	 SCS Opposite-Spin Energy  =      -1.2148771517447643 [Eh]
	 SCS Correlation Energy    =      -1.3237720008355709 [Eh]
	 SCS Total Energy          =    -343.1528980994706899 [Eh]
	-----------------------------------------------------------

  Dipole Moment: [D]
     X:     1.2213      Y:     2.7856      Z:    -0.9627     Total:     3.1903

*** Psi4 exiting successfully. Buy a developer a beer!
