                               Psi4 1.4a3.dev225

  ==> Input File <==

--------------------------------------------------------------------------
#psi4
#
memory 32 gb

molecule  {
0 1
  O        1.3501930    -1.1356630    -0.2433140
  O       -1.5558540     0.8884770    -0.3921630
  O       -1.2169910    -1.1507310     0.5497490
  C        0.6532137     0.1133005    -0.3955823
  C        1.2396040     1.1907030     0.5015680
  C       -0.7811570    -0.1720460    -0.0200300
  H        0.6688980     0.4337360    -1.4405180
  H        1.2084250     0.8592770     1.5425200
  H        0.6765780     2.1206880     0.3977210
  H        2.2819130     1.3850820     0.2293300
  H        2.2793940    -0.9684070    -0.4767370
  H       -2.4621080     0.6654070    -0.0949290
units angstrom
no_reorient  #important for SAPT in psi4, default
symmetry c1  #important for SAPT in psi4, default
}

set PROPERTIES_ORIGIN ["COM"]
properties('MP2/aug-cc-pvtz', properties = ['dipole'])
--------------------------------------------------------------------------

    Molecular point group: c1
  Charge       = 0
  Multiplicity = 1
  Basis Set: AUG-CC-PVTZ
    Blend: AUG-CC-PVTZ
  Basis Set: (AUG-CC-PVTZ AUX)
    Blend: AUG-CC-PVTZ-JKFIT

    Orbital Energies [Eh]
    ---------------------

    Doubly Occupied:

       1A    -20.619621     2A    -20.573195     3A    -20.555514
       4A    -11.391007     5A    -11.313608     6A    -11.241398
       7A     -1.464026     8A     -1.374580     9A     -1.356081
      10A     -1.058655    11A     -0.923741    12A     -0.801834
      13A     -0.729887    14A     -0.703817    15A     -0.656386
      16A     -0.654430    17A     -0.616432    18A     -0.601538
      19A     -0.562900    20A     -0.557900    21A     -0.522053
      22A     -0.485616    23A     -0.465750    24A     -0.452865

  @DF-RHF Final Energy:  -341.82829881905292

   => Energetics <=

    Nuclear Repulsion Energy =            248.5217940796438540
    One-Electron Energy =                -961.3345143752043214
    Two-Electron Energy =                 370.9844214765075208
    Total Energy =                       -341.8282988190529181
  Basis Set: (AUG-CC-PVTZ AUX)
    Blend: AUG-CC-PVTZ-RI
    Molecular point group: c1

    Geometry (in Angstrom), charge = 0, multiplicity = 1:

       Center              X                  Y                   Z               Mass
    ------------   -----------------  -----------------  -----------------  -----------------
         O            1.402682939967    -1.088511711134    -0.241302207552    15.994914619570
         O           -1.503364060033     0.935628288866    -0.390151207552    15.994914619570
         O           -1.164501060033    -1.103579711134     0.551760792448    15.994914619570
         C            0.705703639967     0.160451788866    -0.393570507552    12.000000000000
         C            1.292093939967     1.237854288866     0.503579792448    12.000000000000
         C           -0.728667060033    -0.124894711134    -0.018018207552    12.000000000000
         H            0.721387939967     0.480887288866    -1.438506207552     1.007825032230
         H            1.260914939967     0.906428288866     1.544531792448     1.007825032230
         H            0.729067939967     2.167839288866     0.399732792448     1.007825032230
         H            2.334402939967     1.432233288866     0.231341792448     1.007825032230
         H            2.331883939967    -0.921255711134    -0.474725207552     1.007825032230
         H           -2.409618060033     0.712558288866    -0.092917207552     1.007825032230

  Basis Set: AUG-CC-PVTZ
    Blend: AUG-CC-PVTZ
  Basis Set: (AUG-CC-PVTZ AUX)
    Blend: AUG-CC-PVTZ-JKFIT
	 Reference Energy          =    -341.8282988190529181 [Eh]
	 Singles Energy            =      -0.0000000000000000 [Eh]
	 Same-Spin Energy          =      -0.3269203473985021 [Eh]
	 Opposite-Spin Energy      =      -1.0129637195008496 [Eh]
	 Correlation Energy        =      -1.3398840668993517 [Eh]
	 Total Energy              =    -343.1681828859522625 [Eh]

	 ================> DF-SCS-MP2 Energies <==================
	-----------------------------------------------------------
	 SCS Same-Spin Scale       =       0.3333333333333333 [-]
	 SCS Opposite-Spin Scale   =       1.2000000000000000 [-]
	 SCS Same-Spin Energy      =      -0.1089734491328340 [Eh]
	 SCS Opposite-Spin Energy  =      -1.2155564634010194 [Eh]
	 SCS Correlation Energy    =      -1.3245299125338534 [Eh]
	 SCS Total Energy          =    -343.1528287315867942 [Eh]
	-----------------------------------------------------------

  Dipole Moment: [D]
     X:     1.1717      Y:     2.8530      Z:    -0.9530     Total:     3.2281

*** Psi4 exiting successfully. Buy a developer a beer!
