                               Psi4 1.3.2 release

  ==> Input File <==

--------------------------------------------------------------------------
#psi4
#
memory 32 gb

molecule  {
0 1
  O       -1.3597980    -1.1437690     0.1887320
  O        1.4617631     1.0286913     0.2907070
  O        1.2366830    -1.0978030    -0.4508720
  C       -0.7232297     0.0785547     0.3793715
  C       -1.3431230     1.2084980    -0.4569850
  C        0.7367530    -0.0975110     0.0221890
  H       -0.7373290     0.3987270     1.4472430
  H       -1.2930290     0.9302150    -1.5111840
  H       -0.8256550     2.1573260    -0.3051780
  H       -2.3949050     1.3388590    -0.1830910
  H       -2.2729280    -1.0415480     0.5084360
  H        2.3630120     0.8399890     0.0298380
units angstrom
no_reorient  #important for SAPT in psi4, default
symmetry c1  #important for SAPT in psi4, default
}

set PROPERTIES_ORIGIN ["COM"]
properties('MP2/aug-cc-pvtz', properties = ['dipole'])
--------------------------------------------------------------------------

    Molecular point group: c1
  Charge       = 0
  Multiplicity = 1
  Basis Set: AUG-CC-PVTZ
    Blend: AUG-CC-PVTZ
  Basis Set: (AUG-CC-PVTZ AUX)
    Blend: AUG-CC-PVTZ-JKFIT

    Orbital Energies [Eh]
    ---------------------

    Doubly Occupied:

       1A    -20.616541     2A    -20.578433     3A    -20.552641
       4A    -11.389649     5A    -11.315250     6A    -11.239141
       7A     -1.465094     8A     -1.392142     9A     -1.357219
      10A     -1.053328    11A     -0.922103    12A     -0.809344
      13A     -0.732007    14A     -0.703787    15A     -0.669043
      16A     -0.652721    17A     -0.615061    18A     -0.604372
      19A     -0.565602    20A     -0.558312    21A     -0.523151
      22A     -0.484342    23A     -0.459814    24A     -0.449768

  @DF-RHF Final Energy:  -341.83027861768181

   => Energetics <=

    Nuclear Repulsion Energy =            248.8688177313621281
    One-Electron Energy =                -961.9804644286157327
    Two-Electron Energy =                 371.2813680795717914
    Total Energy =                       -341.8302786176818131
  Basis Set: (AUG-CC-PVTZ AUX)
    Blend: AUG-CC-PVTZ-RI
    Molecular point group: c1

    Geometry (in Angstrom), charge = 0, multiplicity = 1:

       Center              X                  Y                   Z               Mass
    ------------   -----------------  -----------------  -----------------  -----------------
         O           -1.362631979472    -1.138596651790     0.191200156643    15.994914619570
         O            1.458929120528     1.033863648210     0.293175156643    15.994914619570
         O            1.233849020528    -1.092630651790    -0.448403843357    15.994914619570
         C           -0.726063679472     0.083727048210     0.381839656643    12.000000000000
         C           -1.345956979472     1.213670348210    -0.454516843357    12.000000000000
         C            0.733919020528    -0.092338651790     0.024657156643    12.000000000000
         H           -0.740162979472     0.403899348210     1.449711156643     1.007825032230
         H           -1.295862979472     0.935387348210    -1.508715843357     1.007825032230
         H           -0.828488979472     2.162498348210    -0.302709843357     1.007825032230
         H           -2.397738979472     1.344031348210    -0.180622843357     1.007825032230
         H           -2.275761979472    -1.036375651790     0.510904156643     1.007825032230
         H            2.360178020528     0.845161348210     0.032306156643     1.007825032230

  Basis Set: AUG-CC-PVTZ
    Blend: AUG-CC-PVTZ
  Basis Set: (AUG-CC-PVTZ AUX)
    Blend: AUG-CC-PVTZ-JKFIT
	 Reference Energy          =    -341.8302786176818131 [Eh]
	 Singles Energy            =      -0.0000000000000000 [Eh]
	 Same-Spin Energy          =      -0.3263007964820918 [Eh]
	 Opposite-Spin Energy      =      -1.0110345421164459 [Eh]
	 Correlation Energy        =      -1.3373353385985378 [Eh]
	 Total Energy              =    -343.1676139562803769 [Eh]

	 ================> DF-SCS-MP2 Energies <==================
	-----------------------------------------------------------
	 SCS Same-Spin Scale       =       0.3333333333333333 [-]
	 SCS Opposite-Spin Scale   =       1.2000000000000000 [-]
	 SCS Same-Spin Energy      =      -0.1087669321606973 [Eh]
	 SCS Opposite-Spin Energy  =      -1.2132414505397351 [Eh]
	 SCS Correlation Energy    =      -1.3220083827004323 [Eh]
	 SCS Total Energy          =    -343.1522870003822732 [Eh]
	-----------------------------------------------------------

  Dipole Moment: [D]
     X:    -1.4193      Y:     2.6423      Z:     1.0666     Total:     3.1833

*** Psi4 exiting successfully. Buy a developer a beer!
