                               Psi4 1.4a3.dev225

  ==> Input File <==

--------------------------------------------------------------------------
#psi4
#
memory 32 gb

molecule  {
0 1
  O        1.3501930    -1.1356630    -0.2433140
  O       -1.5558540     0.8884770    -0.3921630
  O       -1.2169910    -1.1507310     0.5497490
  C        0.6629050     0.0959340    -0.3934650
  C        1.2396040     1.1907030     0.5015680
  C       -0.7991157    -0.2123731     0.0034479
  H        0.6688980     0.4337360    -1.4405180
  H        1.2084250     0.8592770     1.5425200
  H        0.6765780     2.1206880     0.3977210
  H        2.2819130     1.3850820     0.2293300
  H        2.2793940    -0.9684070    -0.4767370
  H       -2.4621080     0.6654070    -0.0949290
units angstrom
no_reorient  #important for SAPT in psi4, default
symmetry c1  #important for SAPT in psi4, default
}

set PROPERTIES_ORIGIN ["COM"]
properties('MP2/aug-cc-pvtz', properties = ['dipole'])
--------------------------------------------------------------------------

    Molecular point group: c1
  Charge       = 0
  Multiplicity = 1
  Basis Set: AUG-CC-PVTZ
    Blend: AUG-CC-PVTZ
  Basis Set: (AUG-CC-PVTZ AUX)
    Blend: AUG-CC-PVTZ-JKFIT

    Orbital Energies [Eh]
    ---------------------

    Doubly Occupied:

       1A    -20.610497     2A    -20.573687     3A    -20.563185
       4A    -11.385447     5A    -11.311949     6A    -11.238364
       7A     -1.471457     8A     -1.380326     9A     -1.372554
      10A     -1.048064    11A     -0.913552    12A     -0.792126
      13A     -0.730092    14A     -0.706651    15A     -0.662166
      16A     -0.654207    17A     -0.616599    18A     -0.602756
      19A     -0.561405    20A     -0.560089    21A     -0.525662
      22A     -0.499650    23A     -0.462119    24A     -0.448997

  @DF-RHF Final Energy:  -341.82850326663402

   => Energetics <=

    Nuclear Repulsion Energy =            248.6845968739521879
    One-Electron Energy =                -961.6429970708010160
    Two-Electron Energy =                 371.1298969302148407
    Total Energy =                       -341.8285032666340157
  Basis Set: (AUG-CC-PVTZ AUX)
    Blend: AUG-CC-PVTZ-RI
    Molecular point group: c1

    Geometry (in Angstrom), charge = 0, multiplicity = 1:

       Center              X                  Y                   Z               Mass
    ------------   -----------------  -----------------  -----------------  -----------------
         O            1.403784871915    -1.080821939134    -0.244713699508    15.994914619570
         O           -1.502262128085     0.943318060866    -0.393562699508    15.994914619570
         O           -1.163399128085    -1.095889939134     0.548349300492    15.994914619570
         C            0.716496871915     0.150775060866    -0.394864699508    12.000000000000
         C            1.293195871915     1.245544060866     0.500168300492    12.000000000000
         C           -0.745523828085    -0.157532039134     0.002048200492    12.000000000000
         H            0.722489871915     0.488577060866    -1.441917699508     1.007825032230
         H            1.262016871915     0.914118060866     1.541120300492     1.007825032230
         H            0.730169871915     2.175529060866     0.396321300492     1.007825032230
         H            2.335504871915     1.439923060866     0.227930300492     1.007825032230
         H            2.332985871915    -0.913565939134    -0.478136699508     1.007825032230
         H           -2.408516128085     0.720248060866    -0.096328699508     1.007825032230

  Basis Set: AUG-CC-PVTZ
    Blend: AUG-CC-PVTZ
  Basis Set: (AUG-CC-PVTZ AUX)
    Blend: AUG-CC-PVTZ-JKFIT
	 Reference Energy          =    -341.8285032666340157 [Eh]
	 Singles Energy            =      -0.0000000000000000 [Eh]
	 Same-Spin Energy          =      -0.3258465977238827 [Eh]
	 Opposite-Spin Energy      =      -1.0108087762312490 [Eh]
	 Correlation Energy        =      -1.3366553739551317 [Eh]
	 Total Energy              =    -343.1651586405891408 [Eh]

	 ================> DF-SCS-MP2 Energies <==================
	-----------------------------------------------------------
	 SCS Same-Spin Scale       =       0.3333333333333333 [-]
	 SCS Opposite-Spin Scale   =       1.2000000000000000 [-]
	 SCS Same-Spin Energy      =      -0.1086155325746276 [Eh]
	 SCS Opposite-Spin Energy  =      -1.2129705314774988 [Eh]
	 SCS Correlation Energy    =      -1.3215860640521264 [Eh]
	 SCS Total Energy          =    -343.1500893306861144 [Eh]
	-----------------------------------------------------------

  Dipole Moment: [D]
     X:     1.1553      Y:     2.4703      Z:    -0.8044     Total:     2.8432

*** Psi4 exiting successfully. Buy a developer a beer!
