                               Psi4 1.3.2 release

  ==> Input File <==

--------------------------------------------------------------------------
#psi4
#
memory 32 gb

molecule  {
0 1
  O       -1.3597980    -1.1437690     0.1887320
  O        1.4419330     1.0393260     0.2985870
  O        1.2742019    -1.0780920    -0.4510026
  C       -0.7063431     0.1521625     0.4033251
  C       -1.3431230     1.2084980    -0.4569850
  C        0.7367530    -0.0975110     0.0221890
  H       -0.7373290     0.3987270     1.4472430
  H       -1.2930290     0.9302150    -1.5111840
  H       -0.8256550     2.1573260    -0.3051780
  H       -2.3949050     1.3388590    -0.1830910
  H       -2.2729280    -1.0415480     0.5084360
  H        2.3630120     0.8399890     0.0298380
units angstrom
no_reorient  #important for SAPT in psi4, default
symmetry c1  #important for SAPT in psi4, default
}

set PROPERTIES_ORIGIN ["COM"]
properties('MP2/aug-cc-pvtz', properties = ['dipole'])
--------------------------------------------------------------------------

    Molecular point group: c1
  Charge       = 0
  Multiplicity = 1
  Basis Set: AUG-CC-PVTZ
    Blend: AUG-CC-PVTZ
  Basis Set: (AUG-CC-PVTZ AUX)
    Blend: AUG-CC-PVTZ-JKFIT

    Orbital Energies [Eh]
    ---------------------

    Doubly Occupied:

       1A    -20.616542     2A    -20.571402     3A    -20.556529
       4A    -11.392377     5A    -11.315418     6A    -11.241014
       7A     -1.464236     8A     -1.366701     9A     -1.352254
      10A     -1.063922    11A     -0.924747    12A     -0.801171
      13A     -0.731303    14A     -0.705143    15A     -0.656719
      16A     -0.646519    17A     -0.612212    18A     -0.600569
      19A     -0.568584    20A     -0.556995    21A     -0.520000
      22A     -0.484532    23A     -0.470168    24A     -0.454477

  @DF-RHF Final Energy:  -341.82461750875706

   => Energetics <=

    Nuclear Repulsion Energy =            248.2526009192843617
    One-Electron Energy =                -960.8073707321419761
    Two-Electron Energy =                 370.7301523041004998
    Total Energy =                       -341.8246175087570577
  Basis Set: (AUG-CC-PVTZ AUX)
    Blend: AUG-CC-PVTZ-RI
    Molecular point group: c1

    Geometry (in Angstrom), charge = 0, multiplicity = 1:

       Center              X                  Y                   Z               Mass
    ------------   -----------------  -----------------  -----------------  -----------------
         O           -1.368025302910    -1.153798748062     0.186630719227    15.994914619570
         O            1.433705697090     1.029296251938     0.296485719227    15.994914619570
         O            1.265974597090    -1.088121748062    -0.453103880773    15.994914619570
         C           -0.714570402910     0.142132751938     0.401223819227    12.000000000000
         C           -1.351350302910     1.198468251938    -0.459086280773    12.000000000000
         C            0.728525697090    -0.107540748062     0.020087719227    12.000000000000
         H           -0.745556302910     0.388697251938     1.445141719227     1.007825032230
         H           -1.301256302910     0.920185251938    -1.513285280773     1.007825032230
         H           -0.833882302910     2.147296251938    -0.307279280773     1.007825032230
         H           -2.403132302910     1.328829251938    -0.185192280773     1.007825032230
         H           -2.281155302910    -1.051577748062     0.506334719227     1.007825032230
         H            2.354784697090     0.829959251938     0.027736719227     1.007825032230

  Basis Set: AUG-CC-PVTZ
    Blend: AUG-CC-PVTZ
  Basis Set: (AUG-CC-PVTZ AUX)
    Blend: AUG-CC-PVTZ-JKFIT
	 Reference Energy          =    -341.8246175087570577 [Eh]
	 Singles Energy            =      -0.0000000000000000 [Eh]
	 Same-Spin Energy          =      -0.3271283405453098 [Eh]
	 Opposite-Spin Energy      =      -1.0137165615364616 [Eh]
	 Correlation Energy        =      -1.3408449020817714 [Eh]
	 Total Energy              =    -343.1654624108388134 [Eh]

	 ================> DF-SCS-MP2 Energies <==================
	-----------------------------------------------------------
	 SCS Same-Spin Scale       =       0.3333333333333333 [-]
	 SCS Opposite-Spin Scale   =       1.2000000000000000 [-]
	 SCS Same-Spin Energy      =      -0.1090427801817699 [Eh]
	 SCS Opposite-Spin Energy  =      -1.2164598738437540 [Eh]
	 SCS Correlation Energy    =      -1.3255026540255239 [Eh]
	 SCS Total Energy          =    -343.1501201627825708 [Eh]
	-----------------------------------------------------------

  Dipole Moment: [D]
     X:    -1.3354      Y:     2.8301      Z:     1.0653     Total:     3.3057

*** Psi4 exiting successfully. Buy a developer a beer!
