                               Psi4 1.4a3.dev225

  ==> Input File <==

--------------------------------------------------------------------------
#psi4
#
memory 32 gb

molecule  {
0 1
  O        1.3501930    -1.1356630    -0.2433140
  O       -1.5558540     0.8884770    -0.3921630
  O       -1.2169910    -1.1507310     0.5497490
  C        0.6629050     0.0959340    -0.3934650
  C        1.2584856     1.2265465     0.5308720
  C       -0.7811570    -0.1720460    -0.0200300
  H        0.6688980     0.4337360    -1.4405180
  H        1.2084250     0.8592770     1.5425200
  H        0.6765780     2.1206880     0.3977210
  H        2.2819130     1.3850820     0.2293300
  H        2.2793940    -0.9684070    -0.4767370
  H       -2.4621080     0.6654070    -0.0949290
units angstrom
no_reorient  #important for SAPT in psi4, default
symmetry c1  #important for SAPT in psi4, default
}

set PROPERTIES_ORIGIN ["COM"]
properties('MP2/aug-cc-pvtz', properties = ['dipole'])
--------------------------------------------------------------------------

    Molecular point group: c1
  Charge       = 0
  Multiplicity = 1
  Basis Set: AUG-CC-PVTZ
    Blend: AUG-CC-PVTZ
  Basis Set: (AUG-CC-PVTZ AUX)
    Blend: AUG-CC-PVTZ-JKFIT

    Orbital Energies [Eh]
    ---------------------

    Doubly Occupied:

       1A    -20.619151     2A    -20.575728     3A    -20.554065
       4A    -11.389848     5A    -11.315304     6A    -11.239927
       7A     -1.462987     8A     -1.380407     9A     -1.356548
      10A     -1.048413    11A     -0.925001    12A     -0.802099
      13A     -0.728412    14A     -0.702596    15A     -0.659199
      16A     -0.650623    17A     -0.617807    18A     -0.601942
      19A     -0.567781    20A     -0.562066    21A     -0.525759
      22A     -0.485045    23A     -0.457776    24A     -0.450613

  @DF-RHF Final Energy:  -341.82760595871821

   => Energetics <=

    Nuclear Repulsion Energy =            247.7948767253048459
    One-Electron Energy =                -959.8867686297060118
    Two-Electron Energy =                 370.2642859456829001
    Total Energy =                       -341.8276059587182090
  Basis Set: (AUG-CC-PVTZ AUX)
    Blend: AUG-CC-PVTZ-RI
    Molecular point group: c1

    Geometry (in Angstrom), charge = 0, multiplicity = 1:

       Center              X                  Y                   Z               Mass
    ------------   -----------------  -----------------  -----------------  -----------------
         O            1.398874561111    -1.090974443867    -0.245490239378    15.994914619570
         O           -1.507172438889     0.933165556133    -0.394339239378    15.994914619570
         O           -1.168309438889    -1.106042443867     0.547572760622    15.994914619570
         C            0.711586561111     0.140622556133    -0.395641239378    12.000000000000
         C            1.307167161111     1.271235056133     0.528695760622    12.000000000000
         C           -0.732475438889    -0.127357443867    -0.022206239378    12.000000000000
         H            0.717579561111     0.478424556133    -1.442694239378     1.007825032230
         H            1.257106561111     0.903965556133     1.540343760622     1.007825032230
         H            0.725259561111     2.165376556133     0.395544760622     1.007825032230
         H            2.330594561111     1.429770556133     0.227153760622     1.007825032230
         H            2.328075561111    -0.923718443867    -0.478913239378     1.007825032230
         H           -2.413426438889     0.710095556133    -0.097105239378     1.007825032230

  Basis Set: AUG-CC-PVTZ
    Blend: AUG-CC-PVTZ
  Basis Set: (AUG-CC-PVTZ AUX)
    Blend: AUG-CC-PVTZ-JKFIT
	 Reference Energy          =    -341.8276059587182090 [Eh]
	 Singles Energy            =      -0.0000000000000000 [Eh]
	 Same-Spin Energy          =      -0.3265737375069968 [Eh]
	 Opposite-Spin Energy      =      -1.0123712972776897 [Eh]
	 Correlation Energy        =      -1.3389450347846865 [Eh]
	 Total Energy              =    -343.1665509935028808 [Eh]

	 ================> DF-SCS-MP2 Energies <==================
	-----------------------------------------------------------
	 SCS Same-Spin Scale       =       0.3333333333333333 [-]
	 SCS Opposite-Spin Scale   =       1.2000000000000000 [-]
	 SCS Same-Spin Energy      =      -0.1088579125023323 [Eh]
	 SCS Opposite-Spin Energy  =      -1.2148455567332277 [Eh]
	 SCS Correlation Energy    =      -1.3237034692355600 [Eh]
	 SCS Total Energy          =    -343.1513094279537768 [Eh]
	-----------------------------------------------------------

  Dipole Moment: [D]
     X:     1.2322      Y:     2.7721      Z:    -0.9706     Total:     3.1851

*** Psi4 exiting successfully. Buy a developer a beer!
