                               Psi4 1.3.2 release

  ==> Input File <==

--------------------------------------------------------------------------
#psi4
#
memory 32 gb

molecule  {
0 1
  O       -1.3597980    -1.1437690     0.1887320
  O        1.4419330     1.0393260     0.2985870
  O        1.2366830    -1.0978030    -0.4508720
  C       -0.7206457     0.1102085     0.3983883
  C       -1.3431230     1.2084980    -0.4569850
  C        0.7367530    -0.0975110     0.0221890
  H       -0.7373290     0.3987270     1.4472430
  H       -1.2973220     0.9383947    -1.5135042
  H       -0.8256550     2.1573260    -0.3051780
  H       -2.3949050     1.3388590    -0.1830910
  H       -2.2729280    -1.0415480     0.5084360
  H        2.3630120     0.8399890     0.0298380
units angstrom
no_reorient  #important for SAPT in psi4, default
symmetry c1  #important for SAPT in psi4, default
}

set PROPERTIES_ORIGIN ["COM"]
properties('MP2/aug-cc-pvtz', properties = ['dipole'])
--------------------------------------------------------------------------

    Molecular point group: c1
  Charge       = 0
  Multiplicity = 1
  Basis Set: AUG-CC-PVTZ
    Blend: AUG-CC-PVTZ
  Basis Set: (AUG-CC-PVTZ AUX)
    Blend: AUG-CC-PVTZ-JKFIT

    Orbital Energies [Eh]
    ---------------------

    Doubly Occupied:

       1A    -20.619559     2A    -20.574686     3A    -20.555008
       4A    -11.390688     5A    -11.313293     6A    -11.239085
       7A     -1.463049     8A     -1.379484     9A     -1.356497
      10A     -1.055569    11A     -0.920914    12A     -0.802810
      13A     -0.732134    14A     -0.704929    15A     -0.661073
      16A     -0.649533    17A     -0.613557    18A     -0.601666
      19A     -0.565765    20A     -0.557360    21A     -0.522403
      22A     -0.485210    23A     -0.465077    24A     -0.450980

  @DF-RHF Final Energy:  -341.82861875005767

   => Energetics <=

    Nuclear Repulsion Energy =            248.5482220095202024
    One-Electron Energy =                -961.3930222687741889
    Two-Electron Energy =                 371.0161815091963717
    Total Energy =                       -341.8286187500576716
  Basis Set: (AUG-CC-PVTZ AUX)
    Blend: AUG-CC-PVTZ-RI
    Molecular point group: c1

    Geometry (in Angstrom), charge = 0, multiplicity = 1:

       Center              X                  Y                   Z               Mass
    ------------   -----------------  -----------------  -----------------  -----------------
         O           -1.359405345204    -1.144796584278     0.187291497861    15.994914619570
         O            1.442325654796     1.038298415722     0.297146497861    15.994914619570
         O            1.237075654796    -1.098830584278    -0.452312502139    15.994914619570
         C           -0.720253045204     0.109180915722     0.396947797861    12.000000000000
         C           -1.342730345204     1.207470415722    -0.458425502139    12.000000000000
         C            0.737145654796    -0.098538584278     0.020748497861    12.000000000000
         H           -0.736936345204     0.397699415722     1.445802497861     1.007825032230
         H           -1.296929345204     0.937367115722    -1.514944702139     1.007825032230
         H           -0.825262345204     2.156298415722    -0.306618502139     1.007825032230
         H           -2.394512345204     1.337831415722    -0.184531502139     1.007825032230
         H           -2.272535345204    -1.042575584278     0.506995497861     1.007825032230
         H            2.363404654796     0.838961415722     0.028397497861     1.007825032230

  Basis Set: AUG-CC-PVTZ
    Blend: AUG-CC-PVTZ
  Basis Set: (AUG-CC-PVTZ AUX)
    Blend: AUG-CC-PVTZ-JKFIT
	 Reference Energy          =    -341.8286187500576716 [Eh]
	 Singles Energy            =      -0.0000000000000000 [Eh]
	 Same-Spin Energy          =      -0.3268733041584705 [Eh]
	 Opposite-Spin Energy      =      -1.0126841849578017 [Eh]
	 Correlation Energy        =      -1.3395574891162720 [Eh]
	 Total Energy              =    -343.1681762391739312 [Eh]

	 ================> DF-SCS-MP2 Energies <==================
	-----------------------------------------------------------
	 SCS Same-Spin Scale       =       0.3333333333333333 [-]
	 SCS Opposite-Spin Scale   =       1.2000000000000000 [-]
	 SCS Same-Spin Energy      =      -0.1089577680528235 [Eh]
	 SCS Opposite-Spin Energy  =      -1.2152210219493620 [Eh]
	 SCS Correlation Energy    =      -1.3241787900021855 [Eh]
	 SCS Total Energy          =    -343.1527975400598507 [Eh]
	-----------------------------------------------------------

  Dipole Moment: [D]
     X:    -1.3016      Y:     2.7299      Z:     1.0701     Total:     3.2081

*** Psi4 exiting successfully. Buy a developer a beer!
