                               Psi4 1.3.2 release

  ==> Input File <==

--------------------------------------------------------------------------
#psi4
#
memory 32 gb

molecule  {
0 1
  O       -1.3548645    -1.1422120     0.1645589
  O        1.4419330     1.0393260     0.2985870
  O        1.2366830    -1.0978030    -0.4508720
  C       -0.7180600     0.1031850     0.3873850
  C       -1.3431230     1.2084980    -0.4569850
  C        0.7367530    -0.0975110     0.0221890
  H       -0.7278539     0.4148192     1.4427539
  H       -1.2930290     0.9302150    -1.5111840
  H       -0.8256550     2.1573260    -0.3051780
  H       -2.3949050     1.3388590    -0.1830910
  H       -2.2729280    -1.0415480     0.5084360
  H        2.3630120     0.8399890     0.0298380
units angstrom
no_reorient  #important for SAPT in psi4, default
symmetry c1  #important for SAPT in psi4, default
}

set PROPERTIES_ORIGIN ["COM"]
properties('MP2/aug-cc-pvtz', properties = ['dipole'])
--------------------------------------------------------------------------

    Molecular point group: c1
  Charge       = 0
  Multiplicity = 1
  Basis Set: AUG-CC-PVTZ
    Blend: AUG-CC-PVTZ
  Basis Set: (AUG-CC-PVTZ AUX)
    Blend: AUG-CC-PVTZ-JKFIT

    Orbital Energies [Eh]
    ---------------------

    Doubly Occupied:

       1A    -20.619379     2A    -20.577306     3A    -20.554476
       4A    -11.389935     5A    -11.313359     6A    -11.238410
       7A     -1.462976     8A     -1.380310     9A     -1.356178
      10A     -1.055104    11A     -0.921016    12A     -0.801050
      13A     -0.731654    14A     -0.704576    15A     -0.662299
      16A     -0.648533    17A     -0.613541    18A     -0.601310
      19A     -0.565037    20A     -0.557712    21A     -0.522670
      22A     -0.485020    23A     -0.463435    24A     -0.450940

  @DF-RHF Final Energy:  -341.82752005584740

   => Energetics <=

    Nuclear Repulsion Energy =            248.7881387543511096
    One-Electron Energy =                -961.8788712917540806
    Two-Electron Energy =                 371.2632124815556267
    Total Energy =                       -341.8275200558474012
  Basis Set: (AUG-CC-PVTZ AUX)
    Blend: AUG-CC-PVTZ-RI
    Molecular point group: c1

    Geometry (in Angstrom), charge = 0, multiplicity = 1:

       Center              X                  Y                   Z               Mass
    ------------   -----------------  -----------------  -----------------  -----------------
         O           -1.355847084761    -1.142668635315     0.168903828734    15.994914619570
         O            1.440950415239     1.038869364685     0.302931928734    15.994914619570
         O            1.235700415239    -1.098259635315    -0.446527071266    15.994914619570
         C           -0.719042584761     0.102728364685     0.391729928734    12.000000000000
         C           -1.344105584761     1.208041364685    -0.452640071266    12.000000000000
         C            0.735770415239    -0.097967635315     0.026533928734    12.000000000000
         H           -0.728836484761     0.414362564685     1.447098828734     1.007825032230
         H           -1.294011584761     0.929758364685    -1.506839071266     1.007825032230
         H           -0.826637584761     2.156869364685    -0.300833071266     1.007825032230
         H           -2.395887584761     1.338402364685    -0.178746071266     1.007825032230
         H           -2.273910584761    -1.042004635315     0.512780928734     1.007825032230
         H            2.362029415239     0.839532364685     0.034182928734     1.007825032230

  Basis Set: AUG-CC-PVTZ
    Blend: AUG-CC-PVTZ
  Basis Set: (AUG-CC-PVTZ AUX)
    Blend: AUG-CC-PVTZ-JKFIT
	 Reference Energy          =    -341.8275200558474012 [Eh]
	 Singles Energy            =      -0.0000000000000000 [Eh]
	 Same-Spin Energy          =      -0.3271204855637941 [Eh]
	 Opposite-Spin Energy      =      -1.0130824304392831 [Eh]
	 Correlation Energy        =      -1.3402029160030773 [Eh]
	 Total Energy              =    -343.1677229718504805 [Eh]

	 ================> DF-SCS-MP2 Energies <==================
	-----------------------------------------------------------
	 SCS Same-Spin Scale       =       0.3333333333333333 [-]
	 SCS Opposite-Spin Scale   =       1.2000000000000000 [-]
	 SCS Same-Spin Energy      =      -0.1090401618545980 [Eh]
	 SCS Opposite-Spin Energy  =      -1.2156989165271397 [Eh]
	 SCS Correlation Energy    =      -1.3247390783817377 [Eh]
	 SCS Total Energy          =    -343.1522591342291548 [Eh]
	-----------------------------------------------------------

  Dipole Moment: [D]
     X:    -1.3225      Y:     2.6932      Z:     1.1097     Total:     3.1990

*** Psi4 exiting successfully. Buy a developer a beer!
