                               Psi4 1.3.2 release

  ==> Input File <==

--------------------------------------------------------------------------
#psi4
#
memory 32 gb

molecule  {
0 1
  O       -1.3597980    -1.1437690     0.1887320
  O        1.4016783     1.0594738     0.3143081
  O        1.1986006    -1.1163791    -0.4499395
  C       -0.7180600     0.1031850     0.3873850
  C       -1.3431230     1.2084980    -0.4569850
  C        0.7367530    -0.0975110     0.0221890
  H       -0.7373290     0.3987270     1.4472430
  H       -1.2930290     0.9302150    -1.5111840
  H       -0.8256550     2.1573260    -0.3051780
  H       -2.3949050     1.3388590    -0.1830910
  H       -2.2729280    -1.0415480     0.5084360
  H        2.3630120     0.8399890     0.0298380
units angstrom
no_reorient  #important for SAPT in psi4, default
symmetry c1  #important for SAPT in psi4, default
}

set PROPERTIES_ORIGIN ["COM"]
properties('MP2/aug-cc-pvtz', properties = ['dipole'])
--------------------------------------------------------------------------

    Molecular point group: c1
  Charge       = 0
  Multiplicity = 1
  Basis Set: AUG-CC-PVTZ
    Blend: AUG-CC-PVTZ
  Basis Set: (AUG-CC-PVTZ AUX)
    Blend: AUG-CC-PVTZ-JKFIT

    Orbital Energies [Eh]
    ---------------------

    Doubly Occupied:

       1A    -20.628686     2A    -20.572184     3A    -20.557423
       4A    -11.390740     5A    -11.308848     6A    -11.236897
       7A     -1.459514     8A     -1.379517     9A     -1.358570
      10A     -1.052213    11A     -0.917710    12A     -0.793553
      13A     -0.728931    14A     -0.706549    15A     -0.661076
      16A     -0.649541    17A     -0.612563    18A     -0.600542
      19A     -0.562736    20A     -0.557359    21A     -0.520220
      22A     -0.488105    23A     -0.460747    24A     -0.449869

  @DF-RHF Final Energy:  -341.82161761467671

   => Energetics <=

    Nuclear Repulsion Energy =            248.9283104165619136
    One-Electron Energy =                -962.1916677161193547
    Two-Electron Energy =                 371.4417396848807584
    Total Energy =                       -341.8216176146767111
  Basis Set: (AUG-CC-PVTZ AUX)
    Blend: AUG-CC-PVTZ-RI
    Molecular point group: c1

    Geometry (in Angstrom), charge = 0, multiplicity = 1:

       Center              X                  Y                   Z               Mass
    ------------   -----------------  -----------------  -----------------  -----------------
         O           -1.345880772041    -1.144048108979     0.185773458384    15.994914619570
         O            1.415595527959     1.059194691021     0.311349558384    15.994914619570
         O            1.212517827959    -1.116658208979    -0.452898041616    15.994914619570
         C           -0.704142772041     0.102905891021     0.384426458384    12.000000000000
         C           -1.329205772041     1.208218891021    -0.459943541616    12.000000000000
         C            0.750670227959    -0.097790108979     0.019230458384    12.000000000000
         H           -0.723411772041     0.398447891021     1.444284458384     1.007825032230
         H           -1.279111772041     0.929935891021    -1.514142541616     1.007825032230
         H           -0.811737772041     2.157046891021    -0.308136541616     1.007825032230
         H           -2.380987772041     1.338579891021    -0.186049541616     1.007825032230
         H           -2.259010772041    -1.041827108979     0.505477458384     1.007825032230
         H            2.376929227959     0.839709891021     0.026879458384     1.007825032230

  Basis Set: AUG-CC-PVTZ
    Blend: AUG-CC-PVTZ
  Basis Set: (AUG-CC-PVTZ AUX)
    Blend: AUG-CC-PVTZ-JKFIT
	 Reference Energy          =    -341.8216176146767111 [Eh]
	 Singles Energy            =      -0.0000000000000000 [Eh]
	 Same-Spin Energy          =      -0.3280118142579866 [Eh]
	 Opposite-Spin Energy      =      -1.0149364756210217 [Eh]
	 Correlation Energy        =      -1.3429482898790084 [Eh]
	 Total Energy              =    -343.1645659045557295 [Eh]

	 ================> DF-SCS-MP2 Energies <==================
	-----------------------------------------------------------
	 SCS Same-Spin Scale       =       0.3333333333333333 [-]
	 SCS Opposite-Spin Scale   =       1.2000000000000000 [-]
	 SCS Same-Spin Energy      =      -0.1093372714193289 [Eh]
	 SCS Opposite-Spin Energy  =      -1.2179237707452260 [Eh]
	 SCS Correlation Energy    =      -1.3272610421645548 [Eh]
	 SCS Total Energy          =    -343.1488786568412479 [Eh]
	-----------------------------------------------------------

  Dipole Moment: [D]
     X:    -1.0954      Y:     2.7313      Z:     1.0362     Total:     3.1199

*** Psi4 exiting successfully. Buy a developer a beer!
