                               Psi4 1.3.2 release

  ==> Input File <==

--------------------------------------------------------------------------
#psi4
#
memory 32 gb

molecule  {
0 1
  O       -1.3597980    -1.1437690     0.1887320
  O        1.4419330     1.0393260     0.2985870
  O        1.2366830    -1.0978030    -0.4508720
  C       -0.7180600     0.1031850     0.3873850
  C       -1.3431230     1.2084980    -0.4569850
  C        0.6335088    -0.2639534    -0.0182780
  H       -0.7373290     0.3987270     1.4472430
  H       -1.2930290     0.9302150    -1.5111840
  H       -0.8256550     2.1573260    -0.3051780
  H       -2.3949050     1.3388590    -0.1830910
  H       -2.2729280    -1.0415480     0.5084360
  H        2.3630120     0.8399890     0.0298380
units angstrom
no_reorient  #important for SAPT in psi4, default
symmetry c1  #important for SAPT in psi4, default
}

set PROPERTIES_ORIGIN ["COM"]
properties('MP2/aug-cc-pvtz', properties = ['dipole'])
--------------------------------------------------------------------------

    Molecular point group: c1
  Charge       = 0
  Multiplicity = 1
  Basis Set: AUG-CC-PVTZ
    Blend: AUG-CC-PVTZ
  Basis Set: (AUG-CC-PVTZ AUX)
    Blend: AUG-CC-PVTZ-JKFIT

    Orbital Energies [Eh]
    ---------------------

    Doubly Occupied:

       1A    -20.587815     2A    -20.583382     3A    -20.556427
       4A    -11.390185     5A    -11.322185     6A    -11.243884
       7A     -1.498674     8A     -1.393130     9A     -1.311987
      10A     -1.065163    11A     -0.933444    12A     -0.769938
      13A     -0.747301    14A     -0.707273    15A     -0.668313
      16A     -0.646908    17A     -0.605369    18A     -0.596286
      19A     -0.574288    20A     -0.566142    21A     -0.534698
      22A     -0.483391    23A     -0.469842    24A     -0.445079

  @DF-RHF Final Energy:  -341.79223840761625

   => Energetics <=

    Nuclear Repulsion Energy =            249.3150880963205225
    One-Electron Energy =                -962.8124496939415167
    Two-Electron Energy =                 371.7051231900047128
    Total Energy =                       -341.7922384076162530
  Basis Set: (AUG-CC-PVTZ AUX)
    Blend: AUG-CC-PVTZ-RI
    Molecular point group: c1

    Geometry (in Angstrom), charge = 0, multiplicity = 1:

       Center              X                  Y                   Z               Mass
    ------------   -----------------  -----------------  -----------------  -----------------
         O           -1.346036992872    -1.121584375195     0.194125816051    15.994914619570
         O            1.455694007128     1.061510624805     0.303980816051    15.994914619570
         O            1.250444007128    -1.075618375195    -0.445478183949    15.994914619570
         C           -0.704298992872     0.125369624805     0.392778816051    12.000000000000
         C           -1.329361992872     1.230682624805    -0.451591183949    12.000000000000
         C            0.647269807128    -0.241768775195    -0.012884183949    12.000000000000
         H           -0.723567992872     0.420911624805     1.452636816051     1.007825032230
         H           -1.279267992872     0.952399624805    -1.505790183949     1.007825032230
         H           -0.811893992872     2.179510624805    -0.299784183949     1.007825032230
         H           -2.381143992872     1.361043624805    -0.177697183949     1.007825032230
         H           -2.259166992872    -1.019363375195     0.513829816051     1.007825032230
         H            2.376773007128     0.862173624805     0.035231816051     1.007825032230

  Basis Set: AUG-CC-PVTZ
    Blend: AUG-CC-PVTZ
  Basis Set: (AUG-CC-PVTZ AUX)
    Blend: AUG-CC-PVTZ-JKFIT
	 Reference Energy          =    -341.7922384076162530 [Eh]
	 Singles Energy            =      -0.0000000000000000 [Eh]
	 Same-Spin Energy          =      -0.3269735533575885 [Eh]
	 Opposite-Spin Energy      =      -1.0139921639819032 [Eh]
	 Correlation Energy        =      -1.3409657173394915 [Eh]
	 Total Energy              =    -343.1332041249557392 [Eh]

	 ================> DF-SCS-MP2 Energies <==================
	-----------------------------------------------------------
	 SCS Same-Spin Scale       =       0.3333333333333333 [-]
	 SCS Opposite-Spin Scale   =       1.2000000000000000 [-]
	 SCS Same-Spin Energy      =      -0.1089911844525295 [Eh]
	 SCS Opposite-Spin Energy  =      -1.2167905967782837 [Eh]
	 SCS Correlation Energy    =      -1.3257817812308132 [Eh]
	 SCS Total Energy          =    -343.1180201888470833 [Eh]
	-----------------------------------------------------------

  Dipole Moment: [D]
     X:    -2.2292      Y:     1.2776      Z:     0.6585     Total:     2.6524

*** Psi4 exiting successfully. Buy a developer a beer!
