                               Psi4 1.3.2 release

  ==> Input File <==

--------------------------------------------------------------------------
#psi4
#
memory 32 gb

molecule  {
0 1
  O       -1.3597980    -1.1437690     0.1887320
  O        1.4419330     1.0393260     0.2985870
  O        1.1985550    -1.1162953    -0.4501650
  C       -0.7280045     0.0539630     0.3710000
  C       -1.3431230     1.2084980    -0.4569850
  C        0.7367530    -0.0975110     0.0221890
  H       -0.7373290     0.3987270     1.4472430
  H       -1.2930290     0.9302150    -1.5111840
  H       -0.8256550     2.1573260    -0.3051780
  H       -2.3949050     1.3388590    -0.1830910
  H       -2.2729280    -1.0415480     0.5084360
  H        2.3630120     0.8399890     0.0298380
units angstrom
no_reorient  #important for SAPT in psi4, default
symmetry c1  #important for SAPT in psi4, default
}

set PROPERTIES_ORIGIN ["COM"]
properties('MP2/aug-cc-pvtz', properties = ['dipole'])
--------------------------------------------------------------------------

    Molecular point group: c1
  Charge       = 0
  Multiplicity = 1
  Basis Set: AUG-CC-PVTZ
    Blend: AUG-CC-PVTZ
  Basis Set: (AUG-CC-PVTZ AUX)
    Blend: AUG-CC-PVTZ-JKFIT

    Orbital Energies [Eh]
    ---------------------

    Doubly Occupied:

       1A    -20.622886     2A    -20.578764     3A    -20.553104
       4A    -11.388941     5A    -11.312596     6A    -11.237074
       7A     -1.462828     8A     -1.400511     9A     -1.359578
      10A     -1.047392    11A     -0.918728    12A     -0.806528
      13A     -0.730597    14A     -0.705065    15A     -0.672917
      16A     -0.653441    17A     -0.615653    18A     -0.605510
      19A     -0.564283    20A     -0.557151    21A     -0.522312
      22A     -0.486209    23A     -0.452989    24A     -0.446861

  @DF-RHF Final Energy:  -341.82649255962036

   => Energetics <=

    Nuclear Repulsion Energy =            249.2263663147685406
    One-Electron Energy =                -962.7018797805292252
    Two-Electron Energy =                 371.6490209061403789
    Total Energy =                       -341.8264925596203625
  Basis Set: (AUG-CC-PVTZ AUX)
    Blend: AUG-CC-PVTZ-RI
    Molecular point group: c1

    Geometry (in Angstrom), charge = 0, multiplicity = 1:

       Center              X                  Y                   Z               Mass
    ------------   -----------------  -----------------  -----------------  -----------------
         O           -1.351698802313    -1.133922941653     0.190790408362    15.994914619570
         O            1.450032197687     1.049172058347     0.300645408362    15.994914619570
         O            1.206654197687    -1.106449241653    -0.448106591638    15.994914619570
         C           -0.719905302313     0.063809058347     0.373058408362    12.000000000000
         C           -1.335023802313     1.218344058347    -0.454926591638    12.000000000000
         C            0.744852197687    -0.087664941653     0.024247408362    12.000000000000
         H           -0.729229802313     0.408573058347     1.449301408362     1.007825032230
         H           -1.284929802313     0.940061058347    -1.509125591638     1.007825032230
         H           -0.817555802313     2.167172058347    -0.303119591638     1.007825032230
         H           -2.386805802313     1.348705058347    -0.181032591638     1.007825032230
         H           -2.264828802313    -1.031701941653     0.510494408362     1.007825032230
         H            2.371111197687     0.849835058347     0.031896408362     1.007825032230

  Basis Set: AUG-CC-PVTZ
    Blend: AUG-CC-PVTZ
  Basis Set: (AUG-CC-PVTZ AUX)
    Blend: AUG-CC-PVTZ-JKFIT
	 Reference Energy          =    -341.8264925596203625 [Eh]
	 Singles Energy            =      -0.0000000000000000 [Eh]
	 Same-Spin Energy          =      -0.3268577306929760 [Eh]
	 Opposite-Spin Energy      =      -1.0118460501653213 [Eh]
	 Correlation Energy        =      -1.3387037808582973 [Eh]
	 Total Energy              =    -343.1651963404786443 [Eh]

	 ================> DF-SCS-MP2 Energies <==================
	-----------------------------------------------------------
	 SCS Same-Spin Scale       =       0.3333333333333333 [-]
	 SCS Opposite-Spin Scale   =       1.2000000000000000 [-]
	 SCS Same-Spin Energy      =      -0.1089525768976587 [Eh]
	 SCS Opposite-Spin Energy  =      -1.2142152601983855 [Eh]
	 SCS Correlation Energy    =      -1.3231678370960442 [Eh]
	 SCS Total Energy          =    -343.1496603967163992 [Eh]
	-----------------------------------------------------------

  Dipole Moment: [D]
     X:    -1.2980      Y:     2.5831      Z:     1.0459     Total:     3.0743

*** Psi4 exiting successfully. Buy a developer a beer!
