                               Psi4 1.3.2 release

  ==> Input File <==

--------------------------------------------------------------------------
#psi4
#
memory 32 gb

molecule  {
0 1
  O       -1.3597980    -1.1437690     0.1887320
  O        1.4419330     1.0393260     0.2985870
  O        1.2366830    -1.0978030    -0.4508720
  C       -0.7286863     0.1317786     0.4310039
  C       -1.3431230     1.2084980    -0.4569850
  C        0.7367530    -0.0975110     0.0221890
  H       -0.7373290     0.3987270     1.4472430
  H       -1.3102207     0.9630548    -1.5199814
  H       -0.8256550     2.1573260    -0.3051780
  H       -2.3949050     1.3388590    -0.1830910
  H       -2.2729280    -1.0415480     0.5084360
  H        2.3630120     0.8399890     0.0298380
units angstrom
no_reorient  #important for SAPT in psi4, default
symmetry c1  #important for SAPT in psi4, default
}

set PROPERTIES_ORIGIN ["COM"]
properties('MP2/aug-cc-pvtz', properties = ['dipole'])
--------------------------------------------------------------------------

    Molecular point group: c1
  Charge       = 0
  Multiplicity = 1
  Basis Set: AUG-CC-PVTZ
    Blend: AUG-CC-PVTZ
  Basis Set: (AUG-CC-PVTZ AUX)
    Blend: AUG-CC-PVTZ-JKFIT

    Orbital Energies [Eh]
    ---------------------

    Doubly Occupied:

       1A    -20.619146     2A    -20.573352     3A    -20.555576
       4A    -11.391366     5A    -11.313006     6A    -11.239439
       7A     -1.462504     8A     -1.373264     9A     -1.355181
      10A     -1.055389    11A     -0.919239    12A     -0.804319
      13A     -0.734343    14A     -0.705156    15A     -0.657161
      16A     -0.645865    17A     -0.612857    18A     -0.598679
      19A     -0.568044    20A     -0.554835    21A     -0.523633
      22A     -0.484961    23A     -0.469150    24A     -0.449559

  @DF-RHF Final Energy:  -341.82476699616177

   => Energetics <=

    Nuclear Repulsion Energy =            248.0642269168401128
    One-Electron Energy =                -960.4459397299574448
    Two-Electron Energy =                 370.5569458169555901
    Total Energy =                       -341.8247669961617703
  Basis Set: (AUG-CC-PVTZ AUX)
    Blend: AUG-CC-PVTZ-RI
    Molecular point group: c1

    Geometry (in Angstrom), charge = 0, multiplicity = 1:

       Center              X                  Y                   Z               Mass
    ------------   -----------------  -----------------  -----------------  -----------------
         O           -1.358189253094    -1.147947633129     0.183016788607    15.994914619570
         O            1.443541746906     1.035147366871     0.292871788607    15.994914619570
         O            1.238291746906    -1.101981633129    -0.456587211393    15.994914619570
         C           -0.727077553094     0.127599966871     0.425288688607    12.000000000000
         C           -1.341514253094     1.204319366871    -0.462700211393    12.000000000000
         C            0.738361746906    -0.101689633129     0.016473788607    12.000000000000
         H           -0.735720253094     0.394548366871     1.441527788607     1.007825032230
         H           -1.308611953094     0.958876166871    -1.525696611393     1.007825032230
         H           -0.824046253094     2.153147366871    -0.310893211393     1.007825032230
         H           -2.393296253094     1.334680366871    -0.188806211393     1.007825032230
         H           -2.271319253094    -1.045726633129     0.502720788607     1.007825032230
         H            2.364620746906     0.835810366871     0.024122788607     1.007825032230

  Basis Set: AUG-CC-PVTZ
    Blend: AUG-CC-PVTZ
  Basis Set: (AUG-CC-PVTZ AUX)
    Blend: AUG-CC-PVTZ-JKFIT
	 Reference Energy          =    -341.8247669961617703 [Eh]
	 Singles Energy            =      -0.0000000000000000 [Eh]
	 Same-Spin Energy          =      -0.3269579627500586 [Eh]
	 Opposite-Spin Energy      =      -1.0132962368408851 [Eh]
	 Correlation Energy        =      -1.3402541995909436 [Eh]
	 Total Energy              =    -343.1650211957527290 [Eh]

	 ================> DF-SCS-MP2 Energies <==================
	-----------------------------------------------------------
	 SCS Same-Spin Scale       =       0.3333333333333333 [-]
	 SCS Opposite-Spin Scale   =       1.2000000000000000 [-]
	 SCS Same-Spin Energy      =      -0.1089859875833529 [Eh]
	 SCS Opposite-Spin Energy  =      -1.2159554842090621 [Eh]
	 SCS Correlation Energy    =      -1.3249414717924148 [Eh]
	 SCS Total Energy          =    -343.1497084679542127 [Eh]
	-----------------------------------------------------------

  Dipole Moment: [D]
     X:    -1.2626      Y:     2.7747      Z:     1.0947     Total:     3.2391

*** Psi4 exiting successfully. Buy a developer a beer!
