                               Psi4 1.3.2 release

  ==> Input File <==

--------------------------------------------------------------------------
#psi4
#
memory 32 gb

molecule  {
0 1
  O       -1.3597980    -1.1437690     0.1887320
  O        1.4419330     1.0393260     0.2985870
  O        1.2366830    -1.0978030    -0.4508720
  C       -0.7130317     0.0893911     0.3651864
  C       -1.3431230     1.2084980    -0.4569850
  C        0.7367530    -0.0975110     0.0221890
  H       -0.7373290     0.3987270     1.4472430
  H       -1.2844547     0.9139198    -1.5063029
  H       -0.8256550     2.1573260    -0.3051780
  H       -2.3949050     1.3388590    -0.1830910
  H       -2.2729280    -1.0415480     0.5084360
  H        2.3630120     0.8399890     0.0298380
units angstrom
no_reorient  #important for SAPT in psi4, default
symmetry c1  #important for SAPT in psi4, default
}

set PROPERTIES_ORIGIN ["COM"]
properties('MP2/aug-cc-pvtz', properties = ['dipole'])
--------------------------------------------------------------------------

    Molecular point group: c1
  Charge       = 0
  Multiplicity = 1
  Basis Set: AUG-CC-PVTZ
    Blend: AUG-CC-PVTZ
  Basis Set: (AUG-CC-PVTZ AUX)
    Blend: AUG-CC-PVTZ-JKFIT

    Orbital Energies [Eh]
    ---------------------

    Doubly Occupied:

       1A    -20.619961     2A    -20.576139     3A    -20.554427
       4A    -11.390134     5A    -11.314079     6A    -11.239028
       7A     -1.463617     8A     -1.386205     9A     -1.357359
      10A     -1.056173    11A     -0.922914    12A     -0.802824
      13A     -0.729070    14A     -0.704680    15A     -0.666161
      16A     -0.653197    17A     -0.614464    18A     -0.604276
      19A     -0.563814    20A     -0.559658    21A     -0.521562
      22A     -0.485500    23A     -0.459734    24A     -0.451251

  @DF-RHF Final Energy:  -341.82833009550683

   => Energetics <=

    Nuclear Repulsion Energy =            249.0214080969967370
    One-Electron Energy =                -962.3070182065872586
    Two-Electron Energy =                 371.4572800140836648
    Total Energy =                       -341.8283300955068285
  Basis Set: (AUG-CC-PVTZ AUX)
    Blend: AUG-CC-PVTZ-RI
    Molecular point group: c1

    Geometry (in Angstrom), charge = 0, multiplicity = 1:

       Center              X                  Y                   Z               Mass
    ------------   -----------------  -----------------  -----------------  -----------------
         O           -1.360564225842    -1.141747933247     0.191636247271    15.994914619570
         O            1.441166774158     1.041347066753     0.301491247271    15.994914619570
         O            1.235916774158    -1.095781933247    -0.447967752729    15.994914619570
         C           -0.713797925842     0.091412166753     0.368090647271    12.000000000000
         C           -1.343889225842     1.210519066753    -0.454080752729    12.000000000000
         C            0.735986774158    -0.095489933247     0.025093247271    12.000000000000
         H           -0.738095225842     0.400748066753     1.450147247271     1.007825032230
         H           -1.285220925842     0.915940866753    -1.503398652729     1.007825032230
         H           -0.826421225842     2.159347066753    -0.302273752729     1.007825032230
         H           -2.395671225842     1.340880066753    -0.180186752729     1.007825032230
         H           -2.273694225842    -1.039526933247     0.511340247271     1.007825032230
         H            2.362245774158     0.842010066753     0.032742247271     1.007825032230

  Basis Set: AUG-CC-PVTZ
    Blend: AUG-CC-PVTZ
  Basis Set: (AUG-CC-PVTZ AUX)
    Blend: AUG-CC-PVTZ-JKFIT
	 Reference Energy          =    -341.8283300955068285 [Eh]
	 Singles Energy            =      -0.0000000000000000 [Eh]
	 Same-Spin Energy          =      -0.3269013472619029 [Eh]
	 Opposite-Spin Energy      =      -1.0123484863804273 [Eh]
	 Correlation Energy        =      -1.3392498336423302 [Eh]
	 Total Energy              =    -343.1675799291491558 [Eh]

	 ================> DF-SCS-MP2 Energies <==================
	-----------------------------------------------------------
	 SCS Same-Spin Scale       =       0.3333333333333333 [-]
	 SCS Opposite-Spin Scale   =       1.2000000000000000 [-]
	 SCS Same-Spin Energy      =      -0.1089671157539676 [Eh]
	 SCS Opposite-Spin Energy  =      -1.2148181836565126 [Eh]
	 SCS Correlation Energy    =      -1.3237852994104802 [Eh]
	 SCS Total Energy          =    -343.1521153949173026 [Eh]
	-----------------------------------------------------------

  Dipole Moment: [D]
     X:    -1.3443      Y:     2.6841      Z:     1.0382     Total:     3.1764

*** Psi4 exiting successfully. Buy a developer a beer!
