                               Psi4 1.3.2 release

  ==> Input File <==

--------------------------------------------------------------------------
#psi4
#
memory 32 gb

molecule  {
0 1
  O       -1.3597980    -1.1437690     0.1887320
  O        1.4419330     1.0393260     0.2985870
  O        1.2366830    -1.0978030    -0.4508720
  C       -0.7285183     0.1077492     0.3921359
  C       -1.3431230     1.2084980    -0.4569850
  C        0.7367530    -0.0975110     0.0221890
  H       -0.7373290     0.3987270     1.4472430
  H       -1.2930290     0.9302150    -1.5111840
  H       -0.8256550     2.1573260    -0.3051780
  H       -2.3949050     1.3388590    -0.1830910
  H       -2.2712626    -1.0334834     0.5105015
  H        2.3630120     0.8399890     0.0298380
units angstrom
no_reorient  #important for SAPT in psi4, default
symmetry c1  #important for SAPT in psi4, default
}

set PROPERTIES_ORIGIN ["COM"]
properties('MP2/aug-cc-pvtz', properties = ['dipole'])
--------------------------------------------------------------------------

    Molecular point group: c1
  Charge       = 0
  Multiplicity = 1
  Basis Set: AUG-CC-PVTZ
    Blend: AUG-CC-PVTZ
  Basis Set: (AUG-CC-PVTZ AUX)
    Blend: AUG-CC-PVTZ-JKFIT

    Orbital Energies [Eh]
    ---------------------

    Doubly Occupied:

       1A    -20.619466     2A    -20.575771     3A    -20.554731
       4A    -11.390415     5A    -11.313454     6A    -11.238800
       7A     -1.462751     8A     -1.382283     9A     -1.356724
      10A     -1.055545    11A     -0.919894    12A     -0.802476
      13A     -0.731816    14A     -0.704777    15A     -0.661775
      16A     -0.650081    17A     -0.614539    18A     -0.601936
      19A     -0.566407    20A     -0.557363    21A     -0.523024
      22A     -0.485079    23A     -0.465145    24A     -0.449859

  @DF-RHF Final Energy:  -341.82866034151760

   => Energetics <=

    Nuclear Repulsion Energy =            248.6015895639304460
    One-Electron Energy =                -961.4922836341819448
    Two-Electron Energy =                 371.0620337287338657
    Total Energy =                       -341.8286603415176046
  Basis Set: (AUG-CC-PVTZ AUX)
    Blend: AUG-CC-PVTZ-RI
    Molecular point group: c1

    Geometry (in Angstrom), charge = 0, multiplicity = 1:

       Center              X                  Y                   Z               Mass
    ------------   -----------------  -----------------  -----------------  -----------------
         O           -1.358422733733    -1.144467504602     0.188075763697    15.994914619570
         O            1.443308266267     1.038627495398     0.297930763697    15.994914619570
         O            1.238058266267    -1.098501504602    -0.451528236303    15.994914619570
         C           -0.727143033733     0.107050695398     0.391479663697    12.000000000000
         C           -1.341747733733     1.207799495398    -0.457641236303    12.000000000000
         C            0.738128266267    -0.098209504602     0.021532763697    12.000000000000
         H           -0.735953733733     0.398028495398     1.446586763697     1.007825032230
         H           -1.291653733733     0.929516495398    -1.511840236303     1.007825032230
         H           -0.824279733733     2.156627495398    -0.305834236303     1.007825032230
         H           -2.393529733733     1.338160495398    -0.183747236303     1.007825032230
         H           -2.269887333733    -1.034181904602     0.509845263697     1.007825032230
         H            2.364387266267     0.839290495398     0.029181763697     1.007825032230

  Basis Set: AUG-CC-PVTZ
    Blend: AUG-CC-PVTZ
  Basis Set: (AUG-CC-PVTZ AUX)
    Blend: AUG-CC-PVTZ-JKFIT
	 Reference Energy          =    -341.8286603415176046 [Eh]
	 Singles Energy            =      -0.0000000000000000 [Eh]
	 Same-Spin Energy          =      -0.3269030479104502 [Eh]
	 Opposite-Spin Energy      =      -1.0126342388126233 [Eh]
	 Correlation Energy        =      -1.3395372867230735 [Eh]
	 Total Energy              =    -343.1681976282407049 [Eh]

	 ================> DF-SCS-MP2 Energies <==================
	-----------------------------------------------------------
	 SCS Same-Spin Scale       =       0.3333333333333333 [-]
	 SCS Opposite-Spin Scale   =       1.2000000000000000 [-]
	 SCS Same-Spin Energy      =      -0.1089676826368167 [Eh]
	 SCS Opposite-Spin Energy  =      -1.2151610865751479 [Eh]
	 SCS Correlation Energy    =      -1.3241287692119645 [Eh]
	 SCS Total Energy          =    -343.1527891107295432 [Eh]
	-----------------------------------------------------------

  Dipole Moment: [D]
     X:    -1.3121      Y:     2.7244      Z:     1.0626     Total:     3.2052

*** Psi4 exiting successfully. Buy a developer a beer!
