                               Psi4 1.4a3.dev225

  ==> Input File <==

--------------------------------------------------------------------------
#psi4
#
memory 32 gb

molecule  {
0 1
  O        1.3501930    -1.1356630    -0.2433140
  O       -1.5558540     0.8884770    -0.3921630
  O       -1.2169910    -1.1507310     0.5497490
  C        0.6629050     0.0959340    -0.3934650
  C        1.2396040     1.1907030     0.5015680
  C       -0.7811570    -0.1720460    -0.0200300
  H        0.6688980     0.4337360    -1.4405180
  H        1.2084250     0.8592770     1.5425200
  H        0.6765780     2.1206880     0.3977210
  H        2.2819130     1.3850820     0.2293300
  H        2.2985023    -0.9649675    -0.4815372
  H       -2.4621080     0.6654070    -0.0949290
units angstrom
no_reorient  #important for SAPT in psi4, default
symmetry c1  #important for SAPT in psi4, default
}

set PROPERTIES_ORIGIN ["COM"]
properties('MP2/aug-cc-pvtz', properties = ['dipole'])
--------------------------------------------------------------------------

    Molecular point group: c1
  Charge       = 0
  Multiplicity = 1
  Basis Set: AUG-CC-PVTZ
    Blend: AUG-CC-PVTZ
  Basis Set: (AUG-CC-PVTZ AUX)
    Blend: AUG-CC-PVTZ-JKFIT

    Orbital Energies [Eh]
    ---------------------

    Doubly Occupied:

       1A    -20.619385     2A    -20.577157     3A    -20.554528
       4A    -11.390202     5A    -11.313555     6A    -11.240755
       7A     -1.463346     8A     -1.377691     9A     -1.356241
      10A     -1.054622    11A     -0.921605    12A     -0.801330
      13A     -0.728817    14A     -0.703240    15A     -0.657823
      16A     -0.654258    17A     -0.616903    18A     -0.601705
      19A     -0.562424    20A     -0.557309    21A     -0.522929
      22A     -0.485193    23A     -0.463312    24A     -0.450939

  @DF-RHF Final Energy:  -341.82769605250445

   => Energetics <=

    Nuclear Repulsion Energy =            248.4633741050869560
    One-Electron Energy =                -961.2316041176583212
    Two-Electron Energy =                 370.9405339600669436
    Total Energy =                       -341.8276960525044501
  Basis Set: (AUG-CC-PVTZ AUX)
    Blend: AUG-CC-PVTZ-RI
    Molecular point group: c1

    Geometry (in Angstrom), charge = 0, multiplicity = 1:

       Center              X                  Y                   Z               Mass
    ------------   -----------------  -----------------  -----------------  -----------------
         O            1.401177321034    -1.086235495097    -0.241530680853    15.994914619570
         O           -1.504869678966     0.937904504903    -0.390379680853    15.994914619570
         O           -1.166006678966    -1.101303495097     0.551532319147    15.994914619570
         C            0.713889321034     0.145361504903    -0.391681680853    12.000000000000
         C            1.290588321034     1.240130504903     0.503351319147    12.000000000000
         C           -0.730172678966    -0.122618495097    -0.018246680853    12.000000000000
         H            0.719882321034     0.483163504903    -1.438734680853     1.007825032230
         H            1.259409321034     0.908704504903     1.544303319147     1.007825032230
         H            0.727562321034     2.170115504903     0.399504319147     1.007825032230
         H            2.332897321034     1.434509504903     0.231113319147     1.007825032230
         H            2.349486621034    -0.915539995097    -0.479753880853     1.007825032230
         H           -2.411123678966     0.714834504903    -0.093145680853     1.007825032230

  Basis Set: AUG-CC-PVTZ
    Blend: AUG-CC-PVTZ
  Basis Set: (AUG-CC-PVTZ AUX)
    Blend: AUG-CC-PVTZ-JKFIT
	 Reference Energy          =    -341.8276960525044501 [Eh]
	 Singles Energy            =      -0.0000000000000000 [Eh]
	 Same-Spin Energy          =      -0.3270228633505859 [Eh]
	 Opposite-Spin Energy      =      -1.0130964563723217 [Eh]
	 Correlation Energy        =      -1.3401193197229078 [Eh]
	 Total Energy              =    -343.1678153722273805 [Eh]

	 ================> DF-SCS-MP2 Energies <==================
	-----------------------------------------------------------
	 SCS Same-Spin Scale       =       0.3333333333333333 [-]
	 SCS Opposite-Spin Scale   =       1.2000000000000000 [-]
	 SCS Same-Spin Energy      =      -0.1090076211168620 [Eh]
	 SCS Opposite-Spin Energy  =      -1.2157157476467859 [Eh]
	 SCS Correlation Energy    =      -1.3247233687636479 [Eh]
	 SCS Total Energy          =    -343.1524194212681209 [Eh]
	-----------------------------------------------------------

  Dipole Moment: [D]
     X:     1.2296      Y:     2.7910      Z:    -0.9613     Total:     3.1978

*** Psi4 exiting successfully. Buy a developer a beer!
