                               Psi4 1.3.2 release

  ==> Input File <==

--------------------------------------------------------------------------
#psi4
#
memory 32 gb

molecule  {
0 1
  O       -1.4023250    -1.1232329     0.2033590
  O        1.4419330     1.0393260     0.2985870
  O        1.2366830    -1.0978030    -0.4508720
  C       -0.7180600     0.1031850     0.3873850
  C       -1.3431230     1.2084980    -0.4569850
  C        0.7457367    -0.0467995     0.0339281
  H       -0.7373290     0.3987270     1.4472430
  H       -1.2930290     0.9302150    -1.5111840
  H       -0.8256550     2.1573260    -0.3051780
  H       -2.3949050     1.3388590    -0.1830910
  H       -2.2729280    -1.0415480     0.5084360
  H        2.3630120     0.8399890     0.0298380
units angstrom
no_reorient  #important for SAPT in psi4, default
symmetry c1  #important for SAPT in psi4, default
}

set PROPERTIES_ORIGIN ["COM"]
properties('MP2/aug-cc-pvtz', properties = ['dipole'])
--------------------------------------------------------------------------

    Molecular point group: c1
  Charge       = 0
  Multiplicity = 1
  Basis Set: AUG-CC-PVTZ
    Blend: AUG-CC-PVTZ
  Basis Set: (AUG-CC-PVTZ AUX)
    Blend: AUG-CC-PVTZ-JKFIT

    Orbital Energies [Eh]
    ---------------------

    Doubly Occupied:

       1A    -20.635048     2A    -20.569033     3A    -20.545836
       4A    -11.395044     5A    -11.315006     6A    -11.238950
       7A     -1.481970     8A     -1.388638     9A     -1.337134
      10A     -1.060633    11A     -0.925657    12A     -0.823576
      13A     -0.730663    14A     -0.711919    15A     -0.674404
      16A     -0.657106    17A     -0.618593    18A     -0.601839
      19A     -0.564367    20A     -0.555217    21A     -0.516665
      22A     -0.473699    23A     -0.460538    24A     -0.446738

  @DF-RHF Final Energy:  -341.82345396949876

   => Energetics <=

    Nuclear Repulsion Energy =            248.5707359587690348
    One-Electron Energy =                -961.3318320576536280
    Two-Electron Energy =                 370.9376421293857788
    Total Energy =                       -341.8234539694987575
  Basis Set: (AUG-CC-PVTZ AUX)
    Blend: AUG-CC-PVTZ-RI
    Molecular point group: c1

    Geometry (in Angstrom), charge = 0, multiplicity = 1:

       Center              X                  Y                   Z               Mass
    ------------   -----------------  -----------------  -----------------  -----------------
         O           -1.395967153203    -1.133640352874     0.199195839198    15.994914619570
         O            1.448290846797     1.028918547126     0.294423839198    15.994914619570
         O            1.243040846797    -1.108210452874    -0.455035160802    15.994914619570
         C           -0.711702153203     0.092777547126     0.383221839198    12.000000000000
         C           -1.336765153203     1.198090547126    -0.461148160802    12.000000000000
         C            0.752094546797    -0.057206952874     0.029764939198    12.000000000000
         H           -0.730971153203     0.388319547126     1.443079839198     1.007825032230
         H           -1.286671153203     0.919807547126    -1.515347160802     1.007825032230
         H           -0.819297153203     2.146918547126    -0.309341160802     1.007825032230
         H           -2.388547153203     1.328451547126    -0.187254160802     1.007825032230
         H           -2.266570153203    -1.051955452874     0.504272839198     1.007825032230
         H            2.369369846797     0.829581547126     0.025674839198     1.007825032230

  Basis Set: AUG-CC-PVTZ
    Blend: AUG-CC-PVTZ
  Basis Set: (AUG-CC-PVTZ AUX)
    Blend: AUG-CC-PVTZ-JKFIT
	 Reference Energy          =    -341.8234539694987575 [Eh]
	 Singles Energy            =      -0.0000000000000000 [Eh]
	 Same-Spin Energy          =      -0.3268269776783302 [Eh]
	 Opposite-Spin Energy      =      -1.0117655482210326 [Eh]
	 Correlation Energy        =      -1.3385925258993630 [Eh]
	 Total Energy              =    -343.1620464953981013 [Eh]

	 ================> DF-SCS-MP2 Energies <==================
	-----------------------------------------------------------
	 SCS Same-Spin Scale       =       0.3333333333333333 [-]
	 SCS Opposite-Spin Scale   =       1.2000000000000000 [-]
	 SCS Same-Spin Energy      =      -0.1089423258927767 [Eh]
	 SCS Opposite-Spin Energy  =      -1.2141186578652390 [Eh]
	 SCS Correlation Energy    =      -1.3230609837580158 [Eh]
	 SCS Total Energy          =    -343.1465149532567693 [Eh]
	-----------------------------------------------------------

  Dipole Moment: [D]
     X:    -1.1366      Y:     3.0928      Z:     1.1739     Total:     3.4979

*** Psi4 exiting successfully. Buy a developer a beer!
