                               Psi4 1.3.2 release

  ==> Input File <==

--------------------------------------------------------------------------
#psi4
#
memory 32 gb

molecule  {
0 1
  O       -1.3597980    -1.1437690     0.1887320
  O        1.4419330     1.0393260     0.2985870
  O        1.2366830    -1.0978030    -0.4508720
  C       -0.7601784     0.1208685     0.4062944
  C       -1.3431230     1.2084980    -0.4569850
  C        0.7367530    -0.0975110     0.0221890
  H       -0.7373290     0.3987270     1.4472430
  H       -1.2930290     0.9302150    -1.5111840
  H       -0.8256550     2.1573260    -0.3051780
  H       -2.3949050     1.3388590    -0.1830910
  H       -2.2658503    -1.0093426     0.5165504
  H        2.3630120     0.8399890     0.0298380
units angstrom
no_reorient  #important for SAPT in psi4, default
symmetry c1  #important for SAPT in psi4, default
}

set PROPERTIES_ORIGIN ["COM"]
properties('MP2/aug-cc-pvtz', properties = ['dipole'])
--------------------------------------------------------------------------

    Molecular point group: c1
  Charge       = 0
  Multiplicity = 1
  Basis Set: AUG-CC-PVTZ
    Blend: AUG-CC-PVTZ
  Basis Set: (AUG-CC-PVTZ AUX)
    Blend: AUG-CC-PVTZ-JKFIT

    Orbital Energies [Eh]
    ---------------------

    Doubly Occupied:

       1A    -20.618678     2A    -20.577681     3A    -20.554342
       4A    -11.389879     5A    -11.313635     6A    -11.238328
       7A     -1.461236     8A     -1.384298     9A     -1.356263
      10A     -1.055501    11A     -0.914951    12A     -0.802158
      13A     -0.733426    14A     -0.704436    15A     -0.660120
      16A     -0.647700    17A     -0.616565    18A     -0.600004
      19A     -0.570687    20A     -0.554967    21A     -0.525375
      22A     -0.484342    23A     -0.470271    24A     -0.444964

  @DF-RHF Final Energy:  -341.82554416455582

   => Energetics <=

    Nuclear Repulsion Energy =            248.2882162654764215
    One-Electron Energy =                -960.8679063070575239
    Two-Electron Energy =                 370.7541458770252802
    Total Energy =                       -341.8255441645558221
  Basis Set: (AUG-CC-PVTZ AUX)
    Blend: AUG-CC-PVTZ-RI
    Molecular point group: c1

    Geometry (in Angstrom), charge = 0, multiplicity = 1:

       Center              X                  Y                   Z               Mass
    ------------   -----------------  -----------------  -----------------  -----------------
         O           -1.354263459018    -1.146486363677     0.186120916188    15.994914619570
         O            1.447467540982     1.036608636323     0.295975916188    15.994914619570
         O            1.242217540982    -1.100520363677    -0.453483083812    15.994914619570
         C           -0.754643859018     0.118151136323     0.403683316188    12.000000000000
         C           -1.337588459018     1.205780636323    -0.459596083812    12.000000000000
         C            0.742287540982    -0.100228363677     0.019577916188    12.000000000000
         H           -0.731794459018     0.396009636323     1.444631916188     1.007825032230
         H           -1.287494459018     0.927497636323    -1.513795083812     1.007825032230
         H           -0.820120459018     2.154608636323    -0.307789083812     1.007825032230
         H           -2.389370459018     1.336141636323    -0.185702083812     1.007825032230
         H           -2.260315759018    -1.012059963677     0.513939316188     1.007825032230
         H            2.368546540982     0.837271636323     0.027226916188     1.007825032230

  Basis Set: AUG-CC-PVTZ
    Blend: AUG-CC-PVTZ
  Basis Set: (AUG-CC-PVTZ AUX)
    Blend: AUG-CC-PVTZ-JKFIT
	 Reference Energy          =    -341.8255441645558221 [Eh]
	 Singles Energy            =      -0.0000000000000000 [Eh]
	 Same-Spin Energy          =      -0.3270958069526922 [Eh]
	 Opposite-Spin Energy      =      -1.0130804002191622 [Eh]
	 Correlation Energy        =      -1.3401762071718544 [Eh]
	 Total Energy              =    -343.1657203717276730 [Eh]

	 ================> DF-SCS-MP2 Energies <==================
	-----------------------------------------------------------
	 SCS Same-Spin Scale       =       0.3333333333333333 [-]
	 SCS Opposite-Spin Scale   =       1.2000000000000000 [-]
	 SCS Same-Spin Energy      =      -0.1090319356508974 [Eh]
	 SCS Opposite-Spin Energy  =      -1.2156964802629946 [Eh]
	 SCS Correlation Energy    =      -1.3247284159138919 [Eh]
	 SCS Total Energy          =    -343.1502725804697320 [Eh]
	-----------------------------------------------------------

  Dipole Moment: [D]
     X:    -1.3071      Y:     2.7530      Z:     1.0687     Total:     3.2295

*** Psi4 exiting successfully. Buy a developer a beer!
