                               Psi4 1.3.2 release

  ==> Input File <==

--------------------------------------------------------------------------
#psi4
#
memory 32 gb

molecule  {
0 1
  O       -1.3597980    -1.1437690     0.1887320
  O        1.4419330     1.0393260     0.2985870
  O        1.2366830    -1.0978030    -0.4508720
  C       -0.7342810     0.1465696     0.4524109
  C       -1.3431230     1.2084980    -0.4569850
  C        0.7367530    -0.0975110     0.0221890
  H       -0.7373290     0.3987270     1.4472430
  H       -1.3188329     0.9795893    -1.5238951
  H       -0.8256550     2.1573260    -0.3051780
  H       -2.3949050     1.3388590    -0.1830910
  H       -2.2729280    -1.0415480     0.5084360
  H        2.3630120     0.8399890     0.0298380
units angstrom
no_reorient  #important for SAPT in psi4, default
symmetry c1  #important for SAPT in psi4, default
}

set PROPERTIES_ORIGIN ["COM"]
properties('MP2/aug-cc-pvtz', properties = ['dipole'])
--------------------------------------------------------------------------

    Molecular point group: c1
  Charge       = 0
  Multiplicity = 1
  Basis Set: AUG-CC-PVTZ
    Blend: AUG-CC-PVTZ
  Basis Set: (AUG-CC-PVTZ AUX)
    Blend: AUG-CC-PVTZ-JKFIT

    Orbital Energies [Eh]
    ---------------------

    Doubly Occupied:

       1A    -20.618871     2A    -20.572509     3A    -20.555952
       4A    -11.391882     5A    -11.313077     6A    -11.239839
       7A     -1.462155     8A     -1.369640     9A     -1.353830
      10A     -1.055513    11A     -0.918369    12A     -0.806236
      13A     -0.735177    14A     -0.705294    15A     -0.655218
      16A     -0.643485    17A     -0.612556    18A     -0.596560
      19A     -0.569743    20A     -0.552992    21A     -0.524443
      22A     -0.484819    23A     -0.470884    24A     -0.448305

  @DF-RHF Final Energy:  -341.81973563656612

   => Energetics <=

    Nuclear Repulsion Energy =            247.7371556920714397
    One-Electron Energy =                -959.7990893867100795
    Two-Electron Energy =                 370.2421980580724608
    Total Energy =                       -341.8197356365661221
  Basis Set: (AUG-CC-PVTZ AUX)
    Blend: AUG-CC-PVTZ-RI
    Molecular point group: c1

    Geometry (in Angstrom), charge = 0, multiplicity = 1:

       Center              X                  Y                   Z               Mass
    ------------   -----------------  -----------------  -----------------  -----------------
         O           -1.357347149749    -1.150104161283     0.180207337138    15.994914619570
         O            1.444383850251     1.032990838717     0.290062337138    15.994914619570
         O            1.239133850251    -1.104138161283    -0.459396662862    15.994914619570
         C           -0.731830149749     0.140234438717     0.443886237138    12.000000000000
         C           -1.340672149749     1.202162838717    -0.465509662862    12.000000000000
         C            0.739203850251    -0.103846161283     0.013664337138    12.000000000000
         H           -0.734878149749     0.392391838717     1.438718337138     1.007825032230
         H           -1.316382049749     0.973254138717    -1.532419762862     1.007825032230
         H           -0.823204149749     2.150990838717    -0.313702662862     1.007825032230
         H           -2.392454149749     1.332523838717    -0.191615662862     1.007825032230
         H           -2.270477149749    -1.047883161283     0.499911337138     1.007825032230
         H            2.365462850251     0.833653838717     0.021313337138     1.007825032230

  Basis Set: AUG-CC-PVTZ
    Blend: AUG-CC-PVTZ
  Basis Set: (AUG-CC-PVTZ AUX)
    Blend: AUG-CC-PVTZ-JKFIT
	 Reference Energy          =    -341.8197356365661221 [Eh]
	 Singles Energy            =      -0.0000000000000000 [Eh]
	 Same-Spin Energy          =      -0.3270785624680109 [Eh]
	 Opposite-Spin Energy      =      -1.0138630167671223 [Eh]
	 Correlation Energy        =      -1.3409415792351331 [Eh]
	 Total Energy              =    -343.1606772158012291 [Eh]

	 ================> DF-SCS-MP2 Energies <==================
	-----------------------------------------------------------
	 SCS Same-Spin Scale       =       0.3333333333333333 [-]
	 SCS Opposite-Spin Scale   =       1.2000000000000000 [-]
	 SCS Same-Spin Energy      =      -0.1090261874893370 [Eh]
	 SCS Opposite-Spin Energy  =      -1.2166356201205468 [Eh]
	 SCS Correlation Energy    =      -1.3256618076098838 [Eh]
	 SCS Total Energy          =    -343.1453974441760124 [Eh]
	-----------------------------------------------------------

  Dipole Moment: [D]
     X:    -1.2382      Y:     2.8042      Z:     1.1071     Total:     3.2592

*** Psi4 exiting successfully. Buy a developer a beer!
