                               Psi4 1.4a3.dev225

  ==> Input File <==

--------------------------------------------------------------------------
#psi4
#
memory 32 gb

molecule  {
0 1
  O        1.3501930    -1.1356630    -0.2433140
  O       -1.5558540     0.8884770    -0.3921630
  O       -1.2169910    -1.1507310     0.5497490
  C        0.6629050     0.0959340    -0.3934650
  C        1.2207224     1.1548595     0.4722640
  C       -0.7811570    -0.1720460    -0.0200300
  H        0.6688980     0.4337360    -1.4405180
  H        1.2084250     0.8592770     1.5425200
  H        0.6765780     2.1206880     0.3977210
  H        2.2819130     1.3850820     0.2293300
  H        2.2793940    -0.9684070    -0.4767370
  H       -2.4621080     0.6654070    -0.0949290
units angstrom
no_reorient  #important for SAPT in psi4, default
symmetry c1  #important for SAPT in psi4, default
}

set PROPERTIES_ORIGIN ["COM"]
properties('MP2/aug-cc-pvtz', properties = ['dipole'])
--------------------------------------------------------------------------

    Molecular point group: c1
  Charge       = 0
  Multiplicity = 1
  Basis Set: AUG-CC-PVTZ
    Blend: AUG-CC-PVTZ
  Basis Set: (AUG-CC-PVTZ AUX)
    Blend: AUG-CC-PVTZ-JKFIT

    Orbital Energies [Eh]
    ---------------------

    Doubly Occupied:

       1A    -20.619738     2A    -20.575106     3A    -20.555106
       4A    -11.390714     5A    -11.311938     6A    -11.242641
       7A     -1.463923     8A     -1.381932     9A     -1.357487
      10A     -1.064099    11A     -0.919161    12A     -0.803069
      13A     -0.732206    14A     -0.704204    15A     -0.661015
      16A     -0.659449    17A     -0.617490    18A     -0.602879
      19A     -0.562138    20A     -0.549782    21A     -0.519077
      22A     -0.485477    23A     -0.469254    24A     -0.450391

  @DF-RHF Final Energy:  -341.82630365678824

   => Energetics <=

    Nuclear Repulsion Energy =            249.3982105862764627
    One-Electron Energy =                -963.0524759330212419
    Two-Electron Energy =                 371.8279616899565099
    Total Energy =                       -341.8263036567882409
  Basis Set: (AUG-CC-PVTZ AUX)
    Blend: AUG-CC-PVTZ-RI
    Molecular point group: c1

    Geometry (in Angstrom), charge = 0, multiplicity = 1:

       Center              X                  Y                   Z               Mass
    ------------   -----------------  -----------------  -----------------  -----------------
         O            1.403907881929    -1.081419542018    -0.237678590298    15.994914619570
         O           -1.502139118071     0.942720457982    -0.386527590298    15.994914619570
         O           -1.163276118071    -1.096487542018     0.555384409702    15.994914619570
         C            0.716619881929     0.150177457982    -0.387829590298    12.000000000000
         C            1.274437281929     1.209102957982     0.477899409702    12.000000000000
         C           -0.727442118071    -0.117802542018    -0.014394590298    12.000000000000
         H            0.722612881929     0.487979457982    -1.434882590298     1.007825032230
         H            1.262139881929     0.913520457982     1.548155409702     1.007825032230
         H            0.730292881929     2.174931457982     0.403356409702     1.007825032230
         H            2.335627881929     1.439325457982     0.234965409702     1.007825032230
         H            2.333108881929    -0.914163542018    -0.471101590298     1.007825032230
         H           -2.408393118071     0.719650457982    -0.089293590298     1.007825032230

  Basis Set: AUG-CC-PVTZ
    Blend: AUG-CC-PVTZ
  Basis Set: (AUG-CC-PVTZ AUX)
    Blend: AUG-CC-PVTZ-JKFIT
	 Reference Energy          =    -341.8263036567882409 [Eh]
	 Singles Energy            =      -0.0000000000000000 [Eh]
	 Same-Spin Energy          =      -0.3272075855124530 [Eh]
	 Opposite-Spin Energy      =      -1.0129131685707708 [Eh]
	 Correlation Energy        =      -1.3401207540832238 [Eh]
	 Total Energy              =    -343.1664244108714570 [Eh]

	 ================> DF-SCS-MP2 Energies <==================
	-----------------------------------------------------------
	 SCS Same-Spin Scale       =       0.3333333333333333 [-]
	 SCS Opposite-Spin Scale   =       1.2000000000000000 [-]
	 SCS Same-Spin Energy      =      -0.1090691951708177 [Eh]
	 SCS Opposite-Spin Energy  =      -1.2154958022849249 [Eh]
	 SCS Correlation Energy    =      -1.3245649974557425 [Eh]
	 SCS Total Energy          =    -343.1508686542439932 [Eh]
	-----------------------------------------------------------

  Dipole Moment: [D]
     X:     1.1939      Y:     2.8154      Z:    -0.9459     Total:     3.2010

*** Psi4 exiting successfully. Buy a developer a beer!
