                               Psi4 1.4a3.dev225

  ==> Input File <==

--------------------------------------------------------------------------
#psi4
#
memory 32 gb

molecule  {
0 1
  O        1.3501930    -1.1356630    -0.2433140
  O       -1.5558540     0.8884770    -0.3921630
  O       -1.2169910    -1.1507310     0.5497490
  C        0.6629050     0.0959340    -0.3934650
  C        1.2396040     1.1907030     0.5015680
  C       -0.7883405    -0.1881768    -0.0106388
  H        0.6688980     0.4337360    -1.4405180
  H        1.2084250     0.8592770     1.5425200
  H        0.6765780     2.1206880     0.3977210
  H        2.2819130     1.3850820     0.2293300
  H        2.2793940    -0.9684070    -0.4767370
  H       -2.4621080     0.6654070    -0.0949290
units angstrom
no_reorient  #important for SAPT in psi4, default
symmetry c1  #important for SAPT in psi4, default
}

set PROPERTIES_ORIGIN ["COM"]
properties('MP2/aug-cc-pvtz', properties = ['dipole'])
--------------------------------------------------------------------------

    Molecular point group: c1
  Charge       = 0
  Multiplicity = 1
  Basis Set: AUG-CC-PVTZ
    Blend: AUG-CC-PVTZ
  Basis Set: (AUG-CC-PVTZ AUX)
    Blend: AUG-CC-PVTZ-JKFIT

    Orbital Energies [Eh]
    ---------------------

    Doubly Occupied:

       1A    -20.615945     2A    -20.574711     3A    -20.558045
       4A    -11.388394     5A    -11.313070     6A    -11.239883
       7A     -1.464562     8A     -1.380715     9A     -1.365065
      10A     -1.052544    11A     -0.918718    12A     -0.798300
      13A     -0.730026    14A     -0.704313    15A     -0.660111
      16A     -0.654385    17A     -0.617162    18A     -0.602446
      19A     -0.562264    20A     -0.558389    21A     -0.524602
      22A     -0.491397    23A     -0.463244    24A     -0.450769

  @DF-RHF Final Energy:  -341.83013670297032

   => Energetics <=

    Nuclear Repulsion Energy =            248.6155294031069047
    One-Electron Energy =                -961.5132169705066190
    Two-Electron Energy =                 371.0675508644294496
    Total Energy =                       -341.8301367029703215
  Basis Set: (AUG-CC-PVTZ AUX)
    Blend: AUG-CC-PVTZ-RI
    Molecular point group: c1

    Geometry (in Angstrom), charge = 0, multiplicity = 1:

       Center              X                  Y                   Z               Mass
    ------------   -----------------  -----------------  -----------------  -----------------
         O            1.402348684343    -1.084046976751    -0.242836134037    15.994914619570
         O           -1.503698315657     0.940093023249    -0.391685134037    15.994914619570
         O           -1.164835315657    -1.099114976751     0.550226865963    15.994914619570
         C            0.715060684343     0.147550023249    -0.392987134037    12.000000000000
         C            1.291759684343     1.242319023249     0.502045865963    12.000000000000
         C           -0.736184815657    -0.136560776751    -0.010160934037    12.000000000000
         H            0.721053684343     0.485352023249    -1.440040134037     1.007825032230
         H            1.260580684343     0.910893023249     1.542997865963     1.007825032230
         H            0.728733684343     2.172304023249     0.398198865963     1.007825032230
         H            2.334068684343     1.436698023249     0.229807865963     1.007825032230
         H            2.331549684343    -0.916790976751    -0.476259134037     1.007825032230
         H           -2.409952315657     0.717023023249    -0.094451134037     1.007825032230

  Basis Set: AUG-CC-PVTZ
    Blend: AUG-CC-PVTZ
  Basis Set: (AUG-CC-PVTZ AUX)
    Blend: AUG-CC-PVTZ-JKFIT
	 Reference Energy          =    -341.8301367029703215 [Eh]
	 Singles Energy            =      -0.0000000000000000 [Eh]
	 Same-Spin Energy          =      -0.3263984703737894 [Eh]
	 Opposite-Spin Energy      =      -1.0117806712062680 [Eh]
	 Correlation Energy        =      -1.3381791415800575 [Eh]
	 Total Energy              =    -343.1683158445503636 [Eh]

	 ================> DF-SCS-MP2 Energies <==================
	-----------------------------------------------------------
	 SCS Same-Spin Scale       =       0.3333333333333333 [-]
	 SCS Opposite-Spin Scale   =       1.2000000000000000 [-]
	 SCS Same-Spin Energy      =      -0.1087994901245965 [Eh]
	 SCS Opposite-Spin Energy  =      -1.2141368054475217 [Eh]
	 SCS Correlation Energy    =      -1.3229362955721182 [Eh]
	 SCS Total Energy          =    -343.1530729985424273 [Eh]
	-----------------------------------------------------------

  Dipole Moment: [D]
     X:     1.1908      Y:     2.6677      Z:    -0.8979     Total:     3.0562

*** Psi4 exiting successfully. Buy a developer a beer!
