                               Psi4 1.3.2 release

  ==> Input File <==

--------------------------------------------------------------------------
#psi4
#
memory 32 gb

molecule  {
0 1
  O       -1.3597980    -1.1437690     0.1887320
  O        1.4419330     1.0393260     0.2985870
  O        1.2366830    -1.0978030    -0.4508720
  C       -0.7180600     0.1031850     0.3873850
  C       -1.3431230     1.2084980    -0.4569850
  C        0.7367530    -0.0975110     0.0221890
  H       -0.7355780     0.3718708     1.3509327
  H       -1.2930290     0.9302150    -1.5111840
  H       -0.8256550     2.1573260    -0.3051780
  H       -2.3949050     1.3388590    -0.1830910
  H       -2.2729280    -1.0415480     0.5084360
  H        2.3630120     0.8399890     0.0298380
units angstrom
no_reorient  #important for SAPT in psi4, default
symmetry c1  #important for SAPT in psi4, default
}

set PROPERTIES_ORIGIN ["COM"]
properties('MP2/aug-cc-pvtz', properties = ['dipole'])
--------------------------------------------------------------------------

    Molecular point group: c1
  Charge       = 0
  Multiplicity = 1
  Basis Set: AUG-CC-PVTZ
    Blend: AUG-CC-PVTZ
  Basis Set: (AUG-CC-PVTZ AUX)
    Blend: AUG-CC-PVTZ-JKFIT

    Orbital Energies [Eh]
    ---------------------

    Doubly Occupied:

       1A    -20.620035     2A    -20.573633     3A    -20.554471
       4A    -11.389827     5A    -11.301406     6A    -11.238233
       7A     -1.463372     8A     -1.381143     9A     -1.356642
      10A     -1.060612    11A     -0.923589    12A     -0.808521
      13A     -0.743753    14A     -0.705688    15A     -0.662673
      16A     -0.650302    17A     -0.614638    18A     -0.602639
      19A     -0.564981    20A     -0.557756    21A     -0.525689
      22A     -0.485190    23A     -0.466467    24A     -0.451518

  @DF-RHF Final Energy:  -341.82368510221278

   => Energetics <=

    Nuclear Repulsion Energy =            249.2543598418238275
    One-Electron Energy =                -962.7505369062846512
    Two-Electron Energy =                 371.6724919622481025
    Total Energy =                       -341.8236851022127780
  Basis Set: (AUG-CC-PVTZ AUX)
    Blend: AUG-CC-PVTZ-RI
    Molecular point group: c1

    Geometry (in Angstrom), charge = 0, multiplicity = 1:

       Center              X                  Y                   Z               Mass
    ------------   -----------------  -----------------  -----------------  -----------------
         O           -1.359817641061    -1.143468251425     0.189810223938    15.994914619570
         O            1.441913358939     1.039626748575     0.299665223938    15.994914619570
         O            1.236663358939    -1.097502251425    -0.449793776062    15.994914619570
         C           -0.718079641061     0.103485748575     0.388463223938    12.000000000000
         C           -1.343142641061     1.208798748575    -0.455906776062    12.000000000000
         C            0.736733358939    -0.097210251425     0.023267223938    12.000000000000
         H           -0.735597641061     0.372171548575     1.352010923938     1.007825032230
         H           -1.293048641061     0.930515748575    -1.510105776062     1.007825032230
         H           -0.825674641061     2.157626748575    -0.304099776062     1.007825032230
         H           -2.394924641061     1.339159748575    -0.182012776062     1.007825032230
         H           -2.272947641061    -1.041247251425     0.509514223938     1.007825032230
         H            2.362992358939     0.840289748575     0.030916223938     1.007825032230

  Basis Set: AUG-CC-PVTZ
    Blend: AUG-CC-PVTZ
  Basis Set: (AUG-CC-PVTZ AUX)
    Blend: AUG-CC-PVTZ-JKFIT
	 Reference Energy          =    -341.8236851022127780 [Eh]
	 Singles Energy            =      -0.0000000000000000 [Eh]
	 Same-Spin Energy          =      -0.3267602277894350 [Eh]
	 Opposite-Spin Energy      =      -1.0119642883759274 [Eh]
	 Correlation Energy        =      -1.3387245161653625 [Eh]
	 Total Energy              =    -343.1624096183781489 [Eh]

	 ================> DF-SCS-MP2 Energies <==================
	-----------------------------------------------------------
	 SCS Same-Spin Scale       =       0.3333333333333333 [-]
	 SCS Opposite-Spin Scale   =       1.2000000000000000 [-]
	 SCS Same-Spin Energy      =      -0.1089200759298116 [Eh]
	 SCS Opposite-Spin Energy  =      -1.2143571460511129 [Eh]
	 SCS Correlation Energy    =      -1.3232772219809246 [Eh]
	 SCS Total Energy          =    -343.1469623241936802 [Eh]
	-----------------------------------------------------------

  Dipole Moment: [D]
     X:    -1.2969      Y:     2.7397      Z:     1.0977     Total:     3.2238

*** Psi4 exiting successfully. Buy a developer a beer!
