                               Psi4 1.3.2 release

  ==> Input File <==

--------------------------------------------------------------------------
#psi4
#
memory 32 gb

molecule  {
0 1
  O       -1.3597980    -1.1437690     0.1887320
  O        1.4419330     1.0393260     0.2985870
  O        1.2366830    -1.0978030    -0.4508720
  C       -0.6563642     0.0738185     0.3585744
  C       -1.3431230     1.2084980    -0.4569850
  C        0.7367530    -0.0975110     0.0221890
  H       -0.7373290     0.3987270     1.4472430
  H       -1.2930290     0.9302150    -1.5111840
  H       -0.8256550     2.1573260    -0.3051780
  H       -2.3949050     1.3388590    -0.1830910
  H       -2.2814562    -1.0900773     0.4955373
  H        2.3630120     0.8399890     0.0298380
units angstrom
no_reorient  #important for SAPT in psi4, default
symmetry c1  #important for SAPT in psi4, default
}

set PROPERTIES_ORIGIN ["COM"]
properties('MP2/aug-cc-pvtz', properties = ['dipole'])
--------------------------------------------------------------------------

    Molecular point group: c1
  Charge       = 0
  Multiplicity = 1
  Basis Set: AUG-CC-PVTZ
    Blend: AUG-CC-PVTZ
  Basis Set: (AUG-CC-PVTZ AUX)
    Blend: AUG-CC-PVTZ-JKFIT

    Orbital Energies [Eh]
    ---------------------

    Doubly Occupied:

       1A    -20.620688     2A    -20.571670     3A    -20.554802
       4A    -11.389795     5A    -11.314729     6A    -11.241245
       7A     -1.465897     8A     -1.378861     9A     -1.356717
      10A     -1.058860    11A     -0.931186    12A     -0.804429
      13A     -0.726849    14A     -0.704917    15A     -0.670317
      16A     -0.653899    17A     -0.610308    18A     -0.605425
      19A     -0.563464    20A     -0.557003    21A     -0.514954
      22A     -0.486404    23A     -0.458088    24A     -0.451416

  @DF-RHF Final Energy:  -341.82256359776659

   => Energetics <=

    Nuclear Repulsion Energy =            249.3576081853991298
    One-Electron Energy =                -962.9764974253768059
    Two-Electron Energy =                 371.7963256422110589
    Total Energy =                       -341.8225635977665888
  Basis Set: (AUG-CC-PVTZ AUX)
    Blend: AUG-CC-PVTZ-RI
    Molecular point group: c1

    Geometry (in Angstrom), charge = 0, multiplicity = 1:

       Center              X                  Y                   Z               Mass
    ------------   -----------------  -----------------  -----------------  -----------------
         O           -1.367925785339    -1.139311485336     0.192716566025    15.994914619570
         O            1.433805214661     1.043783514664     0.302571566025    15.994914619570
         O            1.228555214661    -1.093345485336    -0.446887433975    15.994914619570
         C           -0.664491985339     0.078276014664     0.362558966025    12.000000000000
         C           -1.351250785339     1.212955514664    -0.453000433975    12.000000000000
         C            0.728625214661    -0.093053485336     0.026173566025    12.000000000000
         H           -0.745456785339     0.403184514664     1.451227566025     1.007825032230
         H           -1.301156785339     0.934672514664    -1.507199433975     1.007825032230
         H           -0.833782785339     2.161783514664    -0.301193433975     1.007825032230
         H           -2.403032785339     1.343316514664    -0.179106433975     1.007825032230
         H           -2.289583985339    -1.085619785336     0.499521866025     1.007825032230
         H            2.354884214661     0.844446514664     0.033822566025     1.007825032230

  Basis Set: AUG-CC-PVTZ
    Blend: AUG-CC-PVTZ
  Basis Set: (AUG-CC-PVTZ AUX)
    Blend: AUG-CC-PVTZ-JKFIT
	 Reference Energy          =    -341.8225635977665888 [Eh]
	 Singles Energy            =      -0.0000000000000000 [Eh]
	 Same-Spin Energy          =      -0.3270161341447091 [Eh]
	 Opposite-Spin Energy      =      -1.0126019653276184 [Eh]
	 Correlation Energy        =      -1.3396180994723275 [Eh]
	 Total Energy              =    -343.1621816972389070 [Eh]

	 ================> DF-SCS-MP2 Energies <==================
	-----------------------------------------------------------
	 SCS Same-Spin Scale       =       0.3333333333333333 [-]
	 SCS Opposite-Spin Scale   =       1.2000000000000000 [-]
	 SCS Same-Spin Energy      =      -0.1090053780482364 [Eh]
	 SCS Opposite-Spin Energy  =      -1.2151223583931421 [Eh]
	 SCS Correlation Energy    =      -1.3241277364413784 [Eh]
	 SCS Total Energy          =    -343.1466913342079579 [Eh]
	-----------------------------------------------------------

  Dipole Moment: [D]
     X:    -1.3552      Y:     2.6566      Z:     1.0450     Total:     3.1600

*** Psi4 exiting successfully. Buy a developer a beer!
