                               Psi4 1.4a3.dev225

  ==> Input File <==

--------------------------------------------------------------------------
#psi4
#
memory 32 gb

molecule  {
0 1
  O        1.3501930    -1.1356630    -0.2433140
  O       -1.5558540     0.8884770    -0.3921630
  O       -1.2169910    -1.1507310     0.5497490
  C        0.6629050     0.0959340    -0.3934650
  C        1.2396040     1.1907030     0.5015680
  C       -0.8095332    -0.1332003    -0.0336608
  H        0.6688980     0.4337360    -1.4405180
  H        1.2084250     0.8592770     1.5425200
  H        0.6765780     2.1206880     0.3977210
  H        2.2819130     1.3850820     0.2293300
  H        2.2793940    -0.9684070    -0.4767370
  H       -2.4621080     0.6654070    -0.0949290
units angstrom
no_reorient  #important for SAPT in psi4, default
symmetry c1  #important for SAPT in psi4, default
}

set PROPERTIES_ORIGIN ["COM"]
properties('MP2/aug-cc-pvtz', properties = ['dipole'])
--------------------------------------------------------------------------

    Molecular point group: c1
  Charge       = 0
  Multiplicity = 1
  Basis Set: AUG-CC-PVTZ
    Blend: AUG-CC-PVTZ
  Basis Set: (AUG-CC-PVTZ AUX)
    Blend: AUG-CC-PVTZ-JKFIT

    Orbital Energies [Eh]
    ---------------------

    Doubly Occupied:

       1A    -20.633672     2A    -20.573914     3A    -20.546486
       4A    -11.391498     5A    -11.313024     6A    -11.239857
       7A     -1.482910     8A     -1.379338     9A     -1.344578
      10A     -1.053441    11A     -0.922315    12A     -0.816775
      13A     -0.725887    14A     -0.711489    15A     -0.663770
      16A     -0.657565    17A     -0.621352    18A     -0.601407
      19A     -0.561646    20A     -0.554213    21A     -0.519256
      22A     -0.476169    23A     -0.461317    24A     -0.445243

  @DF-RHF Final Energy:  -341.82548320763897

   => Energetics <=

    Nuclear Repulsion Energy =            248.4990541734145779
    One-Electron Energy =                -961.2548322143514952
    Two-Electron Energy =                 370.9302948332979213
    Total Energy =                       -341.8254832076389675
  Basis Set: (AUG-CC-PVTZ AUX)
    Blend: AUG-CC-PVTZ-RI
    Molecular point group: c1

    Geometry (in Angstrom), charge = 0, multiplicity = 1:

       Center              X                  Y                   Z               Mass
    ------------   -----------------  -----------------  -----------------  -----------------
         O            1.405173382942    -1.091374596284    -0.239767614635    15.994914619570
         O           -1.500873617058     0.932765403716    -0.388616614635    15.994914619570
         O           -1.162010617058    -1.106442596284     0.553295385365    15.994914619570
         C            0.717885382942     0.140222403716    -0.389918614635    12.000000000000
         C            1.294584382942     1.234991403716     0.505114385365    12.000000000000
         C           -0.754552817058    -0.088911896284    -0.030114414635    12.000000000000
         H            0.723878382942     0.478024403716    -1.436971614635     1.007825032230
         H            1.263405382942     0.903565403716     1.546066385365     1.007825032230
         H            0.731558382942     2.164976403716     0.401267385365     1.007825032230
         H            2.336893382942     1.429370403716     0.232876385365     1.007825032230
         H            2.334374382942    -0.924118596284    -0.473190614635     1.007825032230
         H           -2.407127617058     0.709695403716    -0.091382614635     1.007825032230

  Basis Set: AUG-CC-PVTZ
    Blend: AUG-CC-PVTZ
  Basis Set: (AUG-CC-PVTZ AUX)
    Blend: AUG-CC-PVTZ-JKFIT
	 Reference Energy          =    -341.8254832076389675 [Eh]
	 Singles Energy            =      -0.0000000000000000 [Eh]
	 Same-Spin Energy          =      -0.3270936423509977 [Eh]
	 Opposite-Spin Energy      =      -1.0126811041049666 [Eh]
	 Correlation Energy        =      -1.3397747464559644 [Eh]
	 Total Energy              =    -343.1652579540949546 [Eh]

	 ================> DF-SCS-MP2 Energies <==================
	-----------------------------------------------------------
	 SCS Same-Spin Scale       =       0.3333333333333333 [-]
	 SCS Opposite-Spin Scale   =       1.2000000000000000 [-]
	 SCS Same-Spin Energy      =      -0.1090312141169992 [Eh]
	 SCS Opposite-Spin Energy  =      -1.2152173249259599 [Eh]
	 SCS Correlation Energy    =      -1.3242485390429590 [Eh]
	 SCS Total Energy          =    -343.1497317466819368 [Eh]
	-----------------------------------------------------------

  Dipole Moment: [D]
     X:     0.9997      Y:     3.1045      Z:    -1.0856     Total:     3.4374

*** Psi4 exiting successfully. Buy a developer a beer!
