                               Psi4 1.3.2 release

  ==> Input File <==

--------------------------------------------------------------------------
#psi4
#
memory 32 gb

molecule  {
0 1
  O       -1.3490420    -1.1486666     0.1851124
  O        1.4419330     1.0393260     0.2985870
  O        1.2366830    -1.0978030    -0.4508720
  C       -0.7180600     0.1031850     0.3873850
  C       -1.3431230     1.2084980    -0.4569850
  C        0.7342297    -0.1101531     0.0193232
  H       -0.7373290     0.3987270     1.4472430
  H       -1.2930290     0.9302150    -1.5111840
  H       -0.8256550     2.1573260    -0.3051780
  H       -2.3949050     1.3388590    -0.1830910
  H       -2.2729280    -1.0415480     0.5084360
  H        2.3630120     0.8399890     0.0298380
units angstrom
no_reorient  #important for SAPT in psi4, default
symmetry c1  #important for SAPT in psi4, default
}

set PROPERTIES_ORIGIN ["COM"]
properties('MP2/aug-cc-pvtz', properties = ['dipole'])
--------------------------------------------------------------------------

    Molecular point group: c1
  Charge       = 0
  Multiplicity = 1
  Basis Set: AUG-CC-PVTZ
    Blend: AUG-CC-PVTZ
  Basis Set: (AUG-CC-PVTZ AUX)
    Blend: AUG-CC-PVTZ-JKFIT

    Orbital Energies [Eh]
    ---------------------

    Doubly Occupied:

       1A    -20.615724     2A    -20.576684     3A    -20.556988
       4A    -11.389350     5A    -11.313301     6A    -11.239097
       7A     -1.461068     8A     -1.380041     9A     -1.359829
      10A     -1.054619    11A     -0.920691    12A     -0.797712
      13A     -0.731531    14A     -0.703848    15A     -0.661112
      16A     -0.648845    17A     -0.613315    18A     -0.601518
      19A     -0.565252    20A     -0.558825    21A     -0.523180
      22A     -0.488106    23A     -0.463700    24A     -0.451870

  @DF-RHF Final Energy:  -341.82818254405078

   => Energetics <=

    Nuclear Repulsion Energy =            248.7603319344959516
    One-Electron Energy =                -961.8246169821895819
    Two-Electron Energy =                 371.2361025036428259
    Total Energy =                       -341.8281825440507760
  Basis Set: (AUG-CC-PVTZ AUX)
    Blend: AUG-CC-PVTZ-RI
    Molecular point group: c1

    Geometry (in Angstrom), charge = 0, multiplicity = 1:

       Center              X                  Y                   Z               Mass
    ------------   -----------------  -----------------  -----------------  -----------------
         O           -1.350616615690    -1.146111361544     0.186137541095    15.994914619570
         O            1.440358384310     1.041881238456     0.299612141095    15.994914619570
         O            1.235108384310    -1.095247761544    -0.449846858905    15.994914619570
         C           -0.719634615690     0.105740238456     0.388410141095    12.000000000000
         C           -1.344697615690     1.211053238456    -0.455959858905    12.000000000000
         C            0.732655084310    -0.107597861544     0.020348341095    12.000000000000
         H           -0.738903615690     0.401282238456     1.448268141095     1.007825032230
         H           -1.294603615690     0.932770238456    -1.510158858905     1.007825032230
         H           -0.827229615690     2.159881238456    -0.304152858905     1.007825032230
         H           -2.396479615690     1.341414238456    -0.182065858905     1.007825032230
         H           -2.274502615690    -1.038992761544     0.509461141095     1.007825032230
         H            2.361437384310     0.842544238456     0.030863141095     1.007825032230

  Basis Set: AUG-CC-PVTZ
    Blend: AUG-CC-PVTZ
  Basis Set: (AUG-CC-PVTZ AUX)
    Blend: AUG-CC-PVTZ-JKFIT
	 Reference Energy          =    -341.8281825440507760 [Eh]
	 Singles Energy            =      -0.0000000000000000 [Eh]
	 Same-Spin Energy          =      -0.3269161397518785 [Eh]
	 Opposite-Spin Energy      =      -1.0128112279181720 [Eh]
	 Correlation Energy        =      -1.3397273676700505 [Eh]
	 Total Energy              =    -343.1679099117208125 [Eh]

	 ================> DF-SCS-MP2 Energies <==================
	-----------------------------------------------------------
	 SCS Same-Spin Scale       =       0.3333333333333333 [-]
	 SCS Opposite-Spin Scale   =       1.2000000000000000 [-]
	 SCS Same-Spin Energy      =      -0.1089720465839595 [Eh]
	 SCS Opposite-Spin Energy  =      -1.2153734735018065 [Eh]
	 SCS Correlation Energy    =      -1.3243455200857659 [Eh]
	 SCS Total Energy          =    -343.1525280641365612 [Eh]
	-----------------------------------------------------------

  Dipole Moment: [D]
     X:    -1.3628      Y:     2.6179      Z:     1.0315     Total:     3.1265

*** Psi4 exiting successfully. Buy a developer a beer!
