                               Psi4 1.3.2 release

  ==> Input File <==

--------------------------------------------------------------------------
#psi4
#
memory 32 gb

molecule  {
0 1
  O       -1.3597980    -1.1437690     0.1887320
  O        1.5007547     1.0063960     0.2747040
  O        1.2366830    -1.0978030    -0.4508720
  C       -0.7322334     0.0291406     0.3630205
  C       -1.3431230     1.2084980    -0.4569850
  C        0.7367530    -0.0975110     0.0221890
  H       -0.7373290     0.3987270     1.4472430
  H       -1.2930290     0.9302150    -1.5111840
  H       -0.8256550     2.1573260    -0.3051780
  H       -2.3949050     1.3388590    -0.1830910
  H       -2.2729280    -1.0415480     0.5084360
  H        2.3630120     0.8399890     0.0298380
units angstrom
no_reorient  #important for SAPT in psi4, default
symmetry c1  #important for SAPT in psi4, default
}

set PROPERTIES_ORIGIN ["COM"]
properties('MP2/aug-cc-pvtz', properties = ['dipole'])
--------------------------------------------------------------------------

    Molecular point group: c1
  Charge       = 0
  Multiplicity = 1
  Basis Set: AUG-CC-PVTZ
    Blend: AUG-CC-PVTZ
  Basis Set: (AUG-CC-PVTZ AUX)
    Blend: AUG-CC-PVTZ-JKFIT

    Orbital Energies [Eh]
    ---------------------

    Doubly Occupied:

       1A    -20.609904     2A    -20.584957     3A    -20.548356
       4A    -11.388395     5A    -11.319588     6A    -11.239386
       7A     -1.469809     8A     -1.415563     9A     -1.357603
      10A     -1.048559    11A     -0.923645    12A     -0.825086
      13A     -0.733468    14A     -0.701691    15A     -0.686027
      16A     -0.656764    17A     -0.616749    18A     -0.607213
      19A     -0.567626    20A     -0.557860    21A     -0.523572
      22A     -0.482611    23A     -0.450436    24A     -0.446162

  @DF-RHF Final Energy:  -341.82365222683615

   => Energetics <=

    Nuclear Repulsion Energy =            249.2566949876990918
    One-Electron Energy =                -962.6386354115555832
    Two-Electron Energy =                 371.5582881970203175
    Total Energy =                       -341.8236522268361455
  Basis Set: (AUG-CC-PVTZ AUX)
    Blend: AUG-CC-PVTZ-RI
    Molecular point group: c1

    Geometry (in Angstrom), charge = 0, multiplicity = 1:

       Center              X                  Y                   Z               Mass
    ------------   -----------------  -----------------  -----------------  -----------------
         O           -1.368359106106    -1.128049470267     0.196222594834    15.994914619570
         O            1.492193593894     1.022115529733     0.282194594834    15.994914619570
         O            1.228121893894    -1.082083470267    -0.443381405166    15.994914619570
         C           -0.740794506106     0.044860129733     0.370511094834    12.000000000000
         C           -1.351684106106     1.224217529733    -0.449494405166    12.000000000000
         C            0.728191893894    -0.081791470267     0.029679594834    12.000000000000
         H           -0.745890106106     0.414446529733     1.454733594834     1.007825032230
         H           -1.301590106106     0.945934529733    -1.503693405166     1.007825032230
         H           -0.834216106106     2.173045529733    -0.297687405166     1.007825032230
         H           -2.403466106106     1.354578529733    -0.175600405166     1.007825032230
         H           -2.281489106106    -1.025828470267     0.515926594834     1.007825032230
         H            2.354450893894     0.855708529733     0.037328594834     1.007825032230

  Basis Set: AUG-CC-PVTZ
    Blend: AUG-CC-PVTZ
  Basis Set: (AUG-CC-PVTZ AUX)
    Blend: AUG-CC-PVTZ-JKFIT
	 Reference Energy          =    -341.8236522268361455 [Eh]
	 Singles Energy            =      -0.0000000000000000 [Eh]
	 Same-Spin Energy          =      -0.3254049391900170 [Eh]
	 Opposite-Spin Energy      =      -1.0085287483024508 [Eh]
	 Correlation Energy        =      -1.3339336874924679 [Eh]
	 Total Energy              =    -343.1575859143285925 [Eh]

	 ================> DF-SCS-MP2 Energies <==================
	-----------------------------------------------------------
	 SCS Same-Spin Scale       =       0.3333333333333333 [-]
	 SCS Opposite-Spin Scale   =       1.2000000000000000 [-]
	 SCS Same-Spin Energy      =      -0.1084683130633390 [Eh]
	 SCS Opposite-Spin Energy  =      -1.2102344979629409 [Eh]
	 SCS Correlation Energy    =      -1.3187028110262800 [Eh]
	 SCS Total Energy          =    -343.1423550378624441 [Eh]
	-----------------------------------------------------------

  Dipole Moment: [D]
     X:    -1.6364      Y:     2.4854      Z:     1.0733     Total:     3.1634

*** Psi4 exiting successfully. Buy a developer a beer!
