                               Psi4 1.4a3.dev225

  ==> Input File <==

--------------------------------------------------------------------------
#psi4
#
memory 32 gb

molecule  {
0 1
  O        1.3501930    -1.1356630    -0.2433140
  O       -1.5558540     0.8884770    -0.3921630
  O       -1.2169910    -1.1507310     0.5497490
  C        0.6629050     0.0959340    -0.3934650
  C        1.2396040     1.1907030     0.5015680
  C       -0.7811570    -0.1720460    -0.0200300
  H        0.6688980     0.4337360    -1.4405180
  H        1.2084250     0.8592770     1.5425200
  H        0.6765780     2.1206880     0.3977210
  H        2.2819130     1.3850820     0.2293300
  H        2.2793940    -0.9684070    -0.4767370
  H       -2.4436034     0.6699618    -0.1009981
units angstrom
no_reorient  #important for SAPT in psi4, default
symmetry c1  #important for SAPT in psi4, default
}

set PROPERTIES_ORIGIN ["COM"]
properties('MP2/aug-cc-pvtz', properties = ['dipole'])
--------------------------------------------------------------------------

    Molecular point group: c1
  Charge       = 0
  Multiplicity = 1
  Basis Set: AUG-CC-PVTZ
    Blend: AUG-CC-PVTZ
  Basis Set: (AUG-CC-PVTZ AUX)
    Blend: AUG-CC-PVTZ-JKFIT

    Orbital Energies [Eh]
    ---------------------

    Doubly Occupied:

       1A    -20.618175     2A    -20.575520     3A    -20.554997
       4A    -11.390657     5A    -11.313894     6A    -11.241042
       7A     -1.466423     8A     -1.381789     9A     -1.358495
      10A     -1.056223    11A     -0.923332    12A     -0.805807
      13A     -0.730725    14A     -0.704712    15A     -0.660655
      16A     -0.655052    17A     -0.618088    18A     -0.603220
      19A     -0.563144    20A     -0.557919    21A     -0.524021
      22A     -0.485873    23A     -0.463941    24A     -0.451430

  @DF-RHF Final Energy:  -341.83019077153295

   => Energetics <=

    Nuclear Repulsion Energy =            248.7064185409069239
    One-Electron Energy =                -961.6629469669898072
    Two-Electron Energy =                 371.1263376545499000
    Total Energy =                       -341.8301907715329548
  Basis Set: (AUG-CC-PVTZ AUX)
    Blend: AUG-CC-PVTZ-RI
    Molecular point group: c1

    Geometry (in Angstrom), charge = 0, multiplicity = 1:

       Center              X                  Y                   Z               Mass
    ------------   -----------------  -----------------  -----------------  -----------------
         O            1.401184078921    -1.086247979892    -0.241516476642    15.994914619570
         O           -1.504862921079     0.937892020108    -0.390365476642    15.994914619570
         O           -1.165999921079    -1.101315979892     0.551546523358    15.994914619570
         C            0.713896078921     0.145349020108    -0.391667476642    12.000000000000
         C            1.290595078921     1.240118020108     0.503365523358    12.000000000000
         C           -0.730165921079    -0.122630979892    -0.018232476642    12.000000000000
         H            0.719889078921     0.483151020108    -1.438720476642     1.007825032230
         H            1.259416078921     0.908692020108     1.544317523358     1.007825032230
         H            0.727569078921     2.170103020108     0.399518523358     1.007825032230
         H            2.332904078921     1.434497020108     0.231127523358     1.007825032230
         H            2.330385078921    -0.918991979892    -0.474939476642     1.007825032230
         H           -2.392612321079     0.719376820108    -0.099200576642     1.007825032230

  Basis Set: AUG-CC-PVTZ
    Blend: AUG-CC-PVTZ
  Basis Set: (AUG-CC-PVTZ AUX)
    Blend: AUG-CC-PVTZ-JKFIT
	 Reference Energy          =    -341.8301907715329548 [Eh]
	 Singles Energy            =      -0.0000000000000000 [Eh]
	 Same-Spin Energy          =      -0.3265391934403887 [Eh]
	 Opposite-Spin Energy      =      -1.0118902777366952 [Eh]
	 Correlation Energy        =      -1.3384294711770839 [Eh]
	 Total Energy              =    -343.1686202427100625 [Eh]

	 ================> DF-SCS-MP2 Energies <==================
	-----------------------------------------------------------
	 SCS Same-Spin Scale       =       0.3333333333333333 [-]
	 SCS Opposite-Spin Scale   =       1.2000000000000000 [-]
	 SCS Same-Spin Energy      =      -0.1088463978134629 [Eh]
	 SCS Opposite-Spin Energy  =      -1.2142683332840341 [Eh]
	 SCS Correlation Energy    =      -1.3231147310974969 [Eh]
	 SCS Total Energy          =    -343.1533055026304737 [Eh]
	-----------------------------------------------------------

  Dipole Moment: [D]
     X:     1.2389      Y:     2.7940      Z:    -0.9622     Total:     3.2042

*** Psi4 exiting successfully. Buy a developer a beer!
