                               Psi4 1.3.2 release

  ==> Input File <==

--------------------------------------------------------------------------
#psi4
#
memory 32 gb

molecule  {
0 1
  O       -1.3597980    -1.1437690     0.1887320
  O        1.4419330     1.0393260     0.2985870
  O        1.2366830    -1.0978030    -0.4508720
  C       -0.7180600     0.1031850     0.3873850
  C       -1.2611432     1.0635313    -0.3462421
  C        0.7367530    -0.0975110     0.0221890
  H       -0.7373290     0.3987270     1.4472430
  H       -1.2930290     0.9302150    -1.5111840
  H       -0.8256550     2.1573260    -0.3051780
  H       -2.3949050     1.3388590    -0.1830910
  H       -2.2729280    -1.0415480     0.5084360
  H        2.3630120     0.8399890     0.0298380
units angstrom
no_reorient  #important for SAPT in psi4, default
symmetry c1  #important for SAPT in psi4, default
}

set PROPERTIES_ORIGIN ["COM"]
properties('MP2/aug-cc-pvtz', properties = ['dipole'])
--------------------------------------------------------------------------

    Molecular point group: c1
  Charge       = 0
  Multiplicity = 1
  Basis Set: AUG-CC-PVTZ
    Blend: AUG-CC-PVTZ
  Basis Set: (AUG-CC-PVTZ AUX)
    Blend: AUG-CC-PVTZ-JKFIT

    Orbital Energies [Eh]
    ---------------------

    Doubly Occupied:

       1A    -20.620841     2A    -20.574167     3A    -20.556865
       4A    -11.392611     5A    -11.304073     6A    -11.249603
       7A     -1.465314     8A     -1.386216     9A     -1.358933
      10A     -1.098136    11A     -0.910405    12A     -0.803850
      13A     -0.741179    14A     -0.708433    15A     -0.679677
      16A     -0.663125    17A     -0.617287    18A     -0.608430
      19A     -0.568069    20A     -0.525879    21A     -0.491224
      22A     -0.485447    23A     -0.479939    24A     -0.442797

  @DF-RHF Final Energy:  -341.77838820132291

   => Energetics <=

    Nuclear Repulsion Energy =            252.1758848592864410
    One-Electron Energy =                -968.4435406232329342
    Two-Electron Energy =                 374.4892675626236382
    Total Energy =                       -341.7783882013229118
  Basis Set: (AUG-CC-PVTZ AUX)
    Blend: AUG-CC-PVTZ-RI
    Molecular point group: c1

    Geometry (in Angstrom), charge = 0, multiplicity = 1:

       Center              X                  Y                   Z               Mass
    ------------   -----------------  -----------------  -----------------  -----------------
         O           -1.370724832231    -1.124446793843     0.173971593484    15.994914619570
         O            1.431006167769     1.058648206157     0.283826593484    15.994914619570
         O            1.225756167769    -1.078480793843    -0.465632406516    15.994914619570
         C           -0.728986832231     0.122507206157     0.372624593484    12.000000000000
         C           -1.272070032231     1.082853506157    -0.361002506516    12.000000000000
         C            0.725826167769    -0.078188793843     0.007428593484    12.000000000000
         H           -0.748255832231     0.418049206157     1.432482593484     1.007825032230
         H           -1.303955832231     0.949537206157    -1.525944406516     1.007825032230
         H           -0.836581832231     2.176648206157    -0.319938406516     1.007825032230
         H           -2.405831832231     1.358181206157    -0.197851406516     1.007825032230
         H           -2.283854832231    -1.022225793843     0.493675593484     1.007825032230
         H            2.352085167769     0.859311206157     0.015077593484     1.007825032230

  Basis Set: AUG-CC-PVTZ
    Blend: AUG-CC-PVTZ
  Basis Set: (AUG-CC-PVTZ AUX)
    Blend: AUG-CC-PVTZ-JKFIT
	 Reference Energy          =    -341.7783882013229118 [Eh]
	 Singles Energy            =      -0.0000000000000000 [Eh]
	 Same-Spin Energy          =      -0.3298834459186687 [Eh]
	 Opposite-Spin Energy      =      -1.0166032068951314 [Eh]
	 Correlation Energy        =      -1.3464866528138002 [Eh]
	 Total Energy              =    -343.1248748541366922 [Eh]

	 ================> DF-SCS-MP2 Energies <==================
	-----------------------------------------------------------
	 SCS Same-Spin Scale       =       0.3333333333333333 [-]
	 SCS Opposite-Spin Scale   =       1.2000000000000000 [-]
	 SCS Same-Spin Energy      =      -0.1099611486395562 [Eh]
	 SCS Opposite-Spin Energy  =      -1.2199238482741577 [Eh]
	 SCS Correlation Energy    =      -1.3298849969137139 [Eh]
	 SCS Total Energy          =    -343.1082731982366454 [Eh]
	-----------------------------------------------------------

  Dipole Moment: [D]
     X:    -1.2273      Y:     2.8019      Z:     1.0274     Total:     3.2269

*** Psi4 exiting successfully. Buy a developer a beer!
