                               Psi4 1.3.2 release

  ==> Input File <==

--------------------------------------------------------------------------
#psi4
#
memory 32 gb

molecule  {
0 1
  O       -1.3597980    -1.1437690     0.1887320
  O        1.4419330     1.0393260     0.2985870
  O        1.2366830    -1.0978030    -0.4508720
  C       -0.7180600     0.1031850     0.3873850
  C       -1.3431230     1.2084980    -0.4569850
  C        0.7883751    -0.0142898     0.0424225
  H       -0.7373290     0.3987270     1.4472430
  H       -1.2930290     0.9302150    -1.5111840
  H       -0.8256550     2.1573260    -0.3051780
  H       -2.3949050     1.3388590    -0.1830910
  H       -2.2729280    -1.0415480     0.5084360
  H        2.3630120     0.8399890     0.0298380
units angstrom
no_reorient  #important for SAPT in psi4, default
symmetry c1  #important for SAPT in psi4, default
}

set PROPERTIES_ORIGIN ["COM"]
properties('MP2/aug-cc-pvtz', properties = ['dipole'])
--------------------------------------------------------------------------

    Molecular point group: c1
  Charge       = 0
  Multiplicity = 1
  Basis Set: AUG-CC-PVTZ
    Blend: AUG-CC-PVTZ
  Basis Set: (AUG-CC-PVTZ AUX)
    Blend: AUG-CC-PVTZ-JKFIT

    Orbital Energies [Eh]
    ---------------------

    Doubly Occupied:

       1A    -20.647896     2A    -20.572313     3A    -20.538236
       4A    -11.392996     5A    -11.312345     6A    -11.237232
       7A     -1.511169     8A     -1.377179     9A     -1.326793
      10A     -1.051937    11A     -0.923936    12A     -0.830701
      13A     -0.728656    14A     -0.720282    15A     -0.666391
      16A     -0.666164    17A     -0.621136    18A     -0.598078
      19A     -0.561992    20A     -0.550901    21A     -0.512006
      22A     -0.466986    23A     -0.456784    24A     -0.437495

  @DF-RHF Final Energy:  -341.81427489513715

   => Energetics <=

    Nuclear Repulsion Energy =            248.6016600480558338
    One-Electron Energy =                -961.4126667452253514
    Two-Electron Energy =                 370.9967318020324001
    Total Energy =                       -341.8142748951371459
  Basis Set: (AUG-CC-PVTZ AUX)
    Blend: AUG-CC-PVTZ-RI
    Molecular point group: c1

    Geometry (in Angstrom), charge = 0, multiplicity = 1:

       Center              X                  Y                   Z               Mass
    ------------   -----------------  -----------------  -----------------  -----------------
         O           -1.366678563816    -1.154861136579     0.186035265188    15.994914619570
         O            1.435052436184     1.028233863421     0.295890265188    15.994914619570
         O            1.229802436184    -1.108895136579    -0.453568734812    15.994914619570
         C           -0.724940563816     0.092092863421     0.384688265188    12.000000000000
         C           -1.350003563816     1.197405863421    -0.459681734812    12.000000000000
         C            0.781494536184    -0.025381936579     0.039725765188    12.000000000000
         H           -0.744209563816     0.387634863421     1.444546265188     1.007825032230
         H           -1.299909563816     0.919122863421    -1.513880734812     1.007825032230
         H           -0.832535563816     2.146233863421    -0.307874734812     1.007825032230
         H           -2.401785563816     1.327766863421    -0.185787734812     1.007825032230
         H           -2.279808563816    -1.052640136579     0.505739265188     1.007825032230
         H            2.356131436184     0.828896863421     0.027141265188     1.007825032230

  Basis Set: AUG-CC-PVTZ
    Blend: AUG-CC-PVTZ
  Basis Set: (AUG-CC-PVTZ AUX)
    Blend: AUG-CC-PVTZ-JKFIT
	 Reference Energy          =    -341.8142748951371459 [Eh]
	 Singles Energy            =      -0.0000000000000000 [Eh]
	 Same-Spin Energy          =      -0.3275876885670273 [Eh]
	 Opposite-Spin Energy      =      -1.0131527847925030 [Eh]
	 Correlation Energy        =      -1.3407404733595303 [Eh]
	 Total Energy              =    -343.1550153684966631 [Eh]

	 ================> DF-SCS-MP2 Energies <==================
	-----------------------------------------------------------
	 SCS Same-Spin Scale       =       0.3333333333333333 [-]
	 SCS Opposite-Spin Scale   =       1.2000000000000000 [-]
	 SCS Same-Spin Energy      =      -0.1091958961890091 [Eh]
	 SCS Opposite-Spin Energy  =      -1.2157833417510036 [Eh]
	 SCS Correlation Energy    =      -1.3249792379400127 [Eh]
	 SCS Total Energy          =    -343.1392541330771451 [Eh]
	-----------------------------------------------------------

  Dipole Moment: [D]
     X:    -0.9482      Y:     3.3781      Z:     1.2551     Total:     3.7264

*** Psi4 exiting successfully. Buy a developer a beer!
