                               Psi4 1.3.2 release

  ==> Input File <==

--------------------------------------------------------------------------
#psi4
#
memory 32 gb

molecule  {
0 1
  O       -1.3621916    -1.1444051     0.2008417
  O        1.4419330     1.0393260     0.2985870
  O        1.2366830    -1.0978030    -0.4508720
  C       -0.7180600     0.1031850     0.3873850
  C       -1.3431230     1.2084980    -0.4569850
  C        0.7367530    -0.0975110     0.0221890
  H       -0.7420645     0.3906469     1.4493666
  H       -1.2930290     0.9302150    -1.5111840
  H       -0.8256550     2.1573260    -0.3051780
  H       -2.3949050     1.3388590    -0.1830910
  H       -2.2729280    -1.0415480     0.5084360
  H        2.3630120     0.8399890     0.0298380
units angstrom
no_reorient  #important for SAPT in psi4, default
symmetry c1  #important for SAPT in psi4, default
}

set PROPERTIES_ORIGIN ["COM"]
properties('MP2/aug-cc-pvtz', properties = ['dipole'])
--------------------------------------------------------------------------

    Molecular point group: c1
  Charge       = 0
  Multiplicity = 1
  Basis Set: AUG-CC-PVTZ
    Blend: AUG-CC-PVTZ
  Basis Set: (AUG-CC-PVTZ AUX)
    Blend: AUG-CC-PVTZ-JKFIT

    Orbital Energies [Eh]
    ---------------------

    Doubly Occupied:

       1A    -20.619850     2A    -20.574093     3A    -20.554985
       4A    -11.390761     5A    -11.313564     6A    -11.239346
       7A     -1.463365     8A     -1.382398     9A     -1.357126
      10A     -1.056032    11A     -0.921822    12A     -0.803479
      13A     -0.730906    14A     -0.704986    15A     -0.662907
      16A     -0.651791    17A     -0.614000    18A     -0.603175
      19A     -0.565119    20A     -0.558364    21A     -0.521735
      22A     -0.485445    23A     -0.463282    24A     -0.451417

  @DF-RHF Final Energy:  -341.82943493568376

   => Energetics <=

    Nuclear Repulsion Energy =            248.6680687301562216
    One-Electron Energy =                -961.6151138902644107
    Two-Electron Energy =                 371.1176102244244817
    Total Energy =                       -341.8294349356837643
  Basis Set: (AUG-CC-PVTZ AUX)
    Blend: AUG-CC-PVTZ-RI
    Molecular point group: c1

    Geometry (in Angstrom), charge = 0, multiplicity = 1:

       Center              X                  Y                   Z               Mass
    ------------   -----------------  -----------------  -----------------  -----------------
         O           -1.361713386554    -1.144201524520     0.198666649976    15.994914619570
         O            1.442411213446     1.039529575480     0.296411949976    15.994914619570
         O            1.237161213446    -1.097599424520    -0.453047050024    15.994914619570
         C           -0.717581786554     0.103388575480     0.385209949976    12.000000000000
         C           -1.342644786554     1.208701575480    -0.459160050024    12.000000000000
         C            0.737231213446    -0.097307424520     0.020013949976    12.000000000000
         H           -0.741586286554     0.390850475480     1.447191549976     1.007825032230
         H           -1.292550786554     0.930418575480    -1.513359050024     1.007825032230
         H           -0.825176786554     2.157529575480    -0.307353050024     1.007825032230
         H           -2.394426786554     1.339062575480    -0.185266050024     1.007825032230
         H           -2.272449786554    -1.041344424520     0.506260949976     1.007825032230
         H            2.363490213446     0.840192575480     0.027662949976     1.007825032230

  Basis Set: AUG-CC-PVTZ
    Blend: AUG-CC-PVTZ
  Basis Set: (AUG-CC-PVTZ AUX)
    Blend: AUG-CC-PVTZ-JKFIT
	 Reference Energy          =    -341.8294349356837643 [Eh]
	 Singles Energy            =      -0.0000000000000000 [Eh]
	 Same-Spin Energy          =      -0.3267541223998655 [Eh]
	 Opposite-Spin Energy      =      -1.0122920224357124 [Eh]
	 Correlation Energy        =      -1.3390461448355779 [Eh]
	 Total Energy              =    -343.1684810805193138 [Eh]

	 ================> DF-SCS-MP2 Energies <==================
	-----------------------------------------------------------
	 SCS Same-Spin Scale       =       0.3333333333333333 [-]
	 SCS Opposite-Spin Scale   =       1.2000000000000000 [-]
	 SCS Same-Spin Energy      =      -0.1089180407999552 [Eh]
	 SCS Opposite-Spin Energy  =      -1.2147504269228548 [Eh]
	 SCS Correlation Energy    =      -1.3236684677228099 [Eh]
	 SCS Total Energy          =    -343.1531034034065897 [Eh]
	-----------------------------------------------------------

  Dipole Moment: [D]
     X:    -1.3120      Y:     2.7252      Z:     1.0351     Total:     3.1968

*** Psi4 exiting successfully. Buy a developer a beer!
