                               Psi4 1.4a3.dev225

  ==> Input File <==

--------------------------------------------------------------------------
#psi4
#
memory 32 gb

molecule  {
0 1
  O        1.3501930    -1.1356630    -0.2433140
  O       -1.5558540     0.8884770    -0.3921630
  O       -1.2169910    -1.1507310     0.5497490
  C        0.6629050     0.0959340    -0.3934650
  C        1.2396040     1.1907030     0.5015680
  C       -0.7739735    -0.1559152    -0.0294212
  H        0.6688980     0.4337360    -1.4405180
  H        1.2084250     0.8592770     1.5425200
  H        0.6765780     2.1206880     0.3977210
  H        2.2819130     1.3850820     0.2293300
  H        2.2793940    -0.9684070    -0.4767370
  H       -2.4621080     0.6654070    -0.0949290
units angstrom
no_reorient  #important for SAPT in psi4, default
symmetry c1  #important for SAPT in psi4, default
}

set PROPERTIES_ORIGIN ["COM"]
properties('MP2/aug-cc-pvtz', properties = ['dipole'])
--------------------------------------------------------------------------

    Molecular point group: c1
  Charge       = 0
  Multiplicity = 1
  Basis Set: AUG-CC-PVTZ
    Blend: AUG-CC-PVTZ
  Basis Set: (AUG-CC-PVTZ AUX)
    Blend: AUG-CC-PVTZ-JKFIT

    Orbital Energies [Eh]
    ---------------------

    Doubly Occupied:

       1A    -20.622871     2A    -20.576104     3A    -20.551110
       4A    -11.392061     5A    -11.314477     6A    -11.241941
       7A     -1.464453     8A     -1.381577     9A     -1.347194
      10A     -1.058850    11A     -0.925439    12A     -0.807034
      13A     -0.730450    14A     -0.702905    15A     -0.660794
      16A     -0.655024    17A     -0.617503    18A     -0.601240
      19A     -0.563748    20A     -0.556735    21A     -0.522796
      22A     -0.479162    23A     -0.463977    24A     -0.450717

  @DF-RHF Final Energy:  -341.82705407760835

   => Energetics <=

    Nuclear Repulsion Energy =            248.5622650823456752
    One-Electron Energy =                -961.4023163227819850
    Two-Electron Energy =                 371.0129971628279577
    Total Energy =                       -341.8270540776083521
  Basis Set: (AUG-CC-PVTZ AUX)
    Blend: AUG-CC-PVTZ-RI
    Molecular point group: c1

    Geometry (in Angstrom), charge = 0, multiplicity = 1:

       Center              X                  Y                   Z               Mass
    ------------   -----------------  -----------------  -----------------  -----------------
         O            1.400433758696    -1.088347009135    -0.240332695638    15.994914619570
         O           -1.505613241304     0.935792990865    -0.389181695638    15.994914619570
         O           -1.166750241304    -1.103415009135     0.552730304362    15.994914619570
         C            0.713145758696     0.143249990865    -0.390483695638    12.000000000000
         C            1.289844758696     1.238018990865     0.504549304362    12.000000000000
         C           -0.723732741304    -0.108599209135    -0.026439895638    12.000000000000
         H            0.719138758696     0.481051990865    -1.437536695638     1.007825032230
         H            1.258665758696     0.906592990865     1.545501304362     1.007825032230
         H            0.726818758696     2.168003990865     0.400702304362     1.007825032230
         H            2.332153758696     1.432397990865     0.232311304362     1.007825032230
         H            2.329634758696    -0.921091009135    -0.473755695638     1.007825032230
         H           -2.411867241304     0.712722990865    -0.091947695638     1.007825032230

  Basis Set: AUG-CC-PVTZ
    Blend: AUG-CC-PVTZ
  Basis Set: (AUG-CC-PVTZ AUX)
    Blend: AUG-CC-PVTZ-JKFIT
	 Reference Energy          =    -341.8270540776083521 [Eh]
	 Singles Energy            =      -0.0000000000000000 [Eh]
	 Same-Spin Energy          =      -0.3272134287862103 [Eh]
	 Opposite-Spin Energy      =      -1.0132130463180600 [Eh]
	 Correlation Energy        =      -1.3404264751042703 [Eh]
	 Total Energy              =    -343.1674805527126182 [Eh]

	 ================> DF-SCS-MP2 Energies <==================
	-----------------------------------------------------------
	 SCS Same-Spin Scale       =       0.3333333333333333 [-]
	 SCS Opposite-Spin Scale   =       1.2000000000000000 [-]
	 SCS Same-Spin Energy      =      -0.1090711429287368 [Eh]
	 SCS Opposite-Spin Energy  =      -1.2158556555816720 [Eh]
	 SCS Correlation Energy    =      -1.3249267985104087 [Eh]
	 SCS Total Energy          =    -343.1519808761187846 [Eh]
	-----------------------------------------------------------

  Dipole Moment: [D]
     X:     1.2362      Y:     2.9172      Z:    -1.0153     Total:     3.3270

*** Psi4 exiting successfully. Buy a developer a beer!
