                               Psi4 1.3.2 release

  ==> Input File <==

--------------------------------------------------------------------------
#psi4
#
memory 32 gb

molecule  {
0 1
  O       -1.3705051    -1.1387764     0.1923667
  O        1.4419330     1.0393260     0.2985870
  O        1.2366830    -1.0978030    -0.4508720
  C       -0.7180600     0.1031850     0.3873850
  C       -1.3431230     1.2084980    -0.4569850
  C        0.7391656    -0.0848536     0.0250826
  H       -0.7373290     0.3987270     1.4472430
  H       -1.2930290     0.9302150    -1.5111840
  H       -0.8256550     2.1573260    -0.3051780
  H       -2.3949050     1.3388590    -0.1830910
  H       -2.2729280    -1.0415480     0.5084360
  H        2.3630120     0.8399890     0.0298380
units angstrom
no_reorient  #important for SAPT in psi4, default
symmetry c1  #important for SAPT in psi4, default
}

set PROPERTIES_ORIGIN ["COM"]
properties('MP2/aug-cc-pvtz', properties = ['dipole'])
--------------------------------------------------------------------------

    Molecular point group: c1
  Charge       = 0
  Multiplicity = 1
  Basis Set: AUG-CC-PVTZ
    Blend: AUG-CC-PVTZ
  Basis Set: (AUG-CC-PVTZ AUX)
    Blend: AUG-CC-PVTZ-JKFIT

    Orbital Energies [Eh]
    ---------------------

    Doubly Occupied:

       1A    -20.623607     2A    -20.573629     3A    -20.552619
       4A    -11.391634     5A    -11.313768     6A    -11.238987
       7A     -1.466589     8A     -1.383310     9A     -1.352919
      10A     -1.056879    11A     -0.922471    12A     -0.807744
      13A     -0.730895    14A     -0.706179    15A     -0.664849
      16A     -0.652450    17A     -0.614593    18A     -0.603203
      19A     -0.564908    20A     -0.557455    21A     -0.520866
      22A     -0.482336    23A     -0.462957    24A     -0.450445

  @DF-RHF Final Energy:  -341.82890314782884

   => Energetics <=

    Nuclear Repulsion Energy =            248.6617898514739124
    One-Electron Energy =                -961.5908025475524710
    Two-Electron Energy =                 371.1001095482496908
    Total Energy =                       -341.8289031478288393
  Basis Set: (AUG-CC-PVTZ AUX)
    Blend: AUG-CC-PVTZ-RI
    Molecular point group: c1

    Geometry (in Angstrom), charge = 0, multiplicity = 1:

       Center              X                  Y                   Z               Mass
    ------------   -----------------  -----------------  -----------------  -----------------
         O           -1.368924497353    -1.141350320885     0.191335401848    15.994914619570
         O            1.443513602647     1.036752079115     0.297555701848    15.994914619570
         O            1.238263602647    -1.100376920885    -0.451903298152    15.994914619570
         C           -0.716479397353     0.100611079115     0.386353701848    12.000000000000
         C           -1.341542397353     1.205924079115    -0.458016298152    12.000000000000
         C            0.740746202647    -0.087427520885     0.024051301848    12.000000000000
         H           -0.735748397353     0.396153079115     1.446211701848     1.007825032230
         H           -1.291448397353     0.927641079115    -1.512215298152     1.007825032230
         H           -0.824074397353     2.154752079115    -0.306209298152     1.007825032230
         H           -2.393324397353     1.336285079115    -0.184122298152     1.007825032230
         H           -2.271347397353    -1.044121920885     0.507404701848     1.007825032230
         H            2.364592602647     0.837415079115     0.028806701848     1.007825032230

  Basis Set: AUG-CC-PVTZ
    Blend: AUG-CC-PVTZ
  Basis Set: (AUG-CC-PVTZ AUX)
    Blend: AUG-CC-PVTZ-JKFIT
	 Reference Energy          =    -341.8289031478288393 [Eh]
	 Singles Energy            =      -0.0000000000000000 [Eh]
	 Same-Spin Energy          =      -0.3268390683556442 [Eh]
	 Opposite-Spin Energy      =      -1.0123043876804498 [Eh]
	 Correlation Energy        =      -1.3391434560360940 [Eh]
	 Total Energy              =    -343.1680466038649229 [Eh]

	 ================> DF-SCS-MP2 Energies <==================
	-----------------------------------------------------------
	 SCS Same-Spin Scale       =       0.3333333333333333 [-]
	 SCS Opposite-Spin Scale   =       1.2000000000000000 [-]
	 SCS Same-Spin Energy      =      -0.1089463561185481 [Eh]
	 SCS Opposite-Spin Energy  =      -1.2147652652165397 [Eh]
	 SCS Correlation Energy    =      -1.3237116213350877 [Eh]
	 SCS Total Energy          =    -343.1526147691639039 [Eh]
	-----------------------------------------------------------

  Dipole Moment: [D]
     X:    -1.2691      Y:     2.8106      Z:     1.0889     Total:     3.2705

*** Psi4 exiting successfully. Buy a developer a beer!
