                               Psi4 1.3.2 release

  ==> Input File <==

--------------------------------------------------------------------------
#psi4
#
memory 32 gb

molecule  {
0 1
  O       -1.3284999    -1.1640652     0.2211776
  O        1.4419330     1.0393260     0.2985870
  O        1.2366830    -1.0978030    -0.4508720
  C       -0.7180600     0.1031850     0.3873850
  C       -1.3079173     1.2427676    -0.4365089
  C        0.7367530    -0.0975110     0.0221890
  H       -0.7373290     0.3987270     1.4472430
  H       -1.2930290     0.9302150    -1.5111840
  H       -0.8256550     2.1573260    -0.3051780
  H       -2.3949050     1.3388590    -0.1830910
  H       -2.2729280    -1.0415480     0.5084360
  H        2.3630120     0.8399890     0.0298380
units angstrom
no_reorient  #important for SAPT in psi4, default
symmetry c1  #important for SAPT in psi4, default
}

set PROPERTIES_ORIGIN ["COM"]
properties('MP2/aug-cc-pvtz', properties = ['dipole'])
--------------------------------------------------------------------------

    Molecular point group: c1
  Charge       = 0
  Multiplicity = 1
  Basis Set: AUG-CC-PVTZ
    Blend: AUG-CC-PVTZ
  Basis Set: (AUG-CC-PVTZ AUX)
    Blend: AUG-CC-PVTZ-JKFIT

    Orbital Energies [Eh]
    ---------------------

    Doubly Occupied:

       1A    -20.618894     2A    -20.579940     3A    -20.553736
       4A    -11.388984     5A    -11.313431     6A    -11.241521
       7A     -1.462530     8A     -1.379484     9A     -1.355378
      10A     -1.056788    11A     -0.920653    12A     -0.801149
      13A     -0.728696    14A     -0.704688    15A     -0.661128
      16A     -0.651205    17A     -0.618531    18A     -0.601335
      19A     -0.562330    20A     -0.554492    21A     -0.525952
      22A     -0.484476    23A     -0.463609    24A     -0.449204

  @DF-RHF Final Energy:  -341.82290891626150

   => Energetics <=

    Nuclear Repulsion Energy =            248.7277893698476134
    One-Electron Energy =                -961.7451211490634932
    Two-Electron Energy =                 371.1944228629543545
    Total Energy =                       -341.8229089162614969
  Basis Set: (AUG-CC-PVTZ AUX)
    Blend: AUG-CC-PVTZ-RI
    Molecular point group: c1

    Geometry (in Angstrom), charge = 0, multiplicity = 1:

       Center              X                  Y                   Z               Mass
    ------------   -----------------  -----------------  -----------------  -----------------
         O           -1.338752761099    -1.165026957542     0.212684286469    15.994914619570
         O            1.431680138901     1.038364242458     0.290093686469    15.994914619570
         O            1.226430138901    -1.098764757542    -0.459365313531    15.994914619570
         C           -0.728312861099     0.102223242458     0.378891686469    12.000000000000
         C           -1.318170161099     1.241805842458    -0.445002213531    12.000000000000
         C            0.726500138901    -0.098472757542     0.013695686469    12.000000000000
         H           -0.747581861099     0.397765242458     1.438749686469     1.007825032230
         H           -1.303281861099     0.929253242458    -1.519677313531     1.007825032230
         H           -0.835907861099     2.156364242458    -0.313671313531     1.007825032230
         H           -2.405157861099     1.337897242458    -0.191584313531     1.007825032230
         H           -2.283180861099    -1.042509757542     0.499942686469     1.007825032230
         H            2.352759138901     0.839027242458     0.021344686469     1.007825032230

  Basis Set: AUG-CC-PVTZ
    Blend: AUG-CC-PVTZ
  Basis Set: (AUG-CC-PVTZ AUX)
    Blend: AUG-CC-PVTZ-JKFIT
	 Reference Energy          =    -341.8229089162614969 [Eh]
	 Singles Energy            =      -0.0000000000000000 [Eh]
	 Same-Spin Energy          =      -0.3273195616949668 [Eh]
	 Opposite-Spin Energy      =      -1.0136038604346258 [Eh]
	 Correlation Energy        =      -1.3409234221295927 [Eh]
	 Total Energy              =    -343.1638323383911029 [Eh]

	 ================> DF-SCS-MP2 Energies <==================
	-----------------------------------------------------------
	 SCS Same-Spin Scale       =       0.3333333333333333 [-]
	 SCS Opposite-Spin Scale   =       1.2000000000000000 [-]
	 SCS Same-Spin Energy      =      -0.1091065205649889 [Eh]
	 SCS Opposite-Spin Energy  =      -1.2163246325215509 [Eh]
	 SCS Correlation Energy    =      -1.3254311530865399 [Eh]
	 SCS Total Energy          =    -343.1483400693480235 [Eh]
	-----------------------------------------------------------

  Dipole Moment: [D]
     X:    -1.3813      Y:     2.7499      Z:     0.9841     Total:     3.2308

*** Psi4 exiting successfully. Buy a developer a beer!
