                               Psi4 1.3.2 release

  ==> Input File <==

--------------------------------------------------------------------------
#psi4
#
memory 32 gb

molecule  {
0 1
  O       -1.3597980    -1.1437690     0.1887320
  O        1.4419330     1.0393260     0.2985870
  O        1.2366830    -1.0978030    -0.4508720
  C       -0.7180600     0.1031850     0.3873850
  C       -1.3021331     1.1360147    -0.4016136
  C        0.7367530    -0.0975110     0.0221890
  H       -0.7373290     0.3987270     1.4472430
  H       -1.2930290     0.9302150    -1.5111840
  H       -0.8256550     2.1573260    -0.3051780
  H       -2.3949050     1.3388590    -0.1830910
  H       -2.2729280    -1.0415480     0.5084360
  H        2.3630120     0.8399890     0.0298380
units angstrom
no_reorient  #important for SAPT in psi4, default
symmetry c1  #important for SAPT in psi4, default
}

set PROPERTIES_ORIGIN ["COM"]
properties('MP2/aug-cc-pvtz', properties = ['dipole'])
--------------------------------------------------------------------------

    Molecular point group: c1
  Charge       = 0
  Multiplicity = 1
  Basis Set: AUG-CC-PVTZ
    Blend: AUG-CC-PVTZ
  Basis Set: (AUG-CC-PVTZ AUX)
    Blend: AUG-CC-PVTZ-JKFIT

    Orbital Energies [Eh]
    ---------------------

    Doubly Occupied:

       1A    -20.620244     2A    -20.574582     3A    -20.555807
       4A    -11.391389     5A    -11.309448     6A    -11.243192
       7A     -1.464192     8A     -1.383513     9A     -1.357792
      10A     -1.074016    11A     -0.915689    12A     -0.803542
      13A     -0.735549    14A     -0.706424    15A     -0.668272
      16A     -0.658187    17A     -0.614907    18A     -0.605014
      19A     -0.565329    20A     -0.541472    21A     -0.509464
      22A     -0.485770    23A     -0.473697    24A     -0.448910

  @DF-RHF Final Energy:  -341.81716153749869

   => Energetics <=

    Nuclear Repulsion Energy =            250.3692348908087126
    One-Electron Energy =                -964.9599933539146832
    Two-Electron Energy =                 372.7735969256073076
    Total Energy =                       -341.8171615374986914
  Basis Set: (AUG-CC-PVTZ AUX)
    Blend: AUG-CC-PVTZ-RI
    Molecular point group: c1

    Geometry (in Angstrom), charge = 0, multiplicity = 1:

       Center              X                  Y                   Z               Mass
    ------------   -----------------  -----------------  -----------------  -----------------
         O           -1.365261436199    -1.134107844978     0.181351861145    15.994914619570
         O            1.436469563801     1.048987155022     0.291206861145    15.994914619570
         O            1.231219563801    -1.088141844978    -0.458252138855    15.994914619570
         C           -0.723523436199     0.112846155022     0.380004861145    12.000000000000
         C           -1.307596536199     1.145675855022    -0.408993738855    12.000000000000
         C            0.731289563801    -0.087849844978     0.014808861145    12.000000000000
         H           -0.742792436199     0.408388155022     1.439862861145     1.007825032230
         H           -1.298492436199     0.939876155022    -1.518564138855     1.007825032230
         H           -0.831118436199     2.166987155022    -0.312558138855     1.007825032230
         H           -2.400368436199     1.348520155022    -0.190471138855     1.007825032230
         H           -2.278391436199    -1.031886844978     0.501055861145     1.007825032230
         H            2.357548563801     0.849650155022     0.022457861145     1.007825032230

  Basis Set: AUG-CC-PVTZ
    Blend: AUG-CC-PVTZ
  Basis Set: (AUG-CC-PVTZ AUX)
    Blend: AUG-CC-PVTZ-JKFIT
	 Reference Energy          =    -341.8171615374986914 [Eh]
	 Singles Energy            =      -0.0000000000000000 [Eh]
	 Same-Spin Energy          =      -0.3279079539273848 [Eh]
	 Opposite-Spin Energy      =      -1.0137761827311875 [Eh]
	 Correlation Energy        =      -1.3416841366585723 [Eh]
	 Total Energy              =    -343.1588456741572486 [Eh]

	 ================> DF-SCS-MP2 Energies <==================
	-----------------------------------------------------------
	 SCS Same-Spin Scale       =       0.3333333333333333 [-]
	 SCS Opposite-Spin Scale   =       1.2000000000000000 [-]
	 SCS Same-Spin Energy      =      -0.1093026513091283 [Eh]
	 SCS Opposite-Spin Energy  =      -1.2165314192774250 [Eh]
	 SCS Correlation Energy    =      -1.3258340705865532 [Eh]
	 SCS Total Energy          =    -343.1429956080852435 [Eh]
	-----------------------------------------------------------

  Dipole Moment: [D]
     X:    -1.2774      Y:     2.7605      Z:     1.0404     Total:     3.2147

*** Psi4 exiting successfully. Buy a developer a beer!
