                               Psi4 1.3.2 release

  ==> Input File <==

--------------------------------------------------------------------------
#psi4
#
memory 32 gb

molecule  {
0 1
  O       -1.3597980    -1.1437690     0.1887320
  O        1.4419330     1.0393260     0.2985870
  O        1.2366830    -1.0978030    -0.4508720
  C       -0.7180600     0.1031850     0.3873850
  C       -1.3431230     1.2084980    -0.4569850
  C        0.7467248    -0.1026551     0.0181629
  H       -0.7373290     0.3987270     1.4472430
  H       -1.2930290     0.9302150    -1.5111840
  H       -0.8256550     2.1573260    -0.3051780
  H       -2.3949050     1.3388590    -0.1830910
  H       -2.2729280    -1.0415480     0.5084360
  H        2.3605726     0.8321561     0.0274235
units angstrom
no_reorient  #important for SAPT in psi4, default
symmetry c1  #important for SAPT in psi4, default
}

set PROPERTIES_ORIGIN ["COM"]
properties('MP2/aug-cc-pvtz', properties = ['dipole'])
--------------------------------------------------------------------------

    Molecular point group: c1
  Charge       = 0
  Multiplicity = 1
  Basis Set: AUG-CC-PVTZ
    Blend: AUG-CC-PVTZ
  Basis Set: (AUG-CC-PVTZ AUX)
    Blend: AUG-CC-PVTZ-JKFIT

    Orbital Energies [Eh]
    ---------------------

    Doubly Occupied:

       1A    -20.619705     2A    -20.574430     3A    -20.556223
       4A    -11.389443     5A    -11.312810     6A    -11.238169
       7A     -1.465787     8A     -1.381457     9A     -1.361867
      10A     -1.053142    11A     -0.918986    12A     -0.801145
      13A     -0.730287    14A     -0.706927    15A     -0.663344
      16A     -0.650564    17A     -0.614606    18A     -0.603104
      19A     -0.564486    20A     -0.558416    21A     -0.522135
      22A     -0.488647    23A     -0.462670    24A     -0.450559

  @DF-RHF Final Energy:  -341.82965987145906

   => Energetics <=

    Nuclear Repulsion Energy =            248.7245256013458459
    One-Electron Energy =                -961.7305518426549042
    Two-Electron Energy =                 371.1763663698500295
    Total Energy =                       -341.8296598714590573
  Basis Set: (AUG-CC-PVTZ AUX)
    Blend: AUG-CC-PVTZ-RI
    Molecular point group: c1

    Geometry (in Angstrom), charge = 0, multiplicity = 1:

       Center              X                  Y                   Z               Mass
    ------------   -----------------  -----------------  -----------------  -----------------
         O           -1.361099838527    -1.142995561862     0.189295768022    15.994914619570
         O            1.440631161473     1.040099438138     0.299150768022    15.994914619570
         O            1.235381161473    -1.097029561862    -0.450308231978    15.994914619570
         C           -0.719361838527     0.103958438138     0.387948768022    12.000000000000
         C           -1.344424838527     1.209271438138    -0.456421231978    12.000000000000
         C            0.745422961473    -0.101881661862     0.018726668022    12.000000000000
         H           -0.738630838527     0.399500438138     1.447806768022     1.007825032230
         H           -1.294330838527     0.930988438138    -1.510620231978     1.007825032230
         H           -0.826956838527     2.158099438138    -0.304614231978     1.007825032230
         H           -2.396206838527     1.339632438138    -0.182527231978     1.007825032230
         H           -2.274229838527    -1.040774561862     0.508999768022     1.007825032230
         H            2.359270761473     0.832929538138     0.027987268022     1.007825032230

  Basis Set: AUG-CC-PVTZ
    Blend: AUG-CC-PVTZ
  Basis Set: (AUG-CC-PVTZ AUX)
    Blend: AUG-CC-PVTZ-JKFIT
	 Reference Energy          =    -341.8296598714590573 [Eh]
	 Singles Energy            =      -0.0000000000000000 [Eh]
	 Same-Spin Energy          =      -0.3266513831602631 [Eh]
	 Opposite-Spin Energy      =      -1.0121042243260534 [Eh]
	 Correlation Energy        =      -1.3387556074863165 [Eh]
	 Total Energy              =    -343.1684154789453487 [Eh]

	 ================> DF-SCS-MP2 Energies <==================
	-----------------------------------------------------------
	 SCS Same-Spin Scale       =       0.3333333333333333 [-]
	 SCS Opposite-Spin Scale   =       1.2000000000000000 [-]
	 SCS Same-Spin Energy      =      -0.1088837943867544 [Eh]
	 SCS Opposite-Spin Energy  =      -1.2145250691912641 [Eh]
	 SCS Correlation Energy    =      -1.3234088635780186 [Eh]
	 SCS Total Energy          =    -343.1530687350370954 [Eh]
	-----------------------------------------------------------

  Dipole Moment: [D]
     X:    -1.2684      Y:     2.6659      Z:     1.0381     Total:     3.1295

*** Psi4 exiting successfully. Buy a developer a beer!
