                               Psi4 1.3.2 release

  ==> Input File <==

--------------------------------------------------------------------------
#psi4
#
memory 32 gb

molecule  {
0 1
  O       -1.3597980    -1.1437690     0.1887320
  O        1.4813285     1.0177932     0.2825292
  O        1.2741563    -1.0780082    -0.4512282
  C       -0.7180600     0.1031850     0.3873850
  C       -1.3431230     1.2084980    -0.4569850
  C        0.7367530    -0.0975110     0.0221890
  H       -0.7373290     0.3987270     1.4472430
  H       -1.2930290     0.9302150    -1.5111840
  H       -0.8256550     2.1573260    -0.3051780
  H       -2.3949050     1.3388590    -0.1830910
  H       -2.2729280    -1.0415480     0.5084360
  H        2.3630120     0.8399890     0.0298380
units angstrom
no_reorient  #important for SAPT in psi4, default
symmetry c1  #important for SAPT in psi4, default
}

set PROPERTIES_ORIGIN ["COM"]
properties('MP2/aug-cc-pvtz', properties = ['dipole'])
--------------------------------------------------------------------------

    Molecular point group: c1
  Charge       = 0
  Multiplicity = 1
  Basis Set: AUG-CC-PVTZ
    Blend: AUG-CC-PVTZ
  Basis Set: (AUG-CC-PVTZ AUX)
    Blend: AUG-CC-PVTZ-JKFIT

    Orbital Energies [Eh]
    ---------------------

    Doubly Occupied:

       1A    -20.609903     2A    -20.578120     3A    -20.552093
       4A    -11.390552     5A    -11.318118     6A    -11.241170
       7A     -1.467800     8A     -1.384250     9A     -1.354804
      10A     -1.059267    11A     -0.925681    12A     -0.812964
      13A     -0.733474    14A     -0.702448    15A     -0.665334
      16A     -0.652138    17A     -0.614539    18A     -0.603585
      19A     -0.567402    20A     -0.558906    21A     -0.523816
      22A     -0.482387    23A     -0.465837    24A     -0.451596

  @DF-RHF Final Energy:  -341.82998712582940

   => Energetics <=

    Nuclear Repulsion Energy =            248.5648986810904546
    One-Electron Energy =                -961.3573998517774726
    Two-Electron Energy =                 370.9625140448576417
    Total Energy =                       -341.8299871258294047
  Basis Set: (AUG-CC-PVTZ AUX)
    Blend: AUG-CC-PVTZ-RI
    Molecular point group: c1

    Geometry (in Angstrom), charge = 0, multiplicity = 1:

       Center              X                  Y                   Z               Mass
    ------------   -----------------  -----------------  -----------------  -----------------
         O           -1.373454452011    -1.143460111947     0.191648205541    15.994914619570
         O            1.467672047989     1.018102088053     0.285445405541    15.994914619570
         O            1.260499847989    -1.077699311947    -0.448311994459    15.994914619570
         C           -0.731716452011     0.103493888053     0.390301205541    12.000000000000
         C           -1.356779452011     1.208806888053    -0.454068794459    12.000000000000
         C            0.723096547989    -0.097202111947     0.025105205541    12.000000000000
         H           -0.750985452011     0.399035888053     1.450159205541     1.007825032230
         H           -1.306685452011     0.930523888053    -1.508267794459     1.007825032230
         H           -0.839311452011     2.157634888053    -0.302261794459     1.007825032230
         H           -2.408561452011     1.339167888053    -0.180174794459     1.007825032230
         H           -2.286584452011    -1.041239111947     0.511352205541     1.007825032230
         H            2.349355547989     0.840297888053     0.032754205541     1.007825032230

  Basis Set: AUG-CC-PVTZ
    Blend: AUG-CC-PVTZ
  Basis Set: (AUG-CC-PVTZ AUX)
    Blend: AUG-CC-PVTZ-JKFIT
	 Reference Energy          =    -341.8299871258294047 [Eh]
	 Singles Energy            =      -0.0000000000000000 [Eh]
	 Same-Spin Energy          =      -0.3258552946920499 [Eh]
	 Opposite-Spin Energy      =      -1.0104623984127721 [Eh]
	 Correlation Energy        =      -1.3363176931048220 [Eh]
	 Total Energy              =    -343.1663048189342362 [Eh]

	 ================> DF-SCS-MP2 Energies <==================
	-----------------------------------------------------------
	 SCS Same-Spin Scale       =       0.3333333333333333 [-]
	 SCS Opposite-Spin Scale   =       1.2000000000000000 [-]
	 SCS Same-Spin Energy      =      -0.1086184315640166 [Eh]
	 SCS Opposite-Spin Energy  =      -1.2125548780953264 [Eh]
	 SCS Correlation Energy    =      -1.3211733096593430 [Eh]
	 SCS Total Energy          =    -343.1511604354887481 [Eh]
	-----------------------------------------------------------

  Dipole Moment: [D]
     X:    -1.5427      Y:     2.6934      Z:     1.0840     Total:     3.2877

*** Psi4 exiting successfully. Buy a developer a beer!
