                               Psi4 1.3.2 release

  ==> Input File <==

--------------------------------------------------------------------------
#psi4
#
memory 32 gb

molecule  {
0 1
  O       -1.3597980    -1.1437690     0.1887320
  O        1.4419330     1.0393260     0.2985870
  O        1.2366830    -1.0978030    -0.4508720
  C       -0.7633677     0.0151481     0.3733598
  C       -1.3431230     1.2084980    -0.4569850
  C        0.7367530    -0.0975110     0.0221890
  H       -0.7373290     0.3987270     1.4472430
  H       -1.2930290     0.9302150    -1.5111840
  H       -0.8256550     2.1573260    -0.3051780
  H       -2.3949050     1.3388590    -0.1830910
  H       -2.2729280    -1.0415480     0.5084360
  H        2.3630120     0.8399890     0.0298380
units angstrom
no_reorient  #important for SAPT in psi4, default
symmetry c1  #important for SAPT in psi4, default
}

set PROPERTIES_ORIGIN ["COM"]
properties('MP2/aug-cc-pvtz', properties = ['dipole'])
--------------------------------------------------------------------------

    Molecular point group: c1
  Charge       = 0
  Multiplicity = 1
  Basis Set: AUG-CC-PVTZ
    Blend: AUG-CC-PVTZ
  Basis Set: (AUG-CC-PVTZ AUX)
    Blend: AUG-CC-PVTZ-JKFIT

    Orbital Energies [Eh]
    ---------------------

    Doubly Occupied:

       1A    -20.618933     2A    -20.586517     3A    -20.550162
       4A    -11.386900     5A    -11.316623     6A    -11.236271
       7A     -1.461752     8A     -1.425439     9A     -1.356117
      10A     -1.040187    11A     -0.914151    12A     -0.810158
      13A     -0.736355    14A     -0.703663    15A     -0.680056
      16A     -0.656202    17A     -0.617786    18A     -0.608418
      19A     -0.568418    20A     -0.555218    21A     -0.523708
      22A     -0.483651    23A     -0.447423    24A     -0.440476

  @DF-RHF Final Energy:  -341.82047818734463

   => Energetics <=

    Nuclear Repulsion Energy =            249.0818522216501947
    One-Electron Energy =                -962.3554956831912932
    Two-Electron Energy =                 371.4531652741964081
    Total Energy =                       -341.8204781873446336
  Basis Set: (AUG-CC-PVTZ AUX)
    Blend: AUG-CC-PVTZ-RI
    Molecular point group: c1

    Geometry (in Angstrom), charge = 0, multiplicity = 1:

       Center              X                  Y                   Z               Mass
    ------------   -----------------  -----------------  -----------------  -----------------
         O           -1.353759140137    -1.132034761694     0.190601483833    15.994914619570
         O            1.447971859863     1.051060238306     0.300456483833    15.994914619570
         O            1.242721859863    -1.086068761694    -0.449002516167    15.994914619570
         C           -0.757328840137     0.026882338306     0.375229283833    12.000000000000
         C           -1.337084140137     1.220232238306    -0.455115516167    12.000000000000
         C            0.742791859863    -0.085776761694     0.024058483833    12.000000000000
         H           -0.731290140137     0.410461238306     1.449112483833     1.007825032230
         H           -1.286990140137     0.941949238306    -1.509314516167     1.007825032230
         H           -0.819616140137     2.169060238306    -0.303308516167     1.007825032230
         H           -2.388866140137     1.350593238306    -0.181221516167     1.007825032230
         H           -2.266889140137    -1.029813761694     0.510305483833     1.007825032230
         H            2.369050859863     0.851723238306     0.031707483833     1.007825032230

  Basis Set: AUG-CC-PVTZ
    Blend: AUG-CC-PVTZ
  Basis Set: (AUG-CC-PVTZ AUX)
    Blend: AUG-CC-PVTZ-JKFIT
	 Reference Energy          =    -341.8204781873446336 [Eh]
	 Singles Energy            =      -0.0000000000000000 [Eh]
	 Same-Spin Energy          =      -0.3267008820742607 [Eh]
	 Opposite-Spin Energy      =      -1.0109526969123446 [Eh]
	 Correlation Energy        =      -1.3376535789866053 [Eh]
	 Total Energy              =    -343.1581317663312234 [Eh]

	 ================> DF-SCS-MP2 Energies <==================
	-----------------------------------------------------------
	 SCS Same-Spin Scale       =       0.3333333333333333 [-]
	 SCS Opposite-Spin Scale   =       1.2000000000000000 [-]
	 SCS Same-Spin Energy      =      -0.1089002940247536 [Eh]
	 SCS Opposite-Spin Energy  =      -1.2131432362948134 [Eh]
	 SCS Correlation Energy    =      -1.3220435303195670 [Eh]
	 SCS Total Energy          =    -343.1425217176641809 [Eh]
	-----------------------------------------------------------

  Dipole Moment: [D]
     X:    -1.5320      Y:     2.3742      Z:     1.0575     Total:     3.0170

*** Psi4 exiting successfully. Buy a developer a beer!
