                               Psi4 1.3.2 release

  ==> Input File <==

--------------------------------------------------------------------------
#psi4
#
memory 32 gb

molecule  {
0 1
  O       -1.3597980    -1.1437690     0.1887320
  O        1.4419330     1.0393260     0.2985870
  O        1.2366830    -1.0978030    -0.4508720
  C       -0.7180600     0.1031850     0.3873850
  C       -1.3431230     1.2084980    -0.4569850
  C        0.6974103    -0.0760727     0.0385008
  H       -0.7373290     0.3987270     1.4472430
  H       -1.2930290     0.9302150    -1.5111840
  H       -0.8256550     2.1573260    -0.3051780
  H       -2.3949050     1.3388590    -0.1830910
  H       -2.2729280    -1.0415480     0.5084360
  H        2.3720662     0.8714663     0.0396989
units angstrom
no_reorient  #important for SAPT in psi4, default
symmetry c1  #important for SAPT in psi4, default
}

set PROPERTIES_ORIGIN ["COM"]
properties('MP2/aug-cc-pvtz', properties = ['dipole'])
--------------------------------------------------------------------------

    Molecular point group: c1
  Charge       = 0
  Multiplicity = 1
  Basis Set: AUG-CC-PVTZ
    Blend: AUG-CC-PVTZ
  Basis Set: (AUG-CC-PVTZ AUX)
    Blend: AUG-CC-PVTZ-JKFIT

    Orbital Energies [Eh]
    ---------------------

    Doubly Occupied:

       1A    -20.619821     2A    -20.578023     3A    -20.549194
       4A    -11.394884     5A    -11.315719     6A    -11.242526
       7A     -1.455163     8A     -1.384074     9A     -1.333928
      10A     -1.066783    11A     -0.931518    12A     -0.808824
      13A     -0.735165    14A     -0.696858    15A     -0.662641
      16A     -0.652905    17A     -0.610356    18A     -0.598511
      19A     -0.567585    20A     -0.557523    21A     -0.521966
      22A     -0.474160    23A     -0.463465    24A     -0.451307

  @DF-RHF Final Energy:  -341.82083478817282

   => Energetics <=

    Nuclear Repulsion Energy =            248.6635187243580560
    One-Electron Energy =                -961.6229111538715415
    Two-Electron Energy =                 371.1385576413406966
    Total Energy =                       -341.8208347881728173
  Basis Set: (AUG-CC-PVTZ AUX)
    Blend: AUG-CC-PVTZ-RI
    Molecular point group: c1

    Geometry (in Angstrom), charge = 0, multiplicity = 1:

       Center              X                  Y                   Z               Mass
    ------------   -----------------  -----------------  -----------------  -----------------
         O           -1.354655547233    -1.146978677001     0.186447590409    15.994914619570
         O            1.447075452767     1.036116322999     0.296302590409    15.994914619570
         O            1.241825452767    -1.101012677001    -0.453156409591    15.994914619570
         C           -0.712917547233     0.099975322999     0.385100590409    12.000000000000
         C           -1.337980547233     1.205288322999    -0.459269409591    12.000000000000
         C            0.702552752767    -0.079282377001     0.036216390409    12.000000000000
         H           -0.732186547233     0.395517322999     1.444958590409     1.007825032230
         H           -1.287886547233     0.927005322999    -1.513468409591     1.007825032230
         H           -0.820512547233     2.154116322999    -0.307462409591     1.007825032230
         H           -2.389762547233     1.335649322999    -0.185375409591     1.007825032230
         H           -2.267785547233    -1.044757677001     0.506151590409     1.007825032230
         H            2.377208652767     0.868256622999     0.037414490409     1.007825032230

  Basis Set: AUG-CC-PVTZ
    Blend: AUG-CC-PVTZ
  Basis Set: (AUG-CC-PVTZ AUX)
    Blend: AUG-CC-PVTZ-JKFIT
	 Reference Energy          =    -341.8208347881728173 [Eh]
	 Singles Energy            =      -0.0000000000000000 [Eh]
	 Same-Spin Energy          =      -0.3279282247296961 [Eh]
	 Opposite-Spin Energy      =      -1.0146197225020417 [Eh]
	 Correlation Energy        =      -1.3425479472317376 [Eh]
	 Total Energy              =    -343.1633827354045820 [Eh]

	 ================> DF-SCS-MP2 Energies <==================
	-----------------------------------------------------------
	 SCS Same-Spin Scale       =       0.3333333333333333 [-]
	 SCS Opposite-Spin Scale   =       1.2000000000000000 [-]
	 SCS Same-Spin Energy      =      -0.1093094082432320 [Eh]
	 SCS Opposite-Spin Energy  =      -1.2175436670024500 [Eh]
	 SCS Correlation Energy    =      -1.3268530752456820 [Eh]
	 SCS Total Energy          =    -343.1476878634185255 [Eh]
	-----------------------------------------------------------

  Dipole Moment: [D]
     X:    -1.4919      Y:     2.9069      Z:     1.1462     Total:     3.4626

*** Psi4 exiting successfully. Buy a developer a beer!
