                               Psi4 1.3.2 release

  ==> Input File <==

--------------------------------------------------------------------------
#psi4
#
memory 32 gb

molecule  {
0 1
  O       -1.3442443    -1.1541086     0.2049270
  O        1.4419330     1.0393260     0.2985870
  O        1.2366830    -1.0978030    -0.4508720
  C       -0.7180600     0.1031850     0.3873850
  C       -1.3256127     1.2258038    -0.4468740
  C        0.7367530    -0.0975110     0.0221890
  H       -0.7373290     0.3987270     1.4472430
  H       -1.2930290     0.9302150    -1.5111840
  H       -0.8256550     2.1573260    -0.3051780
  H       -2.3949050     1.3388590    -0.1830910
  H       -2.2729280    -1.0415480     0.5084360
  H        2.3630120     0.8399890     0.0298380
units angstrom
no_reorient  #important for SAPT in psi4, default
symmetry c1  #important for SAPT in psi4, default
}

set PROPERTIES_ORIGIN ["COM"]
properties('MP2/aug-cc-pvtz', properties = ['dipole'])
--------------------------------------------------------------------------

    Molecular point group: c1
  Charge       = 0
  Multiplicity = 1
  Basis Set: AUG-CC-PVTZ
    Blend: AUG-CC-PVTZ
  Basis Set: (AUG-CC-PVTZ AUX)
    Blend: AUG-CC-PVTZ-JKFIT

    Orbital Energies [Eh]
    ---------------------

    Doubly Occupied:

       1A    -20.619291     2A    -20.577489     3A    -20.554264
       4A    -11.389726     5A    -11.313404     6A    -11.240152
       7A     -1.462873     8A     -1.380533     9A     -1.356095
      10A     -1.056202    11A     -0.921029    12A     -0.801859
      13A     -0.729882    14A     -0.704727    15A     -0.661318
      16A     -0.651177    17A     -0.616173    18A     -0.601897
      19A     -0.563348    20A     -0.556544    21A     -0.524530
      22A     -0.484874    23A     -0.463733    24A     -0.450265

  @DF-RHF Final Energy:  -341.82708982069448

   => Energetics <=

    Nuclear Repulsion Energy =            248.7126210491896074
    One-Electron Energy =                -961.7166460304167686
    Two-Electron Energy =                 371.1769351605327074
    Total Energy =                       -341.8270898206944821
  Basis Set: (AUG-CC-PVTZ AUX)
    Blend: AUG-CC-PVTZ-RI
    Molecular point group: c1

    Geometry (in Angstrom), charge = 0, multiplicity = 1:

       Center              X                  Y                   Z               Mass
    ------------   -----------------  -----------------  -----------------  -----------------
         O           -1.349341475219    -1.154578190494     0.200702273921    15.994914619570
         O            1.436835824781     1.038856409506     0.294362273921    15.994914619570
         O            1.231585824781    -1.098272590494    -0.455096726079    15.994914619570
         C           -0.723157175219     0.102715409506     0.383160273921    12.000000000000
         C           -1.330709875219     1.225334209506    -0.451098726079    12.000000000000
         C            0.731655824781    -0.097980590494     0.017964273921    12.000000000000
         H           -0.742426175219     0.398257409506     1.443018273921     1.007825032230
         H           -1.298126175219     0.929745409506    -1.515408726079     1.007825032230
         H           -0.830752175219     2.156856409506    -0.309402726079     1.007825032230
         H           -2.400002175219     1.338389409506    -0.187315726079     1.007825032230
         H           -2.278025175219    -1.042017590494     0.504211273921     1.007825032230
         H            2.357914824781     0.839519409506     0.025613273921     1.007825032230

  Basis Set: AUG-CC-PVTZ
    Blend: AUG-CC-PVTZ
  Basis Set: (AUG-CC-PVTZ AUX)
    Blend: AUG-CC-PVTZ-JKFIT
	 Reference Energy          =    -341.8270898206944821 [Eh]
	 Singles Energy            =      -0.0000000000000000 [Eh]
	 Same-Spin Energy          =      -0.3270705263244280 [Eh]
	 Opposite-Spin Energy      =      -1.0130077864873095 [Eh]
	 Correlation Energy        =      -1.3400783128117375 [Eh]
	 Total Energy              =    -343.1671681335062090 [Eh]

	 ================> DF-SCS-MP2 Energies <==================
	-----------------------------------------------------------
	 SCS Same-Spin Scale       =       0.3333333333333333 [-]
	 SCS Opposite-Spin Scale   =       1.2000000000000000 [-]
	 SCS Same-Spin Energy      =      -0.1090235087748093 [Eh]
	 SCS Opposite-Spin Energy  =      -1.2156093437847713 [Eh]
	 SCS Correlation Energy    =      -1.3246328525595805 [Eh]
	 SCS Total Energy          =    -343.1517226732540848 [Eh]
	-----------------------------------------------------------

  Dipole Moment: [D]
     X:    -1.3487      Y:     2.7353      Z:     1.0215     Total:     3.2163

*** Psi4 exiting successfully. Buy a developer a beer!
