                               Psi4 1.4a3.dev225

  ==> Input File <==

--------------------------------------------------------------------------
#psi4
#
memory 32 gb

molecule  {
0 1
  O        1.3501930    -1.1356630    -0.2433140
  O       -1.5558540     0.8884770    -0.3921630
  O       -1.2169910    -1.1507310     0.5497490
  C        0.6629050     0.0959340    -0.3934650
  C        1.2396040     1.1907030     0.5015680
  C       -0.7527808    -0.2108917    -0.0063992
  H        0.6688980     0.4337360    -1.4405180
  H        1.2084250     0.8592770     1.5425200
  H        0.6765780     2.1206880     0.3977210
  H        2.2819130     1.3850820     0.2293300
  H        2.2793940    -0.9684070    -0.4767370
  H       -2.4621080     0.6654070    -0.0949290
units angstrom
no_reorient  #important for SAPT in psi4, default
symmetry c1  #important for SAPT in psi4, default
}

set PROPERTIES_ORIGIN ["COM"]
properties('MP2/aug-cc-pvtz', properties = ['dipole'])
--------------------------------------------------------------------------

    Molecular point group: c1
  Charge       = 0
  Multiplicity = 1
  Basis Set: AUG-CC-PVTZ
    Blend: AUG-CC-PVTZ
  Basis Set: (AUG-CC-PVTZ AUX)
    Blend: AUG-CC-PVTZ-JKFIT

    Orbital Energies [Eh]
    ---------------------

    Doubly Occupied:

       1A    -20.604816     2A    -20.577055     3A    -20.562510
       4A    -11.389284     5A    -11.315018     6A    -11.242056
       7A     -1.457717     8A     -1.381115     9A     -1.360116
      10A     -1.058029    11A     -0.923536    12A     -0.789607
      13A     -0.734951    14A     -0.699415    15A     -0.656048
      16A     -0.655063    17A     -0.614817    18A     -0.599917
      19A     -0.564341    20A     -0.559867    21A     -0.527377
      22A     -0.491714    23A     -0.465956    24A     -0.454379

  @DF-RHF Final Energy:  -341.82708606274787

   => Energetics <=

    Nuclear Repulsion Energy =            248.7077237298396710
    One-Electron Energy =                -961.7002117044878560
    Two-Electron Energy =                 371.1654019119002896
    Total Energy =                       -341.8270860627478669
  Basis Set: (AUG-CC-PVTZ AUX)
    Blend: AUG-CC-PVTZ-RI
    Molecular point group: c1

    Geometry (in Angstrom), charge = 0, multiplicity = 1:

       Center              X                  Y                   Z               Mass
    ------------   -----------------  -----------------  -----------------  -----------------
         O            1.397609060098    -1.081019389601    -0.243401215040    15.994914619570
         O           -1.508437939902     0.943120610399    -0.392250215040    15.994914619570
         O           -1.169574939902    -1.096087389601     0.549661784960    15.994914619570
         C            0.710321060098     0.150577610399    -0.393552215040    12.000000000000
         C            1.287020060098     1.245346610399     0.501480784960    12.000000000000
         C           -0.705364739902    -0.156248089601    -0.006486415040    12.000000000000
         H            0.716314060098     0.488379610399    -1.440605215040     1.007825032230
         H            1.255841060098     0.913920610399     1.542432784960     1.007825032230
         H            0.723994060098     2.175331610399     0.397633784960     1.007825032230
         H            2.329329060098     1.439725610399     0.229242784960     1.007825032230
         H            2.326810060098    -0.913763389601    -0.476824215040     1.007825032230
         H           -2.414691939902     0.720050610399    -0.095016215040     1.007825032230

  Basis Set: AUG-CC-PVTZ
    Blend: AUG-CC-PVTZ
  Basis Set: (AUG-CC-PVTZ AUX)
    Blend: AUG-CC-PVTZ-JKFIT
	 Reference Energy          =    -341.8270860627478669 [Eh]
	 Singles Energy            =      -0.0000000000000000 [Eh]
	 Same-Spin Energy          =      -0.3266291684501333 [Eh]
	 Opposite-Spin Energy      =      -1.0125159918677245 [Eh]
	 Correlation Energy        =      -1.3391451603178577 [Eh]
	 Total Energy              =    -343.1662312230657221 [Eh]

	 ================> DF-SCS-MP2 Energies <==================
	-----------------------------------------------------------
	 SCS Same-Spin Scale       =       0.3333333333333333 [-]
	 SCS Opposite-Spin Scale   =       1.2000000000000000 [-]
	 SCS Same-Spin Energy      =      -0.1088763894833778 [Eh]
	 SCS Opposite-Spin Energy  =      -1.2150191902412693 [Eh]
	 SCS Correlation Energy    =      -1.3238955797246470 [Eh]
	 SCS Total Energy          =    -343.1509816424725159 [Eh]
	-----------------------------------------------------------

  Dipole Moment: [D]
     X:     1.4428      Y:     2.4779      Z:    -0.8287     Total:     2.9847

*** Psi4 exiting successfully. Buy a developer a beer!
