                               Psi4 1.3.2 release

  ==> Input File <==

--------------------------------------------------------------------------
#psi4
#
memory 32 gb

molecule  {
0 1
  O       -1.3382380    -1.1534689     0.1815082
  O        1.4419330     1.0393260     0.2985870
  O        1.2366830    -1.0978030    -0.4508720
  C       -0.7180600     0.1031850     0.3873850
  C       -1.3431230     1.2084980    -0.4569850
  C        0.7315957    -0.1227789     0.0164854
  H       -0.7373290     0.3987270     1.4472430
  H       -1.2930290     0.9302150    -1.5111840
  H       -0.8256550     2.1573260    -0.3051780
  H       -2.3949050     1.3388590    -0.1830910
  H       -2.2729280    -1.0415480     0.5084360
  H        2.3630120     0.8399890     0.0298380
units angstrom
no_reorient  #important for SAPT in psi4, default
symmetry c1  #important for SAPT in psi4, default
}

set PROPERTIES_ORIGIN ["COM"]
properties('MP2/aug-cc-pvtz', properties = ['dipole'])
--------------------------------------------------------------------------

    Molecular point group: c1
  Charge       = 0
  Multiplicity = 1
  Basis Set: AUG-CC-PVTZ
    Blend: AUG-CC-PVTZ
  Basis Set: (AUG-CC-PVTZ AUX)
    Blend: AUG-CC-PVTZ-JKFIT

    Orbital Energies [Eh]
    ---------------------

    Doubly Occupied:

       1A    -20.611687     2A    -20.578216     3A    -20.559139
       4A    -11.388221     5A    -11.313182     6A    -11.239179
       7A     -1.460238     8A     -1.378283     9A     -1.361882
      10A     -1.053565    11A     -0.919891    12A     -0.792943
      13A     -0.731899    14A     -0.703185    15A     -0.660201
      16A     -0.646777    17A     -0.612862    18A     -0.600187
      19A     -0.565424    20A     -0.559493    21A     -0.524229
      22A     -0.490656    23A     -0.464003    24A     -0.452232

  @DF-RHF Final Energy:  -341.82656900729455

   => Energetics <=

    Nuclear Repulsion Energy =            248.8207598078174101
    One-Electron Energy =                -961.9595128130665671
    Two-Electron Energy =                 371.3121839979545484
    Total Energy =                       -341.8265690072945517
  Basis Set: (AUG-CC-PVTZ AUX)
    Blend: AUG-CC-PVTZ-RI
    Molecular point group: c1

    Geometry (in Angstrom), charge = 0, multiplicity = 1:

       Center              X                  Y                   Z               Mass
    ------------   -----------------  -----------------  -----------------  -----------------
         O           -1.341380964026    -1.148377643746     0.183551898752    15.994914619570
         O            1.438790035974     1.044417256254     0.300630698752    15.994914619570
         O            1.233540035974    -1.092711743746    -0.448828301248    15.994914619570
         C           -0.721202964026     0.108276256254     0.389428698752    12.000000000000
         C           -1.346265964026     1.213589256254    -0.454941301248    12.000000000000
         C            0.728452735974    -0.117687643746     0.018529098752    12.000000000000
         H           -0.740471964026     0.403818256254     1.449286698752     1.007825032230
         H           -1.296171964026     0.935306256254    -1.509140301248     1.007825032230
         H           -0.828797964026     2.162417256254    -0.303134301248     1.007825032230
         H           -2.398047964026     1.343950256254    -0.181047301248     1.007825032230
         H           -2.276070964026    -1.036456743746     0.510479698752     1.007825032230
         H            2.359869035974     0.845080256254     0.031881698752     1.007825032230

  Basis Set: AUG-CC-PVTZ
    Blend: AUG-CC-PVTZ
  Basis Set: (AUG-CC-PVTZ AUX)
    Blend: AUG-CC-PVTZ-JKFIT
	 Reference Energy          =    -341.8265690072945517 [Eh]
	 Singles Energy            =      -0.0000000000000000 [Eh]
	 Same-Spin Energy          =      -0.3269770115103525 [Eh]
	 Opposite-Spin Energy      =      -1.0131126084571873 [Eh]
	 Correlation Energy        =      -1.3400896199675398 [Eh]
	 Total Energy              =    -343.1666586272621089 [Eh]

	 ================> DF-SCS-MP2 Energies <==================
	-----------------------------------------------------------
	 SCS Same-Spin Scale       =       0.3333333333333333 [-]
	 SCS Opposite-Spin Scale   =       1.2000000000000000 [-]
	 SCS Same-Spin Energy      =      -0.1089923371701175 [Eh]
	 SCS Opposite-Spin Energy  =      -1.2157351301486248 [Eh]
	 SCS Correlation Energy    =      -1.3247274673187424 [Eh]
	 SCS Total Energy          =    -343.1512964746132752 [Eh]
	-----------------------------------------------------------

  Dipole Moment: [D]
     X:    -1.4115      Y:     2.5199      Z:     1.0025     Total:     3.0574

*** Psi4 exiting successfully. Buy a developer a beer!
