                               Psi4 1.3.2 release

  ==> Input File <==

--------------------------------------------------------------------------
#psi4
#
memory 32 gb

molecule  {
0 1
  O       -1.3597980    -1.1437690     0.1887320
  O        1.4419330     1.0393260     0.2985870
  O        1.2366830    -1.0978030    -0.4508720
  C       -0.6767235     0.0839823     0.3682336
  C       -1.3431230     1.2084980    -0.4569850
  C        0.7367530    -0.0975110     0.0221890
  H       -0.7373290     0.3987270     1.4472430
  H       -1.2930290     0.9302150    -1.5111840
  H       -0.8256550     2.1573260    -0.3051780
  H       -2.3949050     1.3388590    -0.1830910
  H       -2.2788932    -1.0738779     0.4999321
  H        2.3630120     0.8399890     0.0298380
units angstrom
no_reorient  #important for SAPT in psi4, default
symmetry c1  #important for SAPT in psi4, default
}

set PROPERTIES_ORIGIN ["COM"]
properties('MP2/aug-cc-pvtz', properties = ['dipole'])
--------------------------------------------------------------------------

    Molecular point group: c1
  Charge       = 0
  Multiplicity = 1
  Basis Set: AUG-CC-PVTZ
    Blend: AUG-CC-PVTZ
  Basis Set: (AUG-CC-PVTZ AUX)
    Blend: AUG-CC-PVTZ-JKFIT

    Orbital Energies [Eh]
    ---------------------

    Doubly Occupied:

       1A    -20.620433     2A    -20.572795     3A    -20.554914
       4A    -11.390246     5A    -11.314148     6A    -11.240352
       7A     -1.465060     8A     -1.379665     9A     -1.356882
      10A     -1.057393    11A     -0.928069    12A     -0.803722
      13A     -0.728362    14A     -0.704939    15A     -0.667431
      16A     -0.652971    17A     -0.611221    18A     -0.604832
      19A     -0.562378    20A     -0.558942    21A     -0.517542
      22A     -0.486084    23A     -0.457030    24A     -0.454718

  @DF-RHF Final Energy:  -341.82631572189632

   => Energetics <=

    Nuclear Repulsion Energy =            249.1375804607715736
    One-Electron Energy =                -962.5475348469849450
    Two-Electron Energy =                 371.5836386643170499
    Total Energy =                       -341.8263157218963215
  Basis Set: (AUG-CC-PVTZ AUX)
    Blend: AUG-CC-PVTZ-RI
    Molecular point group: c1

    Geometry (in Angstrom), charge = 0, multiplicity = 1:

       Center              X                  Y                   Z               Mass
    ------------   -----------------  -----------------  -----------------  -----------------
         O           -1.365240858136    -1.140847519533     0.191379930180    15.994914619570
         O            1.436490141864     1.042247480467     0.301234930180    15.994914619570
         O            1.231240141864    -1.094881519533    -0.448224069820    15.994914619570
         C           -0.682166358136     0.086903780467     0.370881530180    12.000000000000
         C           -1.348565858136     1.211419480467    -0.454337069820    12.000000000000
         C            0.731310141864    -0.094589519533     0.024836930180    12.000000000000
         H           -0.742771858136     0.401648480467     1.449890930180     1.007825032230
         H           -1.298471858136     0.933136480467    -1.508536069820     1.007825032230
         H           -0.831097858136     2.160247480467    -0.302530069820     1.007825032230
         H           -2.400347858136     1.341780480467    -0.180443069820     1.007825032230
         H           -2.284336058136    -1.070956419533     0.502580030180     1.007825032230
         H            2.357569141864     0.842910480467     0.032485930180     1.007825032230

  Basis Set: AUG-CC-PVTZ
    Blend: AUG-CC-PVTZ
  Basis Set: (AUG-CC-PVTZ AUX)
    Blend: AUG-CC-PVTZ-JKFIT
	 Reference Energy          =    -341.8263157218963215 [Eh]
	 Singles Energy            =      -0.0000000000000000 [Eh]
	 Same-Spin Energy          =      -0.3269011830279618 [Eh]
	 Opposite-Spin Energy      =      -1.0124637565803791 [Eh]
	 Correlation Energy        =      -1.3393649396083409 [Eh]
	 Total Energy              =    -343.1656806615046662 [Eh]

	 ================> DF-SCS-MP2 Energies <==================
	-----------------------------------------------------------
	 SCS Same-Spin Scale       =       0.3333333333333333 [-]
	 SCS Opposite-Spin Scale   =       1.2000000000000000 [-]
	 SCS Same-Spin Energy      =      -0.1089670610093206 [Eh]
	 SCS Opposite-Spin Energy  =      -1.2149565078964548 [Eh]
	 SCS Correlation Energy    =      -1.3239235689057753 [Eh]
	 SCS Total Energy          =    -343.1502392908021193 [Eh]
	-----------------------------------------------------------

  Dipole Moment: [D]
     X:    -1.3379      Y:     2.6759      Z:     1.0504     Total:     3.1708

*** Psi4 exiting successfully. Buy a developer a beer!
