                               Psi4 1.4a3.dev225

  ==> Input File <==

--------------------------------------------------------------------------
#psi4
#
memory 32 gb

molecule  {
0 1
  O        1.3501930    -1.1356630    -0.2433140
  O       -1.5558540     0.8884770    -0.3921630
  O       -1.2169910    -1.1507310     0.5497490
  C        0.6386767     0.1393503    -0.3987581
  C        1.2396040     1.1907030     0.5015680
  C       -0.7811570    -0.1720460    -0.0200300
  H        0.6688980     0.4337360    -1.4405180
  H        1.2084250     0.8592770     1.5425200
  H        0.6765780     2.1206880     0.3977210
  H        2.2819130     1.3850820     0.2293300
  H        2.2793940    -0.9684070    -0.4767370
  H       -2.4621080     0.6654070    -0.0949290
units angstrom
no_reorient  #important for SAPT in psi4, default
symmetry c1  #important for SAPT in psi4, default
}

set PROPERTIES_ORIGIN ["COM"]
properties('MP2/aug-cc-pvtz', properties = ['dipole'])
--------------------------------------------------------------------------

    Molecular point group: c1
  Charge       = 0
  Multiplicity = 1
  Basis Set: AUG-CC-PVTZ
    Blend: AUG-CC-PVTZ
  Basis Set: (AUG-CC-PVTZ AUX)
    Blend: AUG-CC-PVTZ-JKFIT

    Orbital Energies [Eh]
    ---------------------

    Doubly Occupied:

       1A    -20.619892     2A    -20.569843     3A    -20.556899
       4A    -11.392148     5A    -11.313622     6A    -11.242147
       7A     -1.464960     8A     -1.368097     9A     -1.352070
      10A     -1.063091    11A     -0.926280    12A     -0.801079
      13A     -0.729663    14A     -0.704612    15A     -0.654830
      16A     -0.650927    17A     -0.615025    18A     -0.600904
      19A     -0.564328    20A     -0.557683    21A     -0.518528
      22A     -0.486145    23A     -0.467797    24A     -0.455323

  @DF-RHF Final Energy:  -341.82542351047653

   => Energetics <=

    Nuclear Repulsion Energy =            248.4346739805120592
    One-Electron Energy =                -961.1684077197619445
    Two-Electron Energy =                 370.9083102287733027
    Total Energy =                       -341.8254235104765257
  Basis Set: (AUG-CC-PVTZ AUX)
    Blend: AUG-CC-PVTZ-RI
    Molecular point group: c1

    Geometry (in Angstrom), charge = 0, multiplicity = 1:

       Center              X                  Y                   Z               Mass
    ------------   -----------------  -----------------  -----------------  -----------------
         O            1.404620524301    -1.091983795085    -0.240878916617    15.994914619570
         O           -1.501426475699     0.932156204915    -0.389727916617    15.994914619570
         O           -1.162563475699    -1.107051795085     0.552184083383    15.994914619570
         C            0.693104224301     0.183029504915    -0.396323016617    12.000000000000
         C            1.294031524301     1.234382204915     0.504003083383    12.000000000000
         C           -0.726729475699    -0.128366795085    -0.017594916617    12.000000000000
         H            0.723325524301     0.477415204915    -1.438082916617     1.007825032230
         H            1.262852524301     0.902956204915     1.544955083383     1.007825032230
         H            0.731005524301     2.164367204915     0.400156083383     1.007825032230
         H            2.336340524301     1.428761204915     0.231765083383     1.007825032230
         H            2.333821524301    -0.924727795085    -0.474301916617     1.007825032230
         H           -2.407680475699     0.709086204915    -0.092493916617     1.007825032230

  Basis Set: AUG-CC-PVTZ
    Blend: AUG-CC-PVTZ
  Basis Set: (AUG-CC-PVTZ AUX)
    Blend: AUG-CC-PVTZ-JKFIT
	 Reference Energy          =    -341.8254235104765257 [Eh]
	 Singles Energy            =      -0.0000000000000000 [Eh]
	 Same-Spin Energy          =      -0.3271630609428884 [Eh]
	 Opposite-Spin Energy      =      -1.0137909902891122 [Eh]
	 Correlation Energy        =      -1.3409540512320006 [Eh]
	 Total Energy              =    -343.1663775617085435 [Eh]

	 ================> DF-SCS-MP2 Energies <==================
	-----------------------------------------------------------
	 SCS Same-Spin Scale       =       0.3333333333333333 [-]
	 SCS Opposite-Spin Scale   =       1.2000000000000000 [-]
	 SCS Same-Spin Energy      =      -0.1090543536476295 [Eh]
	 SCS Opposite-Spin Energy  =      -1.2165491883469346 [Eh]
	 SCS Correlation Energy    =      -1.3256035419945640 [Eh]
	 SCS Total Energy          =    -343.1510270524710791 [Eh]
	-----------------------------------------------------------

  Dipole Moment: [D]
     X:     1.1101      Y:     2.9374      Z:    -0.9449     Total:     3.2792

*** Psi4 exiting successfully. Buy a developer a beer!
