                               Psi4 1.4a3.dev225

  ==> Input File <==

--------------------------------------------------------------------------
#psi4
#
memory 32 gb

molecule  {
0 1
  O        1.3501930    -1.1356630    -0.2433140
  O       -1.5558540     0.8884770    -0.3921630
  O       -1.2169910    -1.1507310     0.5497490
  C        0.6629050     0.0959340    -0.3934650
  C        1.2396040     1.1907030     0.5015680
  C       -0.7811570    -0.1720460    -0.0200300
  H        0.6688980     0.4337360    -1.4405180
  H        1.2084250     0.8592770     1.5425200
  H        0.6765780     2.1206880     0.3977210
  H        2.2819130     1.3850820     0.2293300
  H        2.2793940    -0.9684070    -0.4767370
  H       -2.4806126     0.6608522    -0.0888599
units angstrom
no_reorient  #important for SAPT in psi4, default
symmetry c1  #important for SAPT in psi4, default
}

set PROPERTIES_ORIGIN ["COM"]
properties('MP2/aug-cc-pvtz', properties = ['dipole'])
--------------------------------------------------------------------------

    Molecular point group: c1
  Charge       = 0
  Multiplicity = 1
  Basis Set: AUG-CC-PVTZ
    Blend: AUG-CC-PVTZ
  Basis Set: (AUG-CC-PVTZ AUX)
    Blend: AUG-CC-PVTZ-JKFIT

    Orbital Energies [Eh]
    ---------------------

    Doubly Occupied:

       1A    -20.620641     2A    -20.575291     3A    -20.554197
       4A    -11.389881     5A    -11.313681     6A    -11.240773
       7A     -1.460722     8A     -1.380472     9A     -1.355500
      10A     -1.055104    11A     -0.920963    12A     -0.799505
      13A     -0.729643    14A     -0.701994    15A     -0.659188
      16A     -0.654341    17A     -0.616565    18A     -0.600863
      19A     -0.562850    20A     -0.556968    21A     -0.523501
      22A     -0.484691    23A     -0.463679    24A     -0.450744

  @DF-RHF Final Energy:  -341.82770152038921

   => Energetics <=

    Nuclear Repulsion Energy =            248.4646622481252791
    One-Electron Energy =                -961.2412139924904295
    Two-Electron Energy =                 370.9488502239759669
    Total Energy =                       -341.8277015203892120
  Basis Set: (AUG-CC-PVTZ AUX)
    Blend: AUG-CC-PVTZ-RI
    Molecular point group: c1

    Geometry (in Angstrom), charge = 0, multiplicity = 1:

       Center              X                  Y                   Z               Mass
    ------------   -----------------  -----------------  -----------------  -----------------
         O            1.401598364119    -1.086146005993    -0.241652353034    15.994914619570
         O           -1.504448635881     0.937993994007    -0.390501353034    15.994914619570
         O           -1.165585635881    -1.101214005993     0.551410646966    15.994914619570
         C            0.714310364119     0.145450994007    -0.391803353034    12.000000000000
         C            1.291009364119     1.240219994007     0.503229646966    12.000000000000
         C           -0.729751635881    -0.122529005993    -0.018368353034    12.000000000000
         H            0.720303364119     0.483252994007    -1.438856353034     1.007825032230
         H            1.259830364119     0.908793994007     1.544181646966     1.007825032230
         H            0.727983364119     2.170204994007     0.399382646966     1.007825032230
         H            2.333318364119     1.434598994007     0.230991646966     1.007825032230
         H            2.330799364119    -0.918890005993    -0.475075353034     1.007825032230
         H           -2.429207235881     0.710369194007    -0.087198253034     1.007825032230

  Basis Set: AUG-CC-PVTZ
    Blend: AUG-CC-PVTZ
  Basis Set: (AUG-CC-PVTZ AUX)
    Blend: AUG-CC-PVTZ-JKFIT
	 Reference Energy          =    -341.8277015203892120 [Eh]
	 Singles Energy            =      -0.0000000000000000 [Eh]
	 Same-Spin Energy          =      -0.3270508306232955 [Eh]
	 Opposite-Spin Energy      =      -1.0130783096555716 [Eh]
	 Correlation Energy        =      -1.3401291402788671 [Eh]
	 Total Energy              =    -343.1678306606680735 [Eh]

	 ================> DF-SCS-MP2 Energies <==================
	-----------------------------------------------------------
	 SCS Same-Spin Scale       =       0.3333333333333333 [-]
	 SCS Opposite-Spin Scale   =       1.2000000000000000 [-]
	 SCS Same-Spin Energy      =      -0.1090169435410985 [Eh]
	 SCS Opposite-Spin Energy  =      -1.2156939715866859 [Eh]
	 SCS Correlation Energy    =      -1.3247109151277845 [Eh]
	 SCS Total Energy          =    -343.1524124355170215 [Eh]
	-----------------------------------------------------------

  Dipole Moment: [D]
     X:     1.1889      Y:     2.7943      Z:    -0.9529     Total:     3.1827

*** Psi4 exiting successfully. Buy a developer a beer!
