                               Psi4 1.3.2 release

  ==> Input File <==

--------------------------------------------------------------------------
#psi4
#
memory 32 gb

molecule  {
0 1
  O       -1.3597980    -1.1437690     0.1887320
  O        1.4419330     1.0393260     0.2985870
  O        1.2366830    -1.0978030    -0.4508720
  C       -0.7180600     0.1031850     0.3873850
  C       -1.3431230     1.2084980    -0.4569850
  C        0.6780762    -0.0648422     0.0467768
  H       -0.7373290     0.3987270     1.4472430
  H       -1.2930290     0.9302150    -1.5111840
  H       -0.8256550     2.1573260    -0.3051780
  H       -2.3949050     1.3388590    -0.1830910
  H       -2.2729280    -1.0415480     0.5084360
  H        2.3761690     0.8872840     0.0447484
units angstrom
no_reorient  #important for SAPT in psi4, default
symmetry c1  #important for SAPT in psi4, default
}

set PROPERTIES_ORIGIN ["COM"]
properties('MP2/aug-cc-pvtz', properties = ['dipole'])
--------------------------------------------------------------------------

    Molecular point group: c1
  Charge       = 0
  Multiplicity = 1
  Basis Set: AUG-CC-PVTZ
    Blend: AUG-CC-PVTZ
  Basis Set: (AUG-CC-PVTZ AUX)
    Blend: AUG-CC-PVTZ-JKFIT

    Orbital Energies [Eh]
    ---------------------

    Doubly Occupied:

       1A    -20.619952     2A    -20.579447     3A    -20.546324
       4A    -11.397126     5A    -11.316550     6A    -11.244314
       7A     -1.452120     8A     -1.385528     9A     -1.321788
      10A     -1.072766    11A     -0.936292    12A     -0.811971
      13A     -0.737307    14A     -0.693189    15A     -0.664065
      16A     -0.654460    17A     -0.609014    18A     -0.595100
      19A     -0.568833    20A     -0.557342    21A     -0.521959
      22A     -0.472800    23A     -0.459157    24A     -0.449825

  @DF-RHF Final Energy:  -341.81368199059671

   => Energetics <=

    Nuclear Repulsion Energy =            248.6569377528592497
    One-Electron Energy =                -961.6067778378100002
    Two-Electron Energy =                 371.1361580943540730
    Total Energy =                       -341.8136819905967059
  Basis Set: (AUG-CC-PVTZ AUX)
    Blend: AUG-CC-PVTZ-RI
    Molecular point group: c1

    Geometry (in Angstrom), charge = 0, multiplicity = 1:

       Center              X                  Y                   Z               Mass
    ------------   -----------------  -----------------  -----------------  -----------------
         O           -1.352124501940    -1.148652615003     0.185287987521    15.994914619570
         O            1.449606498060     1.034442384997     0.295142987521    15.994914619570
         O            1.244356498060    -1.102686615003    -0.454316012479    15.994914619570
         C           -0.710386501940     0.098301384997     0.383940987521    12.000000000000
         C           -1.335449501940     1.203614384997    -0.460429012479    12.000000000000
         C            0.685749698060    -0.069725815003     0.043332787521    12.000000000000
         H           -0.729655501940     0.393843384997     1.443798987521     1.007825032230
         H           -1.285355501940     0.925331384997    -1.514628012479     1.007825032230
         H           -0.817981501940     2.152442384997    -0.308622012479     1.007825032230
         H           -2.387231501940     1.333975384997    -0.186535012479     1.007825032230
         H           -2.265254501940    -1.046431615003     0.504991987521     1.007825032230
         H            2.383842498060     0.882400384997     0.041304387521     1.007825032230

  Basis Set: AUG-CC-PVTZ
    Blend: AUG-CC-PVTZ
  Basis Set: (AUG-CC-PVTZ AUX)
    Blend: AUG-CC-PVTZ-JKFIT
	 Reference Energy          =    -341.8136819905967059 [Eh]
	 Singles Energy            =      -0.0000000000000000 [Eh]
	 Same-Spin Energy          =      -0.3285618399477132 [Eh]
	 Opposite-Spin Energy      =      -1.0158418938147717 [Eh]
	 Correlation Energy        =      -1.3444037337624850 [Eh]
	 Total Energy              =    -343.1580857243591822 [Eh]

	 ================> DF-SCS-MP2 Energies <==================
	-----------------------------------------------------------
	 SCS Same-Spin Scale       =       0.3333333333333333 [-]
	 SCS Opposite-Spin Scale   =       1.2000000000000000 [-]
	 SCS Same-Spin Energy      =      -0.1095206133159044 [Eh]
	 SCS Opposite-Spin Energy  =      -1.2190102725777261 [Eh]
	 SCS Correlation Energy    =      -1.3285308858936304 [Eh]
	 SCS Total Energy          =    -343.1422128764903619 [Eh]
	-----------------------------------------------------------

  Dipole Moment: [D]
     X:    -1.5742      Y:     3.0009      Z:     1.1873     Total:     3.5907

*** Psi4 exiting successfully. Buy a developer a beer!
