                               Psi4 1.3.2 release

  ==> Input File <==

--------------------------------------------------------------------------
#psi4
#
memory 32 gb

molecule  {
0 1
  O       -1.3597980    -1.1437690     0.1887320
  O        1.4419330     1.0393260     0.2985870
  O        1.2366830    -1.0978030    -0.4508720
  C       -0.7232787     0.1173156     0.4093264
  C       -1.3431230     1.2084980    -0.4569850
  C        0.7367530    -0.0975110     0.0221890
  H       -0.7373290     0.3987270     1.4472430
  H       -1.3016185     0.9465950    -1.5157440
  H       -0.8256550     2.1573260    -0.3051780
  H       -2.3949050     1.3388590    -0.1830910
  H       -2.2729280    -1.0415480     0.5084360
  H        2.3630120     0.8399890     0.0298380
units angstrom
no_reorient  #important for SAPT in psi4, default
symmetry c1  #important for SAPT in psi4, default
}

set PROPERTIES_ORIGIN ["COM"]
properties('MP2/aug-cc-pvtz', properties = ['dipole'])
--------------------------------------------------------------------------

    Molecular point group: c1
  Charge       = 0
  Multiplicity = 1
  Basis Set: AUG-CC-PVTZ
    Blend: AUG-CC-PVTZ
  Basis Set: (AUG-CC-PVTZ AUX)
    Blend: AUG-CC-PVTZ-JKFIT

    Orbital Energies [Eh]
    ---------------------

    Doubly Occupied:

       1A    -20.619422     2A    -20.574230     3A    -20.555199
       4A    -11.390901     5A    -11.313144     6A    -11.239170
       7A     -1.462865     8A     -1.377335     9A     -1.356126
      10A     -1.055461    11A     -0.920313    12A     -0.803133
      13A     -0.732985    14A     -0.705008    15A     -0.659633
      16A     -0.648307    17A     -0.613296    18A     -0.600706
      19A     -0.566486    20A     -0.556547    21A     -0.522789
      22A     -0.485122    23A     -0.466628    24A     -0.450581

  @DF-RHF Final Energy:  -341.82781128312411

   => Energetics <=

    Nuclear Repulsion Energy =            248.3879287148006370
    One-Electron Energy =                -961.0807070933377645
    Two-Electron Energy =                 370.8649670954130215
    Total Energy =                       -341.8278112831241060
  Basis Set: (AUG-CC-PVTZ AUX)
    Blend: AUG-CC-PVTZ-RI
    Molecular point group: c1

    Geometry (in Angstrom), charge = 0, multiplicity = 1:

       Center              X                  Y                   Z               Mass
    ------------   -----------------  -----------------  -----------------  -----------------
         O           -1.359006306614    -1.145835659112     0.185858670512    15.994914619570
         O            1.442724693386     1.037259340888     0.295713670512    15.994914619570
         O            1.237474693386    -1.099869659112    -0.453745329488    15.994914619570
         C           -0.722487006614     0.115248940888     0.406453070512    12.000000000000
         C           -1.342331306614     1.206431340888    -0.459858329488    12.000000000000
         C            0.737544693386    -0.099577659112     0.019315670512    12.000000000000
         H           -0.736537306614     0.396660340888     1.444369670512     1.007825032230
         H           -1.300826806614     0.944528340888    -1.518617329488     1.007825032230
         H           -0.824863306614     2.155259340888    -0.308051329488     1.007825032230
         H           -2.394113306614     1.336792340888    -0.185964329488     1.007825032230
         H           -2.272136306614    -1.043614659112     0.505562670512     1.007825032230
         H            2.363803693386     0.837922340888     0.026964670512     1.007825032230

  Basis Set: AUG-CC-PVTZ
    Blend: AUG-CC-PVTZ
  Basis Set: (AUG-CC-PVTZ AUX)
    Blend: AUG-CC-PVTZ-JKFIT
	 Reference Energy          =    -341.8278112831241060 [Eh]
	 Singles Energy            =      -0.0000000000000000 [Eh]
	 Same-Spin Energy          =      -0.3268888376013969 [Eh]
	 Opposite-Spin Energy      =      -1.0128569469700102 [Eh]
	 Correlation Energy        =      -1.3397457845714071 [Eh]
	 Total Energy              =    -343.1675570676954976 [Eh]

	 ================> DF-SCS-MP2 Energies <==================
	-----------------------------------------------------------
	 SCS Same-Spin Scale       =       0.3333333333333333 [-]
	 SCS Opposite-Spin Scale   =       1.2000000000000000 [-]
	 SCS Same-Spin Energy      =      -0.1089629458671323 [Eh]
	 SCS Opposite-Spin Energy  =      -1.2154283363640122 [Eh]
	 SCS Correlation Energy    =      -1.3243912822311446 [Eh]
	 SCS Total Energy          =    -343.1522025653552532 [Eh]
	-----------------------------------------------------------

  Dipole Moment: [D]
     X:    -1.2882      Y:     2.7450      Z:     1.0792     Total:     3.2185

*** Psi4 exiting successfully. Buy a developer a beer!
