                               Psi4 1.3.2 release

  ==> Input File <==

--------------------------------------------------------------------------
#psi4
#
memory 32 gb

molecule  {
0 1
  O       -1.3597980    -1.1437690     0.1887320
  O        1.4419330     1.0393260     0.2985870
  O        1.2366830    -1.0978030    -0.4508720
  C       -0.7815148     0.1291337     0.4156511
  C       -1.3431230     1.2084980    -0.4569850
  C        0.7367530    -0.0975110     0.0221890
  H       -0.7373290     0.3987270     1.4472430
  H       -1.2930290     0.9302150    -1.5111840
  H       -0.8256550     2.1573260    -0.3051780
  H       -2.3949050     1.3388590    -0.1830910
  H       -2.2618970    -0.9932989     0.5204584
  H        2.3630120     0.8399890     0.0298380
units angstrom
no_reorient  #important for SAPT in psi4, default
symmetry c1  #important for SAPT in psi4, default
}

set PROPERTIES_ORIGIN ["COM"]
properties('MP2/aug-cc-pvtz', properties = ['dipole'])
--------------------------------------------------------------------------

    Molecular point group: c1
  Charge       = 0
  Multiplicity = 1
  Basis Set: AUG-CC-PVTZ
    Blend: AUG-CC-PVTZ
  Basis Set: (AUG-CC-PVTZ AUX)
    Blend: AUG-CC-PVTZ-JKFIT

    Orbital Energies [Eh]
    ---------------------

    Doubly Occupied:

       1A    -20.618076     2A    -20.579009     3A    -20.553982
       4A    -11.389268     5A    -11.314035     6A    -11.238202
       7A     -1.460178     8A     -1.385832     9A     -1.355819
      10A     -1.055833    11A     -0.911727    12A     -0.802140
      13A     -0.734231    14A     -0.704109    15A     -0.659807
      16A     -0.645876    17A     -0.617784    18A     -0.598818
      19A     -0.573676    20A     -0.553558    21A     -0.526390
      22A     -0.483801    23A     -0.473482    24A     -0.441157

  @DF-RHF Final Energy:  -341.82171746328493

   => Energetics <=

    Nuclear Repulsion Energy =            248.0820699357030890
    One-Electron Energy =                -960.4539965986430161
    Two-Electron Energy =                 370.5502091996550007
    Total Energy =                       -341.8217174632849265
  Basis Set: (AUG-CC-PVTZ AUX)
    Blend: AUG-CC-PVTZ-RI
    Molecular point group: c1

    Geometry (in Angstrom), charge = 0, multiplicity = 1:

       Center              X                  Y                   Z               Mass
    ------------   -----------------  -----------------  -----------------  -----------------
         O           -1.351463860855    -1.147767597399     0.184830048772    15.994914619570
         O            1.450267139145     1.035327402601     0.294685048772    15.994914619570
         O            1.245017139145    -1.101801597399    -0.454773951228    15.994914619570
         C           -0.773180660855     0.125135102601     0.411749148772    12.000000000000
         C           -1.334788860855     1.204499402601    -0.460886951228    12.000000000000
         C            0.745087139145    -0.101509597399     0.018287048772    12.000000000000
         H           -0.728994860855     0.394728402601     1.443341048772     1.007825032230
         H           -1.284694860855     0.926216402601    -1.515085951228     1.007825032230
         H           -0.817320860855     2.153327402601    -0.309079951228     1.007825032230
         H           -2.386570860855     1.334860402601    -0.186992951228     1.007825032230
         H           -2.253562860855    -0.997297497399     0.516556448772     1.007825032230
         H            2.371346139145     0.835990402601     0.025936048772     1.007825032230

  Basis Set: AUG-CC-PVTZ
    Blend: AUG-CC-PVTZ
  Basis Set: (AUG-CC-PVTZ AUX)
    Blend: AUG-CC-PVTZ-JKFIT
	 Reference Energy          =    -341.8217174632849265 [Eh]
	 Singles Energy            =      -0.0000000000000000 [Eh]
	 Same-Spin Energy          =      -0.3273015205394748 [Eh]
	 Opposite-Spin Energy      =      -1.0135168485734281 [Eh]
	 Correlation Energy        =      -1.3408183691129028 [Eh]
	 Total Energy              =    -343.1625358323978503 [Eh]

	 ================> DF-SCS-MP2 Energies <==================
	-----------------------------------------------------------
	 SCS Same-Spin Scale       =       0.3333333333333333 [-]
	 SCS Opposite-Spin Scale   =       1.2000000000000000 [-]
	 SCS Same-Spin Energy      =      -0.1091005068464916 [Eh]
	 SCS Opposite-Spin Energy  =      -1.2162202182881137 [Eh]
	 SCS Correlation Energy    =      -1.3253207251346053 [Eh]
	 SCS Total Energy          =    -343.1470381884195149 [Eh]
	-----------------------------------------------------------

  Dipole Moment: [D]
     X:    -1.3074      Y:     2.7715      Z:     1.0723     Total:     3.2466

*** Psi4 exiting successfully. Buy a developer a beer!
