                               Psi4 1.4a3.dev225

  ==> Input File <==

--------------------------------------------------------------------------
#psi4
#
memory 32 gb

molecule  {
0 1
  O        1.3501930    -1.1356630    -0.2433140
  O       -1.5558540     0.8884770    -0.3921630
  O       -1.2169910    -1.1507310     0.5497490
  C        0.6629050     0.0959340    -0.3934650
  C        1.2396040     1.1907030     0.5015680
  C       -0.7811570    -0.1720460    -0.0200300
  H        0.6686256     0.4183843    -1.3929338
  H        1.2084250     0.8592770     1.5425200
  H        0.6765780     2.1206880     0.3977210
  H        2.2819130     1.3850820     0.2293300
  H        2.2793940    -0.9684070    -0.4767370
  H       -2.4621080     0.6654070    -0.0949290
units angstrom
no_reorient  #important for SAPT in psi4, default
symmetry c1  #important for SAPT in psi4, default
}

set PROPERTIES_ORIGIN ["COM"]
properties('MP2/aug-cc-pvtz', properties = ['dipole'])
--------------------------------------------------------------------------

    Molecular point group: c1
  Charge       = 0
  Multiplicity = 1
  Basis Set: AUG-CC-PVTZ
    Blend: AUG-CC-PVTZ
  Basis Set: (AUG-CC-PVTZ AUX)
    Blend: AUG-CC-PVTZ-JKFIT

    Orbital Energies [Eh]
    ---------------------

    Doubly Occupied:

       1A    -20.619622     2A    -20.574588     3A    -20.554354
       4A    -11.389881     5A    -11.307834     6A    -11.240485
       7A     -1.463496     8A     -1.380764     9A     -1.356880
      10A     -1.057790    11A     -0.923024    12A     -0.805001
      13A     -0.736358    14A     -0.703985    15A     -0.659737
      16A     -0.654850    17A     -0.617708    18A     -0.602044
      19A     -0.563030    20A     -0.557256    21A     -0.525232
      22A     -0.485204    23A     -0.465621    24A     -0.451245

  @DF-RHF Final Energy:  -341.82865846871658

   => Energetics <=

    Nuclear Repulsion Energy =            248.8487579337052296
    One-Electron Energy =                -961.9628526273860416
    Two-Electron Energy =                 371.2854362249642577
    Total Energy =                       -341.8286584687165828
  Basis Set: (AUG-CC-PVTZ AUX)
    Blend: AUG-CC-PVTZ-RI
    Molecular point group: c1

    Geometry (in Angstrom), charge = 0, multiplicity = 1:

       Center              X                  Y                   Z               Mass
    ------------   -----------------  -----------------  -----------------  -----------------
         O            1.401394270797    -1.086025144265    -0.242117077789    15.994914619570
         O           -1.504652729203     0.938114855735    -0.390966077789    15.994914619570
         O           -1.165789729203    -1.101093144265     0.550945922211    15.994914619570
         C            0.714106270797     0.145571855735    -0.392268077789    12.000000000000
         C            1.290805270797     1.240340855735     0.502764922211    12.000000000000
         C           -0.729955729203    -0.122408144265    -0.018833077789    12.000000000000
         H            0.719826870797     0.468022155735    -1.391736877789     1.007825032230
         H            1.259626270797     0.908914855735     1.543716922211     1.007825032230
         H            0.727779270797     2.170325855735     0.398917922211     1.007825032230
         H            2.333114270797     1.434719855735     0.230526922211     1.007825032230
         H            2.330595270797    -0.918769144265    -0.475540077789     1.007825032230
         H           -2.410906729203     0.715044855735    -0.093732077789     1.007825032230

  Basis Set: AUG-CC-PVTZ
    Blend: AUG-CC-PVTZ
  Basis Set: (AUG-CC-PVTZ AUX)
    Blend: AUG-CC-PVTZ-JKFIT
	 Reference Energy          =    -341.8286584687165828 [Eh]
	 Singles Energy            =      -0.0000000000000000 [Eh]
	 Same-Spin Energy          =      -0.3267255262045661 [Eh]
	 Opposite-Spin Energy      =      -1.0121369891495016 [Eh]
	 Correlation Energy        =      -1.3388625153540676 [Eh]
	 Total Energy              =    -343.1675209840706771 [Eh]

	 ================> DF-SCS-MP2 Energies <==================
	-----------------------------------------------------------
	 SCS Same-Spin Scale       =       0.3333333333333333 [-]
	 SCS Opposite-Spin Scale   =       1.2000000000000000 [-]
	 SCS Same-Spin Energy      =      -0.1089085087348554 [Eh]
	 SCS Opposite-Spin Energy  =      -1.2145643869794018 [Eh]
	 SCS Correlation Energy    =      -1.3234728957142572 [Eh]
	 SCS Total Energy          =    -343.1521313644308293 [Eh]
	-----------------------------------------------------------

  Dipole Moment: [D]
     X:     1.2051      Y:     2.8086      Z:    -0.9786     Total:     3.2091

*** Psi4 exiting successfully. Buy a developer a beer!
