                               Psi4 1.3.2 release

  ==> Input File <==

--------------------------------------------------------------------------
#psi4
#
memory 32 gb

molecule  {
0 1
  O       -1.3597980    -1.1437690     0.1887320
  O        1.4419330     1.0393260     0.2985870
  O        1.2366830    -1.0978030    -0.4508720
  C       -0.7076506     0.0985259     0.3826189
  C       -1.3431230     1.2084980    -0.4569850
  C        0.7367530    -0.0975110     0.0221890
  H       -0.7373290     0.3987270     1.4472430
  H       -1.2930290     0.9302150    -1.5111840
  H       -0.8256550     2.1573260    -0.3051780
  H       -2.3949050     1.3388590    -0.1830910
  H       -2.2745239    -1.0496203     0.5063462
  H        2.3630120     0.8399890     0.0298380
units angstrom
no_reorient  #important for SAPT in psi4, default
symmetry c1  #important for SAPT in psi4, default
}

set PROPERTIES_ORIGIN ["COM"]
properties('MP2/aug-cc-pvtz', properties = ['dipole'])
--------------------------------------------------------------------------

    Molecular point group: c1
  Charge       = 0
  Multiplicity = 1
  Basis Set: AUG-CC-PVTZ
    Blend: AUG-CC-PVTZ
  Basis Set: (AUG-CC-PVTZ AUX)
    Blend: AUG-CC-PVTZ-JKFIT

    Orbital Energies [Eh]
    ---------------------

    Doubly Occupied:

       1A    -20.619907     2A    -20.574551     3A    -20.554879
       4A    -11.390510     5A    -11.313591     6A    -11.239305
       7A     -1.463709     8A     -1.381127     9A     -1.356883
      10A     -1.055994    11A     -0.923201    12A     -0.802874
      13A     -0.730522    14A     -0.704898    15A     -0.663667
      16A     -0.651375    17A     -0.613146    18A     -0.603211
      19A     -0.563852    20A     -0.558868    21A     -0.521028
      22A     -0.485515    23A     -0.461556    24A     -0.452564

  @DF-RHF Final Energy:  -341.82889216964929

   => Energetics <=

    Nuclear Repulsion Energy =            248.8137429205596902
    One-Electron Energy =                -961.9118060840613680
    Two-Electron Energy =                 371.2691709938524127
    Total Energy =                       -341.8288921696492935
  Basis Set: (AUG-CC-PVTZ AUX)
    Blend: AUG-CC-PVTZ-RI
    Molecular point group: c1

    Geometry (in Angstrom), charge = 0, multiplicity = 1:

       Center              X                  Y                   Z               Mass
    ------------   -----------------  -----------------  -----------------  -----------------
         O           -1.361167606889    -1.143057525893     0.189390765226    15.994914619570
         O            1.440563393111     1.040037474107     0.299245765226    15.994914619570
         O            1.235313393111    -1.097091525893    -0.450213234774    15.994914619570
         C           -0.709020206889     0.099237374107     0.383277665226    12.000000000000
         C           -1.344492606889     1.209209474107    -0.456326234774    12.000000000000
         C            0.735383393111    -0.096799525893     0.022847765226    12.000000000000
         H           -0.738698606889     0.399438474107     1.447901765226     1.007825032230
         H           -1.294398606889     0.930926474107    -1.510525234774     1.007825032230
         H           -0.827024606889     2.158037474107    -0.304519234774     1.007825032230
         H           -2.396274606889     1.339570474107    -0.182432234774     1.007825032230
         H           -2.275893506889    -1.048908825893     0.507004965226     1.007825032230
         H            2.361642393111     0.840700474107     0.030496765226     1.007825032230

  Basis Set: AUG-CC-PVTZ
    Blend: AUG-CC-PVTZ
  Basis Set: (AUG-CC-PVTZ AUX)
    Blend: AUG-CC-PVTZ-JKFIT
	 Reference Energy          =    -341.8288921696492935 [Eh]
	 Singles Energy            =      -0.0000000000000000 [Eh]
	 Same-Spin Energy          =      -0.3268535682520931 [Eh]
	 Opposite-Spin Energy      =      -1.0124787933628057 [Eh]
	 Correlation Energy        =      -1.3393323616148987 [Eh]
	 Total Energy              =    -343.1682245312641726 [Eh]

	 ================> DF-SCS-MP2 Energies <==================
	-----------------------------------------------------------
	 SCS Same-Spin Scale       =       0.3333333333333333 [-]
	 SCS Opposite-Spin Scale   =       1.2000000000000000 [-]
	 SCS Same-Spin Energy      =      -0.1089511894173643 [Eh]
	 SCS Opposite-Spin Energy  =      -1.2149745520353668 [Eh]
	 SCS Correlation Energy    =      -1.3239257414527310 [Eh]
	 SCS Total Energy          =    -343.1528179111020336 [Eh]
	-----------------------------------------------------------

  Dipole Moment: [D]
     X:    -1.3196      Y:     2.7051      Z:     1.0580     Total:     3.1903

*** Psi4 exiting successfully. Buy a developer a beer!
