                               Psi4 1.3.2 release

  ==> Input File <==

--------------------------------------------------------------------------
#psi4
#
memory 32 gb

molecule  {
0 1
  O       -1.3645361    -1.1449462     0.2129656
  O        1.4419330     1.0393260     0.2985870
  O        1.2366830    -1.0978030    -0.4508720
  C       -0.7180600     0.1031850     0.3873850
  C       -1.3431230     1.2084980    -0.4569850
  C        0.7367530    -0.0975110     0.0221890
  H       -0.7467982     0.3825448     1.4514092
  H       -1.2930290     0.9302150    -1.5111840
  H       -0.8256550     2.1573260    -0.3051780
  H       -2.3949050     1.3388590    -0.1830910
  H       -2.2729280    -1.0415480     0.5084360
  H        2.3630120     0.8399890     0.0298380
units angstrom
no_reorient  #important for SAPT in psi4, default
symmetry c1  #important for SAPT in psi4, default
}

set PROPERTIES_ORIGIN ["COM"]
properties('MP2/aug-cc-pvtz', properties = ['dipole'])
--------------------------------------------------------------------------

    Molecular point group: c1
  Charge       = 0
  Multiplicity = 1
  Basis Set: AUG-CC-PVTZ
    Blend: AUG-CC-PVTZ
  Basis Set: (AUG-CC-PVTZ AUX)
    Blend: AUG-CC-PVTZ-JKFIT

    Orbital Energies [Eh]
    ---------------------

    Doubly Occupied:

       1A    -20.620002     2A    -20.573042     3A    -20.555151
       4A    -11.391030     5A    -11.313628     6A    -11.239659
       7A     -1.463492     8A     -1.383124     9A     -1.357423
      10A     -1.056337    11A     -0.922098    12A     -0.804312
      13A     -0.730593    14A     -0.705124    15A     -0.663240
      16A     -0.652751    17A     -0.614165    18A     -0.603739
      19A     -0.565168    20A     -0.558578    21A     -0.521397
      22A     -0.485588    23A     -0.463169    24A     -0.451548

  @DF-RHF Final Energy:  -341.82973602366593

   => Energetics <=

    Nuclear Repulsion Energy =            248.6295609223570011
    One-Electron Energy =                -961.5298793300466969
    Two-Electron Energy =                 371.0705823840237940
    Total Energy =                       -341.8297360236659301
  Basis Set: (AUG-CC-PVTZ AUX)
    Blend: AUG-CC-PVTZ-RI
    Molecular point group: c1

    Geometry (in Angstrom), charge = 0, multiplicity = 1:

       Center              X                  Y                   Z               Mass
    ------------   -----------------  -----------------  -----------------  -----------------
         O           -1.363588376131    -1.144555797562     0.208613768446    15.994914619570
         O            1.442880723869     1.039716402438     0.294235168446    15.994914619570
         O            1.237630723869    -1.097412597562    -0.455223831554    15.994914619570
         C           -0.717112276131     0.103575402438     0.383033168446    12.000000000000
         C           -1.342175276131     1.208888402438    -0.461336831554    12.000000000000
         C            0.737700723869    -0.097120597562     0.017837168446    12.000000000000
         H           -0.745850476131     0.382935202438     1.447057368446     1.007825032230
         H           -1.292081276131     0.930605402438    -1.515535831554     1.007825032230
         H           -0.824707276131     2.157716402438    -0.309529831554     1.007825032230
         H           -2.393957276131     1.339249402438    -0.187442831554     1.007825032230
         H           -2.271980276131    -1.041157597562     0.504084168446     1.007825032230
         H            2.363959723869     0.840379402438     0.025486168446     1.007825032230

  Basis Set: AUG-CC-PVTZ
    Blend: AUG-CC-PVTZ
  Basis Set: (AUG-CC-PVTZ AUX)
    Blend: AUG-CC-PVTZ-JKFIT
	 Reference Energy          =    -341.8297360236659301 [Eh]
	 Singles Energy            =      -0.0000000000000000 [Eh]
	 Same-Spin Energy          =      -0.3266440357975472 [Eh]
	 Opposite-Spin Energy      =      -1.0120552781759358 [Eh]
	 Correlation Energy        =      -1.3386993139734831 [Eh]
	 Total Energy              =    -343.1684353376394370 [Eh]

	 ================> DF-SCS-MP2 Energies <==================
	-----------------------------------------------------------
	 SCS Same-Spin Scale       =       0.3333333333333333 [-]
	 SCS Opposite-Spin Scale   =       1.2000000000000000 [-]
	 SCS Same-Spin Energy      =      -0.1088813452658491 [Eh]
	 SCS Opposite-Spin Energy  =      -1.2144663338111228 [Eh]
	 SCS Correlation Energy    =      -1.3233476790769718 [Eh]
	 SCS Total Energy          =    -343.1530837027428902 [Eh]
	-----------------------------------------------------------

  Dipole Moment: [D]
     X:    -1.3087      Y:     2.7353      Z:     1.0094     Total:     3.1958

*** Psi4 exiting successfully. Buy a developer a beer!
