                               Psi4 1.4a3.dev225

  ==> Input File <==

--------------------------------------------------------------------------
#psi4
#
memory 32 gb

molecule  {
0 1
  O        1.3501930    -1.1356630    -0.2433140
  O       -1.5558540     0.8884770    -0.3921630
  O       -1.2169910    -1.1507310     0.5497490
  C        0.6629050     0.0959340    -0.3934650
  C        1.2396040     1.1907030     0.5015680
  C       -0.7811570    -0.1720460    -0.0200300
  H        0.6688980     0.4337360    -1.4405180
  H        1.2084250     0.8592770     1.5425200
  H        0.6765780     2.1206880     0.3977210
  H        2.2819130     1.3850820     0.2293300
  H        2.3271648    -0.9598083    -0.4887374
  H       -2.4621080     0.6654070    -0.0949290
units angstrom
no_reorient  #important for SAPT in psi4, default
symmetry c1  #important for SAPT in psi4, default
}

set PROPERTIES_ORIGIN ["COM"]
properties('MP2/aug-cc-pvtz', properties = ['dipole'])
--------------------------------------------------------------------------

    Molecular point group: c1
  Charge       = 0
  Multiplicity = 1
  Basis Set: AUG-CC-PVTZ
    Blend: AUG-CC-PVTZ
  Basis Set: (AUG-CC-PVTZ AUX)
    Blend: AUG-CC-PVTZ-JKFIT

    Orbital Energies [Eh]
    ---------------------

    Doubly Occupied:

       1A    -20.619296     2A    -20.579657     3A    -20.554441
       4A    -11.390122     5A    -11.313225     6A    -11.240532
       7A     -1.463209     8A     -1.373421     9A     -1.354756
      10A     -1.053179    11A     -0.920898    12A     -0.799592
      13A     -0.726891    14A     -0.703049    15A     -0.655475
      16A     -0.652782    17A     -0.616241    18A     -0.601125
      19A     -0.561565    20A     -0.557096    21A     -0.521622
      22A     -0.485081    23A     -0.462613    24A     -0.450723

  @DF-RHF Final Energy:  -341.82417124418112

   => Energetics <=

    Nuclear Repulsion Energy =            248.2896498135485501
    One-Electron Energy =                -960.9144616721596321
    Two-Electron Energy =                 370.8006406144299945
    Total Energy =                       -341.8241712441811160
  Basis Set: (AUG-CC-PVTZ AUX)
    Blend: AUG-CC-PVTZ-RI
    Molecular point group: c1

    Geometry (in Angstrom), charge = 0, multiplicity = 1:

       Center              X                  Y                   Z               Mass
    ------------   -----------------  -----------------  -----------------  -----------------
         O            1.400856469747    -1.086293247769    -0.241450080994    15.994914619570
         O           -1.505190530253     0.937846752231    -0.390299080994    15.994914619570
         O           -1.166327530253    -1.101361247769     0.551612919006    15.994914619570
         C            0.713568469747     0.145303752231    -0.391601080994    12.000000000000
         C            1.290267469747     1.240072752231     0.503431919006    12.000000000000
         C           -0.730493530253    -0.122676247769    -0.018166080994    12.000000000000
         H            0.719561469747     0.483105752231    -1.438654080994     1.007825032230
         H            1.259088469747     0.908646752231     1.544383919006     1.007825032230
         H            0.727241469747     2.170057752231     0.399584919006     1.007825032230
         H            2.332576469747     1.434451752231     0.231193919006     1.007825032230
         H            2.377828269747    -0.910438547769    -0.486873480994     1.007825032230
         H           -2.411444530253     0.714776752231    -0.093065080994     1.007825032230

  Basis Set: AUG-CC-PVTZ
    Blend: AUG-CC-PVTZ
  Basis Set: (AUG-CC-PVTZ AUX)
    Blend: AUG-CC-PVTZ-JKFIT
	 Reference Energy          =    -341.8241712441811160 [Eh]
	 Singles Energy            =      -0.0000000000000000 [Eh]
	 Same-Spin Energy          =      -0.3273590114363760 [Eh]
	 Opposite-Spin Energy      =      -1.0140438924698723 [Eh]
	 Correlation Energy        =      -1.3414029039062483 [Eh]
	 Total Energy              =    -343.1655741480873871 [Eh]

	 ================> DF-SCS-MP2 Energies <==================
	-----------------------------------------------------------
	 SCS Same-Spin Scale       =       0.3333333333333333 [-]
	 SCS Opposite-Spin Scale   =       1.2000000000000000 [-]
	 SCS Same-Spin Energy      =      -0.1091196704787920 [Eh]
	 SCS Opposite-Spin Energy  =      -1.2168526709638467 [Eh]
	 SCS Correlation Energy    =      -1.3259723414426388 [Eh]
	 SCS Total Energy          =    -343.1501435856237663 [Eh]
	-----------------------------------------------------------

  Dipole Moment: [D]
     X:     1.2524      Y:     2.7866      Z:    -0.9668     Total:     3.2044

*** Psi4 exiting successfully. Buy a developer a beer!
