                               Psi4 1.4a3.dev225

  ==> Input File <==

--------------------------------------------------------------------------
#psi4
#
memory 32 gb

molecule  {
0 1
  O        1.3501930    -1.1356630    -0.2433140
  O       -1.5558540     0.8884770    -0.3921630
  O       -1.2169910    -1.1507310     0.5497490
  C        0.6629050     0.0959340    -0.3934650
  C        1.2396040     1.1907030     0.5015680
  C       -0.7811570    -0.1720460    -0.0200300
  H        0.6690069     0.4398767    -1.4595517
  H        1.2084250     0.8592770     1.5425200
  H        0.6765780     2.1206880     0.3977210
  H        2.2819130     1.3850820     0.2293300
  H        2.2793940    -0.9684070    -0.4767370
  H       -2.4621080     0.6654070    -0.0949290
units angstrom
no_reorient  #important for SAPT in psi4, default
symmetry c1  #important for SAPT in psi4, default
}

set PROPERTIES_ORIGIN ["COM"]
properties('MP2/aug-cc-pvtz', properties = ['dipole'])
--------------------------------------------------------------------------

    Molecular point group: c1
  Charge       = 0
  Multiplicity = 1
  Basis Set: AUG-CC-PVTZ
    Blend: AUG-CC-PVTZ
  Basis Set: (AUG-CC-PVTZ AUX)
    Blend: AUG-CC-PVTZ-JKFIT

    Orbital Energies [Eh]
    ---------------------

    Doubly Occupied:

       1A    -20.619391     2A    -20.575764     3A    -20.554706
       4A    -11.390442     5A    -11.316119     6A    -11.241095
       7A     -1.463445     8A     -1.381266     9A     -1.357080
      10A     -1.054935    11A     -0.921812    12A     -0.801846
      13A     -0.727839    14A     -0.703069    15A     -0.660033
      16A     -0.654602    17A     -0.617175    18A     -0.602086
      19A     -0.563004    20A     -0.557545    21A     -0.523190
      22A     -0.485317    23A     -0.463050    24A     -0.450979

  @DF-RHF Final Energy:  -341.82866878556001

   => Energetics <=

    Nuclear Repulsion Energy =            248.4815761204787918
    One-Electron Energy =                -961.2489161230766967
    Two-Electron Energy =                 370.9386712170378360
    Total Energy =                       -341.8286687855600121
  Basis Set: (AUG-CC-PVTZ AUX)
    Blend: AUG-CC-PVTZ-RI
    Molecular point group: c1

    Geometry (in Angstrom), charge = 0, multiplicity = 1:

       Center              X                  Y                   Z               Mass
    ------------   -----------------  -----------------  -----------------  -----------------
         O            1.401390002481    -1.086265732637    -0.241371349433    15.994914619570
         O           -1.504656997519     0.937874267363    -0.390220349433    15.994914619570
         O           -1.165793997519    -1.101333732637     0.551691650567    15.994914619570
         C            0.714102002481     0.145331267363    -0.391522349433    12.000000000000
         C            1.290801002481     1.240100267363     0.503510650567    12.000000000000
         C           -0.729959997519    -0.122648732637    -0.018087349433    12.000000000000
         H            0.720203902481     0.489273967363    -1.457609049433     1.007825032230
         H            1.259622002481     0.908674267363     1.544462650567     1.007825032230
         H            0.727775002481     2.170085267363     0.399663650567     1.007825032230
         H            2.333110002481     1.434479267363     0.231272650567     1.007825032230
         H            2.330591002481    -0.919009732637    -0.474794349433     1.007825032230
         H           -2.410910997519     0.714804267363    -0.092986349433     1.007825032230

  Basis Set: AUG-CC-PVTZ
    Blend: AUG-CC-PVTZ
  Basis Set: (AUG-CC-PVTZ AUX)
    Blend: AUG-CC-PVTZ-JKFIT
	 Reference Energy          =    -341.8286687855600121 [Eh]
	 Singles Energy            =      -0.0000000000000000 [Eh]
	 Same-Spin Energy          =      -0.3268273380115414 [Eh]
	 Opposite-Spin Energy      =      -1.0126374253252854 [Eh]
	 Correlation Energy        =      -1.3394647633368268 [Eh]
	 Total Energy              =    -343.1681335488968330 [Eh]

	 ================> DF-SCS-MP2 Energies <==================
	-----------------------------------------------------------
	 SCS Same-Spin Scale       =       0.3333333333333333 [-]
	 SCS Opposite-Spin Scale   =       1.2000000000000000 [-]
	 SCS Same-Spin Energy      =      -0.1089424460038471 [Eh]
	 SCS Opposite-Spin Energy  =      -1.2151649103903426 [Eh]
	 SCS Correlation Energy    =      -1.3241073563941896 [Eh]
	 SCS Total Energy          =    -343.1527761419541775 [Eh]
	-----------------------------------------------------------

  Dipole Moment: [D]
     X:     1.2172      Y:     2.7881      Z:    -0.9477     Total:     3.1864

*** Psi4 exiting successfully. Buy a developer a beer!
