                               Psi4 1.3.2 release

  ==> Input File <==

--------------------------------------------------------------------------
#psi4
#
memory 32 gb

molecule  {
0 1
  O       -1.3597980    -1.1437690     0.1887320
  O        1.4419330     1.0393260     0.2985870
  O        1.2366830    -1.0978030    -0.4508720
  C       -0.7390246     0.1122180     0.3968714
  C       -1.3431230     1.2084980    -0.4569850
  C        0.7367530    -0.0975110     0.0221890
  H       -0.7373290     0.3987270     1.4472430
  H       -1.2930290     0.9302150    -1.5111840
  H       -0.8256550     2.1573260    -0.3051780
  H       -2.3949050     1.3388590    -0.1830910
  H       -2.2695277    -1.0254273     0.5125425
  H        2.3630120     0.8399890     0.0298380
units angstrom
no_reorient  #important for SAPT in psi4, default
symmetry c1  #important for SAPT in psi4, default
}

set PROPERTIES_ORIGIN ["COM"]
properties('MP2/aug-cc-pvtz', properties = ['dipole'])
--------------------------------------------------------------------------

    Molecular point group: c1
  Charge       = 0
  Multiplicity = 1
  Basis Set: AUG-CC-PVTZ
    Blend: AUG-CC-PVTZ
  Basis Set: (AUG-CC-PVTZ AUX)
    Blend: AUG-CC-PVTZ-JKFIT

    Orbital Energies [Eh]
    ---------------------

    Doubly Occupied:

       1A    -20.619219     2A    -20.576396     3A    -20.554623
       4A    -11.390288     5A    -11.313461     6A    -11.238605
       7A     -1.462256     8A     -1.382917     9A     -1.356599
      10A     -1.055452    11A     -0.918238    12A     -0.802332
      13A     -0.732401    14A     -0.704685    15A     -0.661060
      16A     -0.649345    17A     -0.615231    18A     -0.601284
      19A     -0.567793    20A     -0.556554    21A     -0.523903
      22A     -0.484844    23A     -0.466892    24A     -0.448336

  @DF-RHF Final Energy:  -341.82798267086071

   => Energetics <=

    Nuclear Repulsion Energy =            248.4965240554641355
    One-Electron Energy =                -961.2835835783698712
    Two-Electron Energy =                 370.9590768520450865
    Total Energy =                       -341.8279826708607061
  Basis Set: (AUG-CC-PVTZ AUX)
    Blend: AUG-CC-PVTZ-RI
    Molecular point group: c1

    Geometry (in Angstrom), charge = 0, multiplicity = 1:

       Center              X                  Y                   Z               Mass
    ------------   -----------------  -----------------  -----------------  -----------------
         O           -1.357041807541    -1.145153315748     0.187421738783    15.994914619570
         O            1.444689192459     1.037941684252     0.297276738783    15.994914619570
         O            1.239439192459    -1.099187315748    -0.452182261217    15.994914619570
         C           -0.736268407541     0.110833684252     0.395561138783    12.000000000000
         C           -1.340366807541     1.207113684252    -0.458295261217    12.000000000000
         C            0.739509192459    -0.098895315748     0.020878738783    12.000000000000
         H           -0.734572807541     0.397342684252     1.445932738783     1.007825032230
         H           -1.290272807541     0.928830684252    -1.512494261217     1.007825032230
         H           -0.822898807541     2.155941684252    -0.306488261217     1.007825032230
         H           -2.392148807541     1.337474684252    -0.184401261217     1.007825032230
         H           -2.266771507541    -1.026811615748     0.511232238783     1.007825032230
         H            2.365768192459     0.838604684252     0.028527738783     1.007825032230

  Basis Set: AUG-CC-PVTZ
    Blend: AUG-CC-PVTZ
  Basis Set: (AUG-CC-PVTZ AUX)
    Blend: AUG-CC-PVTZ-JKFIT
	 Reference Energy          =    -341.8279826708607061 [Eh]
	 Singles Energy            =      -0.0000000000000000 [Eh]
	 Same-Spin Energy          =      -0.3269516542446381 [Eh]
	 Opposite-Spin Energy      =      -1.0127548156302832 [Eh]
	 Correlation Energy        =      -1.3397064698749213 [Eh]
	 Total Energy              =    -343.1676891407356038 [Eh]

	 ================> DF-SCS-MP2 Energies <==================
	-----------------------------------------------------------
	 SCS Same-Spin Scale       =       0.3333333333333333 [-]
	 SCS Opposite-Spin Scale   =       1.2000000000000000 [-]
	 SCS Same-Spin Energy      =      -0.1089838847482127 [Eh]
	 SCS Opposite-Spin Energy  =      -1.2153057787563399 [Eh]
	 SCS Correlation Energy    =      -1.3242896635045527 [Eh]
	 SCS Total Energy          =    -343.1522723343652501 [Eh]
	-----------------------------------------------------------

  Dipole Moment: [D]
     X:    -1.3097      Y:     2.7341      Z:     1.0647     Total:     3.2131

*** Psi4 exiting successfully. Buy a developer a beer!
