                               Psi4 1.3.2 release

  ==> Input File <==

--------------------------------------------------------------------------
#psi4
#
memory 32 gb

molecule  {
0 1
  O       -1.3497369    -1.1402755     0.1404537
  O        1.4419330     1.0393260     0.2985870
  O        1.2366830    -1.0978030    -0.4508720
  C       -0.7180600     0.1031850     0.3873850
  C       -1.3431230     1.2084980    -0.4569850
  C        0.7367530    -0.0975110     0.0221890
  H       -0.7183758     0.4308164     1.4379434
  H       -1.2930290     0.9302150    -1.5111840
  H       -0.8256550     2.1573260    -0.3051780
  H       -2.3949050     1.3388590    -0.1830910
  H       -2.2729280    -1.0415480     0.5084360
  H        2.3630120     0.8399890     0.0298380
units angstrom
no_reorient  #important for SAPT in psi4, default
symmetry c1  #important for SAPT in psi4, default
}

set PROPERTIES_ORIGIN ["COM"]
properties('MP2/aug-cc-pvtz', properties = ['dipole'])
--------------------------------------------------------------------------

    Molecular point group: c1
  Charge       = 0
  Multiplicity = 1
  Basis Set: AUG-CC-PVTZ
    Blend: AUG-CC-PVTZ
  Basis Set: (AUG-CC-PVTZ AUX)
    Blend: AUG-CC-PVTZ-JKFIT

    Orbital Energies [Eh]
    ---------------------

    Doubly Occupied:

       1A    -20.619056     2A    -20.579482     3A    -20.554131
       4A    -11.389371     5A    -11.313218     6A    -11.237792
       7A     -1.462714     8A     -1.379004     9A     -1.355500
      10A     -1.054482    11A     -0.920500    12A     -0.799498
      13A     -0.731991    14A     -0.704307    15A     -0.662109
      16A     -0.646198    17A     -0.613260    18A     -0.599925
      19A     -0.565034    20A     -0.557272    21A     -0.523185
      22A     -0.484740    23A     -0.463387    24A     -0.450570

  @DF-RHF Final Energy:  -341.82539042520534

   => Energetics <=

    Nuclear Repulsion Energy =            248.8722498700229835
    One-Electron Energy =                -962.0618277834818173
    Two-Electron Energy =                 371.3641874882534921
    Total Energy =                       -341.8253904252053417
  Basis Set: (AUG-CC-PVTZ AUX)
    Blend: AUG-CC-PVTZ-RI
    Molecular point group: c1

    Geometry (in Angstrom), charge = 0, multiplicity = 1:

       Center              X                  Y                   Z               Mass
    ------------   -----------------  -----------------  -----------------  -----------------
         O           -1.351736546493    -1.141255245884     0.149134976754    15.994914619570
         O            1.439933353507     1.038346254116     0.307268276754    15.994914619570
         O            1.234683353507    -1.098782745884    -0.442190723246    15.994914619570
         C           -0.720059646493     0.102205254116     0.396066276754    12.000000000000
         C           -1.345122646493     1.207518254116    -0.448303723246    12.000000000000
         C            0.734753353507    -0.098490745884     0.030870276754    12.000000000000
         H           -0.720375446493     0.429836654116     1.446624676754     1.007825032230
         H           -1.295028646493     0.929235254116    -1.502502723246     1.007825032230
         H           -0.827654646493     2.156346254116    -0.296496723246     1.007825032230
         H           -2.396904646493     1.337879254116    -0.174409723246     1.007825032230
         H           -2.274927646493    -1.042527745884     0.517117276754     1.007825032230
         H            2.361012353507     0.839009254116     0.038519276754     1.007825032230

  Basis Set: AUG-CC-PVTZ
    Blend: AUG-CC-PVTZ
  Basis Set: (AUG-CC-PVTZ AUX)
    Blend: AUG-CC-PVTZ-JKFIT
	 Reference Energy          =    -341.8253904252053417 [Eh]
	 Singles Energy            =      -0.0000000000000000 [Eh]
	 Same-Spin Energy          =      -0.3273937899467396 [Eh]
	 Opposite-Spin Energy      =      -1.0136760097675528 [Eh]
	 Correlation Energy        =      -1.3410697997142924 [Eh]
	 Total Energy              =    -343.1664602249196605 [Eh]

	 ================> DF-SCS-MP2 Energies <==================
	-----------------------------------------------------------
	 SCS Same-Spin Scale       =       0.3333333333333333 [-]
	 SCS Opposite-Spin Scale   =       1.2000000000000000 [-]
	 SCS Same-Spin Energy      =      -0.1091312633155799 [Eh]
	 SCS Opposite-Spin Energy  =      -1.2164112117210633 [Eh]
	 SCS Correlation Energy    =      -1.3255424750366431 [Eh]
	 SCS Total Energy          =    -343.1509329002419690 [Eh]
	-----------------------------------------------------------

  Dipole Moment: [D]
     X:    -1.3298      Y:     2.6706      Z:     1.1574     Total:     3.2000

*** Psi4 exiting successfully. Buy a developer a beer!
