                               Psi4 1.3.2 release

  ==> Input File <==

--------------------------------------------------------------------------
#psi4
#
memory 32 gb

molecule  {
0 1
  O       -1.3734200    -1.1461598     0.2615848
  O        1.4419330     1.0393260     0.2985870
  O        1.2366830    -1.0978030    -0.4508720
  C       -0.7180600     0.1031850     0.3873850
  C       -1.3431230     1.2084980    -0.4569850
  C        0.7367530    -0.0975110     0.0221890
  H       -0.7657076     0.3499301     1.4587682
  H       -1.2930290     0.9302150    -1.5111840
  H       -0.8256550     2.1573260    -0.3051780
  H       -2.3949050     1.3388590    -0.1830910
  H       -2.2729280    -1.0415480     0.5084360
  H        2.3630120     0.8399890     0.0298380
units angstrom
no_reorient  #important for SAPT in psi4, default
symmetry c1  #important for SAPT in psi4, default
}

set PROPERTIES_ORIGIN ["COM"]
properties('MP2/aug-cc-pvtz', properties = ['dipole'])
--------------------------------------------------------------------------

    Molecular point group: c1
  Charge       = 0
  Multiplicity = 1
  Basis Set: AUG-CC-PVTZ
    Blend: AUG-CC-PVTZ
  Basis Set: (AUG-CC-PVTZ AUX)
    Blend: AUG-CC-PVTZ-JKFIT

    Orbital Energies [Eh]
    ---------------------

    Doubly Occupied:

       1A    -20.620582     2A    -20.568976     3A    -20.555792
       4A    -11.392062     5A    -11.313840     6A    -11.240909
       7A     -1.463983     8A     -1.386140     9A     -1.358517
      10A     -1.057515    11A     -0.923225    12A     -0.807723
      13A     -0.729041    14A     -0.705686    15A     -0.665529
      16A     -0.655552    17A     -0.614905    18A     -0.605707
      19A     -0.565468    20A     -0.559395    21A     -0.520025
      22A     -0.486155    23A     -0.462435    24A     -0.451851

  @DF-RHF Final Energy:  -341.82930428081096

   => Energetics <=

    Nuclear Repulsion Energy =            248.4823332044365429
    One-Electron Energy =                -961.2012482215614000
    Two-Electron Energy =                 370.8896107363138412
    Total Energy =                       -341.8293042808109590
  Basis Set: (AUG-CC-PVTZ AUX)
    Blend: AUG-CC-PVTZ-RI
    Molecular point group: c1

    Geometry (in Angstrom), charge = 0, multiplicity = 1:

       Center              X                  Y                   Z               Mass
    ------------   -----------------  -----------------  -----------------  -----------------
         O           -1.370682299942    -1.145188698287     0.248512966611    15.994914619570
         O            1.444670700058     1.040297101713     0.285515166611    15.994914619570
         O            1.239420700058    -1.096831898287    -0.463943833389    15.994914619570
         C           -0.715322299942     0.104156101713     0.374313166611    12.000000000000
         C           -1.340385299942     1.209469101713    -0.470056833389    12.000000000000
         C            0.739490700058    -0.096539898287     0.009117166611    12.000000000000
         H           -0.762969899942     0.350901201713     1.445696366611     1.007825032230
         H           -1.290291299942     0.931186101713    -1.524255833389     1.007825032230
         H           -0.822917299942     2.158297101713    -0.318249833389     1.007825032230
         H           -2.392167299942     1.339830101713    -0.196162833389     1.007825032230
         H           -2.270190299942    -1.040576898287     0.495364166611     1.007825032230
         H            2.365749700058     0.840960101713     0.016766166611     1.007825032230

  Basis Set: AUG-CC-PVTZ
    Blend: AUG-CC-PVTZ
  Basis Set: (AUG-CC-PVTZ AUX)
    Blend: AUG-CC-PVTZ-JKFIT
	 Reference Energy          =    -341.8293042808109590 [Eh]
	 Singles Energy            =      -0.0000000000000000 [Eh]
	 Same-Spin Energy          =      -0.3262667717415050 [Eh]
	 Opposite-Spin Energy      =      -1.0112425206829483 [Eh]
	 Correlation Energy        =      -1.3375092924244534 [Eh]
	 Total Energy              =    -343.1668135732354017 [Eh]

	 ================> DF-SCS-MP2 Energies <==================
	-----------------------------------------------------------
	 SCS Same-Spin Scale       =       0.3333333333333333 [-]
	 SCS Opposite-Spin Scale   =       1.2000000000000000 [-]
	 SCS Same-Spin Energy      =      -0.1087555905805017 [Eh]
	 SCS Opposite-Spin Energy  =      -1.2134910248195379 [Eh]
	 SCS Correlation Energy    =      -1.3222466154000396 [Eh]
	 SCS Total Energy          =    -343.1515508962110061 [Eh]
	-----------------------------------------------------------

  Dipole Moment: [D]
     X:    -1.2967      Y:     2.7721      Z:     0.9033     Total:     3.1909

*** Psi4 exiting successfully. Buy a developer a beer!
