                               Psi4 1.3.2 release

  ==> Input File <==

--------------------------------------------------------------------------
#psi4
#
memory 32 gb

molecule  {
0 1
  O       -1.3597980    -1.1437690     0.1887320
  O        1.4419330     1.0393260     0.2985870
  O        1.2366830    -1.0978030    -0.4508720
  C       -0.7180600     0.1031850     0.3873850
  C       -1.3431230     1.2084980    -0.4569850
  C        0.7367530    -0.0975110     0.0221890
  H       -0.7408310     0.4524394     1.6398637
  H       -1.2930290     0.9302150    -1.5111840
  H       -0.8256550     2.1573260    -0.3051780
  H       -2.3949050     1.3388590    -0.1830910
  H       -2.2729280    -1.0415480     0.5084360
  H        2.3630120     0.8399890     0.0298380
units angstrom
no_reorient  #important for SAPT in psi4, default
symmetry c1  #important for SAPT in psi4, default
}

set PROPERTIES_ORIGIN ["COM"]
properties('MP2/aug-cc-pvtz', properties = ['dipole'])
--------------------------------------------------------------------------

    Molecular point group: c1
  Charge       = 0
  Multiplicity = 1
  Basis Set: AUG-CC-PVTZ
    Blend: AUG-CC-PVTZ
  Basis Set: (AUG-CC-PVTZ AUX)
    Blend: AUG-CC-PVTZ-JKFIT

    Orbital Energies [Eh]
    ---------------------

    Doubly Occupied:

       1A    -20.619336     2A    -20.579629     3A    -20.556218
       4A    -11.392639     5A    -11.335479     6A    -11.241459
       7A     -1.463465     8A     -1.384183     9A     -1.357839
      10A     -1.051375    11A     -0.920233    12A     -0.798458
      13A     -0.713957    14A     -0.699970    15A     -0.662614
      16A     -0.651731    17A     -0.612695    18A     -0.602794
      19A     -0.566161    20A     -0.559528    21A     -0.515949
      22A     -0.485935    23A     -0.457813    24A     -0.446412

  @DF-RHF Final Energy:  -341.80887672222855

   => Energetics <=

    Nuclear Repulsion Energy =            247.7681122852596900
    One-Electron Energy =                -959.8022303755008124
    Two-Electron Energy =                 370.2252413680125755
    Total Energy =                       -341.8088767222285469
  Basis Set: (AUG-CC-PVTZ AUX)
    Blend: AUG-CC-PVTZ-RI
    Molecular point group: c1

    Geometry (in Angstrom), charge = 0, multiplicity = 1:

       Center              X                  Y                   Z               Mass
    ------------   -----------------  -----------------  -----------------  -----------------
         O           -1.359758838381    -1.144370145505     0.186575897433    15.994914619570
         O            1.441972161619     1.038724854495     0.296430897433    15.994914619570
         O            1.236722161619    -1.098404145505    -0.453028102567    15.994914619570
         C           -0.718020838381     0.102583854495     0.385228897433    12.000000000000
         C           -1.343083838381     1.207896854495    -0.459141102567    12.000000000000
         C            0.736792161619    -0.098112145505     0.020032897433    12.000000000000
         H           -0.740791838381     0.451838254495     1.637707597433     1.007825032230
         H           -1.292989838381     0.929613854495    -1.513340102567     1.007825032230
         H           -0.825615838381     2.156724854495    -0.307334102567     1.007825032230
         H           -2.394865838381     1.338257854495    -0.185247102567     1.007825032230
         H           -2.272888838381    -1.042149145505     0.506279897433     1.007825032230
         H            2.363051161619     0.839387854495     0.027681897433     1.007825032230

  Basis Set: AUG-CC-PVTZ
    Blend: AUG-CC-PVTZ
  Basis Set: (AUG-CC-PVTZ AUX)
    Blend: AUG-CC-PVTZ-JKFIT
	 Reference Energy          =    -341.8088767222285469 [Eh]
	 Singles Energy            =      -0.0000000000000000 [Eh]
	 Same-Spin Energy          =      -0.3272490734641412 [Eh]
	 Opposite-Spin Energy      =      -1.0145290998860124 [Eh]
	 Correlation Energy        =      -1.3417781733501535 [Eh]
	 Total Energy              =    -343.1506548955787252 [Eh]

	 ================> DF-SCS-MP2 Energies <==================
	-----------------------------------------------------------
	 SCS Same-Spin Scale       =       0.3333333333333333 [-]
	 SCS Opposite-Spin Scale   =       1.2000000000000000 [-]
	 SCS Same-Spin Energy      =      -0.1090830244880471 [Eh]
	 SCS Opposite-Spin Energy  =      -1.2174349198632148 [Eh]
	 SCS Correlation Energy    =      -1.3265179443512620 [Eh]
	 SCS Total Energy          =    -343.1353946665798276 [Eh]
	-----------------------------------------------------------

  Dipole Moment: [D]
     X:    -1.3500      Y:     2.6442      Z:     0.9173     Total:     3.1074

*** Psi4 exiting successfully. Buy a developer a beer!
