                               Psi4 1.3.2 release

  ==> Input File <==

--------------------------------------------------------------------------
#psi4
#
memory 32 gb

molecule  {
0 1
  O       -1.3751562    -1.1330496     0.1725975
  O        1.4419330     1.0393260     0.2985870
  O        1.2366830    -1.0978030    -0.4508720
  C       -0.7180600     0.1031850     0.3873850
  C       -1.3604429     1.1908555    -0.4668388
  C        0.7367530    -0.0975110     0.0221890
  H       -0.7373290     0.3987270     1.4472430
  H       -1.2930290     0.9302150    -1.5111840
  H       -0.8256550     2.1573260    -0.3051780
  H       -2.3949050     1.3388590    -0.1830910
  H       -2.2729280    -1.0415480     0.5084360
  H        2.3630120     0.8399890     0.0298380
units angstrom
no_reorient  #important for SAPT in psi4, default
symmetry c1  #important for SAPT in psi4, default
}

set PROPERTIES_ORIGIN ["COM"]
properties('MP2/aug-cc-pvtz', properties = ['dipole'])
--------------------------------------------------------------------------

    Molecular point group: c1
  Charge       = 0
  Multiplicity = 1
  Basis Set: AUG-CC-PVTZ
    Blend: AUG-CC-PVTZ
  Basis Set: (AUG-CC-PVTZ AUX)
    Blend: AUG-CC-PVTZ-JKFIT

    Orbital Energies [Eh]
    ---------------------

    Doubly Occupied:

       1A    -20.620103     2A    -20.572955     3A    -20.555390
       4A    -11.391269     5A    -11.313704     6A    -11.238175
       7A     -1.463617     8A     -1.382944     9A     -1.357547
      10A     -1.055347    11A     -0.922192    12A     -0.803525
      13A     -0.732597    14A     -0.705040    15A     -0.664536
      16A     -0.650360    17A     -0.611948    18A     -0.603313
      19A     -0.567690    20A     -0.558741    21A     -0.518945
      22A     -0.485763    23A     -0.462379    24A     -0.452222

  @DF-RHF Final Energy:  -341.82866489316211

   => Energetics <=

    Nuclear Repulsion Energy =            248.7115183702859440
    One-Electron Energy =                -961.6997617678269989
    Two-Electron Energy =                 371.1595785043789419
    Total Energy =                       -341.8286648931621130
  Basis Set: (AUG-CC-PVTZ AUX)
    Blend: AUG-CC-PVTZ-RI
    Molecular point group: c1

    Geometry (in Angstrom), charge = 0, multiplicity = 1:

       Center              X                  Y                   Z               Mass
    ------------   -----------------  -----------------  -----------------  -----------------
         O           -1.370119215124    -1.132602372324     0.176777427418    15.994914619570
         O            1.446969984876     1.039773227676     0.302766927418    15.994914619570
         O            1.241719984876    -1.097355772324    -0.446692072582    15.994914619570
         C           -0.713023015124     0.103632227676     0.391564927418    12.000000000000
         C           -1.355405915124     1.191302727676    -0.462658872582    12.000000000000
         C            0.741789984876    -0.097063772324     0.026368927418    12.000000000000
         H           -0.732292015124     0.399174227676     1.451422927418     1.007825032230
         H           -1.287992015124     0.930662227676    -1.507004072582     1.007825032230
         H           -0.820618015124     2.157773227676    -0.300998072582     1.007825032230
         H           -2.389868015124     1.339306227676    -0.178911072582     1.007825032230
         H           -2.267891015124    -1.041100772324     0.512615927418     1.007825032230
         H            2.368048984876     0.840436227676     0.034017927418     1.007825032230

  Basis Set: AUG-CC-PVTZ
    Blend: AUG-CC-PVTZ
  Basis Set: (AUG-CC-PVTZ AUX)
    Blend: AUG-CC-PVTZ-JKFIT
	 Reference Energy          =    -341.8286648931621130 [Eh]
	 Singles Energy            =      -0.0000000000000000 [Eh]
	 Same-Spin Energy          =      -0.3267191016842078 [Eh]
	 Opposite-Spin Energy      =      -1.0122050185030509 [Eh]
	 Correlation Energy        =      -1.3389241201872588 [Eh]
	 Total Energy              =    -343.1675890133493567 [Eh]

	 ================> DF-SCS-MP2 Energies <==================
	-----------------------------------------------------------
	 SCS Same-Spin Scale       =       0.3333333333333333 [-]
	 SCS Opposite-Spin Scale   =       1.2000000000000000 [-]
	 SCS Same-Spin Energy      =      -0.1089063672280693 [Eh]
	 SCS Opposite-Spin Energy  =      -1.2146460222036610 [Eh]
	 SCS Correlation Energy    =      -1.3235523894317303 [Eh]
	 SCS Total Energy          =    -343.1522172825938242 [Eh]
	-----------------------------------------------------------

  Dipole Moment: [D]
     X:    -1.2819      Y:     2.6879      Z:     1.1006     Total:     3.1747

*** Psi4 exiting successfully. Buy a developer a beer!
