                               Psi4 1.4a3.dev225

  ==> Input File <==

--------------------------------------------------------------------------
#psi4
#
memory 32 gb

molecule  {
0 1
  O        1.3501930    -1.1356630    -0.2433140
  O       -1.5558540     0.8884770    -0.3921630
  O       -1.2169910    -1.1507310     0.5497490
  C        0.6629050     0.0959340    -0.3934650
  C        1.2396040     1.1907030     0.5015680
  C       -0.7811570    -0.1720460    -0.0200300
  H        0.6688980     0.4337360    -1.4405180
  H        1.2084250     0.8592770     1.5425200
  H        0.6765780     2.1206880     0.3977210
  H        2.2819130     1.3850820     0.2293300
  H        2.2793940    -0.9684070    -0.4767370
  H       -2.4158466     0.6767940    -0.1101019
units angstrom
no_reorient  #important for SAPT in psi4, default
symmetry c1  #important for SAPT in psi4, default
}

set PROPERTIES_ORIGIN ["COM"]
properties('MP2/aug-cc-pvtz', properties = ['dipole'])
--------------------------------------------------------------------------

    Molecular point group: c1
  Charge       = 0
  Multiplicity = 1
  Basis Set: AUG-CC-PVTZ
    Blend: AUG-CC-PVTZ
  Basis Set: (AUG-CC-PVTZ AUX)
    Blend: AUG-CC-PVTZ-JKFIT

    Orbital Energies [Eh]
    ---------------------

    Doubly Occupied:

       1A    -20.616088     2A    -20.575698     3A    -20.555614
       4A    -11.391248     5A    -11.314065     6A    -11.241246
       7A     -1.471388     8A     -1.382957     9A     -1.360638
      10A     -1.057139    11A     -0.925336    12A     -0.810786
      13A     -0.731568    14A     -0.706644    15A     -0.661709
      16A     -0.655611    17A     -0.619232    18A     -0.604860
      19A     -0.563371    20A     -0.558592    21A     -0.524398
      22A     -0.486781    23A     -0.464141    24A     -0.451951

  @DF-RHF Final Energy:  -341.83003311140698

   => Energetics <=

    Nuclear Repulsion Energy =            248.8979878776118539
    One-Electron Energy =                -961.9939206938863663
    Two-Electron Energy =                 371.2658997048675360
    Total Energy =                       -341.8300331114069763
  Basis Set: (AUG-CC-PVTZ AUX)
    Blend: AUG-CC-PVTZ-RI
    Molecular point group: c1

    Geometry (in Angstrom), charge = 0, multiplicity = 1:

       Center              X                  Y                   Z               Mass
    ------------   -----------------  -----------------  -----------------  -----------------
         O            1.400873366142    -1.086324460317    -0.241414567668    15.994914619570
         O           -1.505173633858     0.937815539683    -0.390263567668    15.994914619570
         O           -1.166310633858    -1.101392460317     0.551648432332    15.994914619570
         C            0.713585366142     0.145272539683    -0.391565567668    12.000000000000
         C            1.290284366142     1.240041539683     0.503467432332    12.000000000000
         C           -0.730476633858    -0.122707460317    -0.018130567668    12.000000000000
         H            0.719578366142     0.483074539683    -1.438618567668     1.007825032230
         H            1.259105366142     0.908615539683     1.544419432332     1.007825032230
         H            0.727258366142     2.170026539683     0.399620432332     1.007825032230
         H            2.332593366142     1.434420539683     0.231229432332     1.007825032230
         H            2.330074366142    -0.919068460317    -0.474837567668     1.007825032230
         H           -2.365166233858     0.726132539683    -0.108202467668     1.007825032230

  Basis Set: AUG-CC-PVTZ
    Blend: AUG-CC-PVTZ
  Basis Set: (AUG-CC-PVTZ AUX)
    Blend: AUG-CC-PVTZ-JKFIT
	 Reference Energy          =    -341.8300331114069763 [Eh]
	 Singles Energy            =      -0.0000000000000000 [Eh]
	 Same-Spin Energy          =      -0.3261568635589591 [Eh]
	 Opposite-Spin Energy      =      -1.0110313616951481 [Eh]
	 Correlation Energy        =      -1.3371882252541072 [Eh]
	 Total Energy              =    -343.1672213366611004 [Eh]

	 ================> DF-SCS-MP2 Energies <==================
	-----------------------------------------------------------
	 SCS Same-Spin Scale       =       0.3333333333333333 [-]
	 SCS Opposite-Spin Scale   =       1.2000000000000000 [-]
	 SCS Same-Spin Energy      =      -0.1087189545196530 [Eh]
	 SCS Opposite-Spin Energy  =      -1.2132376340341777 [Eh]
	 SCS Correlation Energy    =      -1.3219565885538307 [Eh]
	 SCS Total Energy          =    -343.1519896999607795 [Eh]
	-----------------------------------------------------------

  Dipole Moment: [D]
     X:     1.2769      Y:     2.7929      Z:    -0.9687     Total:     3.2201

*** Psi4 exiting successfully. Buy a developer a beer!
