                               Psi4 1.3.2 release

  ==> Input File <==

--------------------------------------------------------------------------
#psi4
#
memory 32 gb

molecule  {
0 1
  O       -1.2945580    -1.1717174     0.1672509
  O        1.4419330     1.0393260     0.2985870
  O        1.2366830    -1.0978030    -0.4508720
  C       -0.7180600     0.1031850     0.3873850
  C       -1.3431230     1.2084980    -0.4569850
  C        0.7199581    -0.1731005     0.0054189
  H       -0.7373290     0.3987270     1.4472430
  H       -1.2930290     0.9302150    -1.5111840
  H       -0.8256550     2.1573260    -0.3051780
  H       -2.3949050     1.3388590    -0.1830910
  H       -2.2729280    -1.0415480     0.5084360
  H        2.3630120     0.8399890     0.0298380
units angstrom
no_reorient  #important for SAPT in psi4, default
symmetry c1  #important for SAPT in psi4, default
}

set PROPERTIES_ORIGIN ["COM"]
properties('MP2/aug-cc-pvtz', properties = ['dipole'])
--------------------------------------------------------------------------

    Molecular point group: c1
  Charge       = 0
  Multiplicity = 1
  Basis Set: AUG-CC-PVTZ
    Blend: AUG-CC-PVTZ
  Basis Set: (AUG-CC-PVTZ AUX)
    Blend: AUG-CC-PVTZ-JKFIT

    Orbital Energies [Eh]
    ---------------------

    Doubly Occupied:

       1A    -20.594758     2A    -20.584443     3A    -20.567636
       4A    -11.383925     5A    -11.313513     6A    -11.239706
       7A     -1.470240     8A     -1.370890     9A     -1.359658
      10A     -1.049864    11A     -0.917229    12A     -0.776527
      13A     -0.733084    14A     -0.703599    15A     -0.660637
      16A     -0.639539    17A     -0.610051    18A     -0.594547
      19A     -0.566270    20A     -0.562148    21A     -0.527969
      22A     -0.496885    23A     -0.465193    24A     -0.451083

  @DF-RHF Final Energy:  -341.81212547385684

   => Energetics <=

    Nuclear Repulsion Energy =            249.1348451078126800
    One-Electron Energy =                -962.6151581151276559
    Two-Electron Energy =                 371.6681875334581378
    Total Energy =                       -341.8121254738568382
  Basis Set: (AUG-CC-PVTZ AUX)
    Blend: AUG-CC-PVTZ-RI
    Molecular point group: c1

    Geometry (in Angstrom), charge = 0, multiplicity = 1:

       Center              X                  Y                   Z               Mass
    ------------   -----------------  -----------------  -----------------  -----------------
         O           -1.303909962717    -1.156676954087     0.173302546175    15.994914619570
         O            1.432581037283     1.054366445913     0.304638646175    15.994914619570
         O            1.227331037283    -1.082762554087    -0.444820353825    15.994914619570
         C           -0.727411962717     0.118225445913     0.393436646175    12.000000000000
         C           -1.352474962717     1.223538445913    -0.450933353825    12.000000000000
         C            0.710606137283    -0.158060054087     0.011470546175    12.000000000000
         H           -0.746680962717     0.413767445913     1.453294646175     1.007825032230
         H           -1.302380962717     0.945255445913    -1.505132353825     1.007825032230
         H           -0.835006962717     2.172366445913    -0.299126353825     1.007825032230
         H           -2.404256962717     1.353899445913    -0.177039353825     1.007825032230
         H           -2.282279962717    -1.026507554087     0.514487646175     1.007825032230
         H            2.353660037283     0.855029445913     0.035889646175     1.007825032230

  Basis Set: AUG-CC-PVTZ
    Blend: AUG-CC-PVTZ
  Basis Set: (AUG-CC-PVTZ AUX)
    Blend: AUG-CC-PVTZ-JKFIT
	 Reference Energy          =    -341.8121254738568382 [Eh]
	 Singles Energy            =      -0.0000000000000000 [Eh]
	 Same-Spin Energy          =      -0.3273739717268961 [Eh]
	 Opposite-Spin Energy      =      -1.0146487921829490 [Eh]
	 Correlation Energy        =      -1.3420227639098452 [Eh]
	 Total Energy              =    -343.1541482377666625 [Eh]

	 ================> DF-SCS-MP2 Energies <==================
	-----------------------------------------------------------
	 SCS Same-Spin Scale       =       0.3333333333333333 [-]
	 SCS Opposite-Spin Scale   =       1.2000000000000000 [-]
	 SCS Same-Spin Energy      =      -0.1091246572422987 [Eh]
	 SCS Opposite-Spin Energy  =      -1.2175785506195387 [Eh]
	 SCS Correlation Energy    =      -1.3267032078618373 [Eh]
	 SCS Total Energy          =    -343.1388286817186781 [Eh]
	-----------------------------------------------------------

  Dipole Moment: [D]
     X:    -1.6202      Y:     2.1161      Z:     0.8843     Total:     2.8080

*** Psi4 exiting successfully. Buy a developer a beer!
