                               Psi4 1.3.2 release

  ==> Input File <==

--------------------------------------------------------------------------
#psi4
#
memory 32 gb

molecule  {
0 1
  O       -1.3597980    -1.1437690     0.1887320
  O        1.4419330     1.0393260     0.2985870
  O        1.2366830    -1.0978030    -0.4508720
  C       -0.7180600     0.1031850     0.3873850
  C       -1.3431230     1.2084980    -0.4569850
  C        0.7367530    -0.0975110     0.0221890
  H       -0.7373290     0.3987270     1.4472430
  H       -1.2930290     0.9302150    -1.5111840
  H       -0.8256550     2.1573260    -0.3051780
  H       -2.3949050     1.3388590    -0.1830910
  H       -2.2729280    -1.0415480     0.5084360
  H        2.3630120     0.8399890     0.0298380
units angstrom
no_reorient  #important for SAPT in psi4, default
symmetry c1  #important for SAPT in psi4, default
}

set PROPERTIES_ORIGIN ["COM"]
properties('MP2/aug-cc-pvtz', properties = ['dipole'])
--------------------------------------------------------------------------

    Molecular point group: c1
  Charge       = 0
  Multiplicity = 1
  Basis Set: AUG-CC-PVTZ
    Blend: AUG-CC-PVTZ
  Basis Set: (AUG-CC-PVTZ AUX)
    Blend: AUG-CC-PVTZ-JKFIT

    Orbital Energies [Eh]
    ---------------------

    Doubly Occupied:

       1A    -20.619695     2A    -20.575155     3A    -20.554817
       4A    -11.390489     5A    -11.313498     6A    -11.239033
       7A     -1.463236     8A     -1.381686     9A     -1.356819
      10A     -1.055724    11A     -0.921550    12A     -0.802657
      13A     -0.731188    14A     -0.704848    15A     -0.662647
      16A     -0.650756    17A     -0.613841    18A     -0.602582
      19A     -0.565081    20A     -0.558148    21A     -0.522063
      22A     -0.485303    23A     -0.463363    24A     -0.451270

  @DF-RHF Final Energy:  -341.82896614301472

   => Energetics <=

    Nuclear Repulsion Energy =            248.7073166436928204
    One-Electron Energy =                -961.7016655677654171
    Two-Electron Energy =                 371.1653827810578719
    Total Energy =                       -341.8289661430147248
  Basis Set: (AUG-CC-PVTZ AUX)
    Blend: AUG-CC-PVTZ-RI
    Molecular point group: c1

    Geometry (in Angstrom), charge = 0, multiplicity = 1:

       Center              X                  Y                   Z               Mass
    ------------   -----------------  -----------------  -----------------  -----------------
         O           -1.359798040168    -1.143768882785     0.188732115476    15.994914619570
         O            1.441932959832     1.039326117215     0.298587115476    15.994914619570
         O            1.236682959832    -1.097802882785    -0.450871884524    15.994914619570
         C           -0.718060040168     0.103185117215     0.387385115476    12.000000000000
         C           -1.343123040168     1.208498117215    -0.456984884524    12.000000000000
         C            0.736752959832    -0.097510882785     0.022189115476    12.000000000000
         H           -0.737329040168     0.398727117215     1.447243115476     1.007825032230
         H           -1.293029040168     0.930215117215    -1.511183884524     1.007825032230
         H           -0.825655040168     2.157326117215    -0.305177884524     1.007825032230
         H           -2.394905040168     1.338859117215    -0.183090884524     1.007825032230
         H           -2.272928040168    -1.041547882785     0.508436115476     1.007825032230
         H            2.363011959832     0.839989117215     0.029838115476     1.007825032230

  Basis Set: AUG-CC-PVTZ
    Blend: AUG-CC-PVTZ
  Basis Set: (AUG-CC-PVTZ AUX)
    Blend: AUG-CC-PVTZ-JKFIT
	 Reference Energy          =    -341.8289661430147248 [Eh]
	 Singles Energy            =      -0.0000000000000000 [Eh]
	 Same-Spin Energy          =      -0.3268702968329164 [Eh]
	 Opposite-Spin Energy      =      -1.0125421420197542 [Eh]
	 Correlation Energy        =      -1.3394124388526705 [Eh]
	 Total Energy              =    -343.1683785818673869 [Eh]

	 ================> DF-SCS-MP2 Energies <==================
	-----------------------------------------------------------
	 SCS Same-Spin Scale       =       0.3333333333333333 [-]
	 SCS Opposite-Spin Scale   =       1.2000000000000000 [-]
	 SCS Same-Spin Energy      =      -0.1089567656109721 [Eh]
	 SCS Opposite-Spin Energy  =      -1.2150505704237051 [Eh]
	 SCS Correlation Energy    =      -1.3240073360346774 [Eh]
	 SCS Total Energy          =    -343.1529734790494217 [Eh]
	-----------------------------------------------------------

  Dipole Moment: [D]
     X:    -1.3154      Y:     2.7148      Z:     1.0603     Total:     3.1976

*** Psi4 exiting successfully. Buy a developer a beer!
