                               Psi4 1.3.2 release

  ==> Input File <==

--------------------------------------------------------------------------
#psi4
#
memory 32 gb

molecule  {
0 1
  O       -1.3597980    -1.1437690     0.1887320
  O        1.4813723     1.0177135     0.2827452
  O        1.2366830    -1.0978030    -0.4508720
  C       -0.7279546     0.0538707     0.3712492
  C       -1.3431230     1.2084980    -0.4569850
  C        0.7367530    -0.0975110     0.0221890
  H       -0.7373290     0.3987270     1.4472430
  H       -1.2930290     0.9302150    -1.5111840
  H       -0.8256550     2.1573260    -0.3051780
  H       -2.3949050     1.3388590    -0.1830910
  H       -2.2729280    -1.0415480     0.5084360
  H        2.3630120     0.8399890     0.0298380
units angstrom
no_reorient  #important for SAPT in psi4, default
symmetry c1  #important for SAPT in psi4, default
}

set PROPERTIES_ORIGIN ["COM"]
properties('MP2/aug-cc-pvtz', properties = ['dipole'])
--------------------------------------------------------------------------

    Molecular point group: c1
  Charge       = 0
  Multiplicity = 1
  Basis Set: AUG-CC-PVTZ
    Blend: AUG-CC-PVTZ
  Basis Set: (AUG-CC-PVTZ AUX)
    Blend: AUG-CC-PVTZ-JKFIT

    Orbital Energies [Eh]
    ---------------------

    Doubly Occupied:

       1A    -20.613280     2A    -20.581687     3A    -20.550488
       4A    -11.388951     5A    -11.317282     6A    -11.239264
       7A     -1.467278     8A     -1.403496     9A     -1.357416
      10A     -1.050936    11A     -0.922801    12A     -0.816870
      13A     -0.732698    14A     -0.702725    15A     -0.677036
      16A     -0.654608    17A     -0.616017    18A     -0.605892
      19A     -0.566582    20A     -0.558103    21A     -0.523647
      22A     -0.483457    23A     -0.455430    24A     -0.448097

  @DF-RHF Final Energy:  -341.82858877882944

   => Energetics <=

    Nuclear Repulsion Energy =            249.0518031609205707
    One-Electron Energy =                -962.2927024103839813
    Two-Electron Energy =                 371.4123104706339404
    Total Energy =                       -341.8285887788294417
  Basis Set: (AUG-CC-PVTZ AUX)
    Blend: AUG-CC-PVTZ-RI
    Molecular point group: c1

    Geometry (in Angstrom), charge = 0, multiplicity = 1:

       Center              X                  Y                   Z               Mass
    ------------   -----------------  -----------------  -----------------  -----------------
         O           -1.365485959756    -1.133356308612     0.193697231851    15.994914619570
         O            1.475684340244     1.028126191388     0.287710431851    15.994914619570
         O            1.230995040244    -1.087390308612    -0.445906768149    15.994914619570
         C           -0.733642559756     0.064283391388     0.376214431851    12.000000000000
         C           -1.348810959756     1.218910691388    -0.452019768149    12.000000000000
         C            0.731065040244    -0.087098308612     0.027154231851    12.000000000000
         H           -0.743016959756     0.409139691388     1.452208231851     1.007825032230
         H           -1.298716959756     0.940627691388    -1.506218768149     1.007825032230
         H           -0.831342959756     2.167738691388    -0.300212768149     1.007825032230
         H           -2.400592959756     1.349271691388    -0.178125768149     1.007825032230
         H           -2.278615959756    -1.031135308612     0.513401231851     1.007825032230
         H            2.357324040244     0.850401691388     0.034803231851     1.007825032230

  Basis Set: AUG-CC-PVTZ
    Blend: AUG-CC-PVTZ
  Basis Set: (AUG-CC-PVTZ AUX)
    Blend: AUG-CC-PVTZ-JKFIT
	 Reference Energy          =    -341.8285887788294417 [Eh]
	 Singles Energy            =      -0.0000000000000000 [Eh]
	 Same-Spin Energy          =      -0.3258118996153405 [Eh]
	 Opposite-Spin Energy      =      -1.0096957555358341 [Eh]
	 Correlation Energy        =      -1.3355076551511746 [Eh]
	 Total Energy              =    -343.1640964339806033 [Eh]

	 ================> DF-SCS-MP2 Energies <==================
	-----------------------------------------------------------
	 SCS Same-Spin Scale       =       0.3333333333333333 [-]
	 SCS Opposite-Spin Scale   =       1.2000000000000000 [-]
	 SCS Same-Spin Energy      =      -0.1086039665384468 [Eh]
	 SCS Opposite-Spin Energy  =      -1.2116349066430010 [Eh]
	 SCS Correlation Energy    =      -1.3202388731814478 [Eh]
	 SCS Total Energy          =    -343.1488276520108798 [Eh]
	-----------------------------------------------------------

  Dipole Moment: [D]
     X:    -1.5262      Y:     2.5660      Z:     1.0710     Total:     3.1718

*** Psi4 exiting successfully. Buy a developer a beer!
