                               Psi4 1.4a3.dev225

  ==> Input File <==

--------------------------------------------------------------------------
#psi4
#
memory 32 gb

molecule  {
0 1
  O        1.3501930    -1.1356630    -0.2433140
  O       -1.5558540     0.8884770    -0.3921630
  O       -1.2169910    -1.1507310     0.5497490
  C        0.6629050     0.0959340    -0.3934650
  C        1.2396040     1.1907030     0.5015680
  C       -0.7811570    -0.1720460    -0.0200300
  H        0.6688980     0.4337360    -1.4405180
  H        1.2084250     0.8592770     1.5425200
  H        0.6765780     2.1206880     0.3977210
  H        2.2819130     1.3850820     0.2293300
  H        2.2793940    -0.9684070    -0.4767370
  H       -2.5083694     0.6540200    -0.0797561
units angstrom
no_reorient  #important for SAPT in psi4, default
symmetry c1  #important for SAPT in psi4, default
}

set PROPERTIES_ORIGIN ["COM"]
properties('MP2/aug-cc-pvtz', properties = ['dipole'])
--------------------------------------------------------------------------

    Molecular point group: c1
  Charge       = 0
  Multiplicity = 1
  Basis Set: AUG-CC-PVTZ
    Blend: AUG-CC-PVTZ
  Basis Set: (AUG-CC-PVTZ AUX)
    Blend: AUG-CC-PVTZ-JKFIT

    Orbital Energies [Eh]
    ---------------------

    Doubly Occupied:

       1A    -20.622261     2A    -20.575124     3A    -20.553613
       4A    -11.389310     5A    -11.313532     6A    -11.240575
       7A     -1.457031     8A     -1.379637     9A     -1.353206
      10A     -1.054334    11A     -0.919389    12A     -0.795086
      13A     -0.728868    14A     -0.699876    15A     -0.658042
      16A     -0.653832    17A     -0.615433    18A     -0.598952
      19A     -0.562635    20A     -0.556204    21A     -0.523094
      22A     -0.483827    23A     -0.463488    24A     -0.450238

  @DF-RHF Final Energy:  -341.82422595739035

   => Energetics <=

    Nuclear Repulsion Energy =            248.2926432218276602
    One-Electron Energy =                -960.9385636468052780
    Two-Electron Energy =                 370.8216944675872355
    Total Energy =                       -341.8242259573903539
  Basis Set: (AUG-CC-PVTZ AUX)
    Blend: AUG-CC-PVTZ-RI
    Molecular point group: c1

    Geometry (in Angstrom), charge = 0, multiplicity = 1:

       Center              X                  Y                   Z               Mass
    ------------   -----------------  -----------------  -----------------  -----------------
         O            1.401909076898    -1.086069525568    -0.241754262008    15.994914619570
         O           -1.504137923102     0.938070474432    -0.390603262008    15.994914619570
         O           -1.165274923102    -1.101137525568     0.551308737992    15.994914619570
         C            0.714621076898     0.145527474432    -0.391905262008    12.000000000000
         C            1.291320076898     1.240296474432     0.503127737992    12.000000000000
         C           -0.729440923102    -0.122452525568    -0.018470262008    12.000000000000
         H            0.720614076898     0.483329474432    -1.438958262008     1.007825032230
         H            1.260141076898     0.908870474432     1.544079737992     1.007825032230
         H            0.728294076898     2.170281474432     0.399280737992     1.007825032230
         H            2.333629076898     1.434675474432     0.230889737992     1.007825032230
         H            2.331110076898    -0.918813525568    -0.475177262008     1.007825032230
         H           -2.456653323102     0.703613474432    -0.078196362008     1.007825032230

  Basis Set: AUG-CC-PVTZ
    Blend: AUG-CC-PVTZ
  Basis Set: (AUG-CC-PVTZ AUX)
    Blend: AUG-CC-PVTZ-JKFIT
	 Reference Energy          =    -341.8242259573903539 [Eh]
	 Singles Energy            =      -0.0000000000000000 [Eh]
	 Same-Spin Energy          =      -0.3274339152882181 [Eh]
	 Opposite-Spin Energy      =      -1.0139996118359256 [Eh]
	 Correlation Energy        =      -1.3414335271241438 [Eh]
	 Total Energy              =    -343.1656594845144923 [Eh]

	 ================> DF-SCS-MP2 Energies <==================
	-----------------------------------------------------------
	 SCS Same-Spin Scale       =       0.3333333333333333 [-]
	 SCS Opposite-Spin Scale   =       1.2000000000000000 [-]
	 SCS Same-Spin Energy      =      -0.1091446384294060 [Eh]
	 SCS Opposite-Spin Energy  =      -1.2167995342031106 [Eh]
	 SCS Correlation Energy    =      -1.3259441726325165 [Eh]
	 SCS Total Energy          =    -343.1501701300228433 [Eh]
	-----------------------------------------------------------

  Dipole Moment: [D]
     X:     1.1522      Y:     2.7937      Z:    -0.9456     Total:     3.1664

*** Psi4 exiting successfully. Buy a developer a beer!
