                               Psi4 1.3.2 release

  ==> Input File <==

--------------------------------------------------------------------------
#psi4
#
memory 32 gb

molecule  {
0 1
  O       -1.3597980    -1.1437690     0.1887320
  O        1.4419330     1.0393260     0.2985870
  O        1.2366830    -1.0978030    -0.4508720
  C       -0.6274445     0.2792589     0.4154354
  C       -1.3431230     1.2084980    -0.4569850
  C        0.7367530    -0.0975110     0.0221890
  H       -0.7373290     0.3987270     1.4472430
  H       -1.2930290     0.9302150    -1.5111840
  H       -0.8256550     2.1573260    -0.3051780
  H       -2.3949050     1.3388590    -0.1830910
  H       -2.2729280    -1.0415480     0.5084360
  H        2.3630120     0.8399890     0.0298380
units angstrom
no_reorient  #important for SAPT in psi4, default
symmetry c1  #important for SAPT in psi4, default
}

set PROPERTIES_ORIGIN ["COM"]
properties('MP2/aug-cc-pvtz', properties = ['dipole'])
--------------------------------------------------------------------------

    Molecular point group: c1
  Charge       = 0
  Multiplicity = 1
  Basis Set: AUG-CC-PVTZ
    Blend: AUG-CC-PVTZ
  Basis Set: (AUG-CC-PVTZ AUX)
    Blend: AUG-CC-PVTZ-JKFIT

    Orbital Energies [Eh]
    ---------------------

    Doubly Occupied:

       1A    -20.622022     2A    -20.564263     3A    -20.550882
       4A    -11.398907     5A    -11.318473     6A    -11.245063
       7A     -1.470578     8A     -1.367182     9A     -1.310495
      10A     -1.083863    11A     -0.939894    12A     -0.803514
      13A     -0.728982    14A     -0.712071    15A     -0.659647
      16A     -0.633866    17A     -0.605589    18A     -0.596753
      19A     -0.580978    20A     -0.557468    21A     -0.493094
      22A     -0.484664    23A     -0.465862    24A     -0.461157

  @DF-RHF Final Energy:  -341.79069540905010

   => Energetics <=

    Nuclear Repulsion Energy =            248.1792200169289515
    One-Electron Energy =                -960.6293025516420130
    Two-Electron Energy =                 370.6593871256629313
    Total Energy =                       -341.7906954090501017
  Basis Set: (AUG-CC-PVTZ AUX)
    Blend: AUG-CC-PVTZ-RI
    Molecular point group: c1

    Geometry (in Angstrom), charge = 0, multiplicity = 1:

       Center              X                  Y                   Z               Mass
    ------------   -----------------  -----------------  -----------------  -----------------
         O           -1.371875853558    -1.167237138294     0.184993378762    15.994914619570
         O            1.429855146442     1.015857861706     0.294848378762    15.994914619570
         O            1.224605146442    -1.121271138294    -0.454610621238    15.994914619570
         C           -0.639522353558     0.255790761706     0.411696778762    12.000000000000
         C           -1.355200853558     1.185029861706    -0.460723621238    12.000000000000
         C            0.724675146442    -0.120979138294     0.018450378762    12.000000000000
         H           -0.749406853558     0.375258861706     1.443504378762     1.007825032230
         H           -1.305106853558     0.906746861706    -1.514922621238     1.007825032230
         H           -0.837732853558     2.133857861706    -0.308916621238     1.007825032230
         H           -2.406982853558     1.315390861706    -0.186829621238     1.007825032230
         H           -2.285005853558    -1.065016138294     0.504697378762     1.007825032230
         H            2.350934146442     0.816520861706     0.026099378762     1.007825032230

  Basis Set: AUG-CC-PVTZ
    Blend: AUG-CC-PVTZ
  Basis Set: (AUG-CC-PVTZ AUX)
    Blend: AUG-CC-PVTZ-JKFIT
	 Reference Energy          =    -341.7906954090501017 [Eh]
	 Singles Energy            =      -0.0000000000000000 [Eh]
	 Same-Spin Energy          =      -0.3293567425994608 [Eh]
	 Opposite-Spin Energy      =      -1.0195325933862680 [Eh]
	 Correlation Energy        =      -1.3488893359857288 [Eh]
	 Total Energy              =    -343.1395847450358474 [Eh]

	 ================> DF-SCS-MP2 Energies <==================
	-----------------------------------------------------------
	 SCS Same-Spin Scale       =       0.3333333333333333 [-]
	 SCS Opposite-Spin Scale   =       1.2000000000000000 [-]
	 SCS Same-Spin Energy      =      -0.1097855808664869 [Eh]
	 SCS Opposite-Spin Energy  =      -1.2234391120635215 [Eh]
	 SCS Correlation Energy    =      -1.3332246929300084 [Eh]
	 SCS Total Energy          =    -343.1239201019801044 [Eh]
	-----------------------------------------------------------

  Dipole Moment: [D]
     X:    -0.9396      Y:     3.2467      Z:     1.0131     Total:     3.5284

*** Psi4 exiting successfully. Buy a developer a beer!
