                               Psi4 1.3.2 release

  ==> Input File <==

--------------------------------------------------------------------------
#psi4
#
memory 32 gb

molecule  {
0 1
  O       -1.3597980    -1.1437690     0.1887320
  O        1.4419330     1.0393260     0.2985870
  O        1.2366830    -1.0978030    -0.4508720
  C       -0.7180600     0.1031850     0.3873850
  C       -1.3431230     1.2084980    -0.4569850
  C        0.6851309    -0.1807322     0.0019555
  H       -0.7373290     0.3987270     1.4472430
  H       -1.2930290     0.9302150    -1.5111840
  H       -0.8256550     2.1573260    -0.3051780
  H       -2.3949050     1.3388590    -0.1830910
  H       -2.2729280    -1.0415480     0.5084360
  H        2.3630120     0.8399890     0.0298380
units angstrom
no_reorient  #important for SAPT in psi4, default
symmetry c1  #important for SAPT in psi4, default
}

set PROPERTIES_ORIGIN ["COM"]
properties('MP2/aug-cc-pvtz', properties = ['dipole'])
--------------------------------------------------------------------------

    Molecular point group: c1
  Charge       = 0
  Multiplicity = 1
  Basis Set: AUG-CC-PVTZ
    Blend: AUG-CC-PVTZ
  Basis Set: (AUG-CC-PVTZ AUX)
    Blend: AUG-CC-PVTZ-JKFIT

    Orbital Energies [Eh]
    ---------------------

    Doubly Occupied:

       1A    -20.589796     2A    -20.578644     3A    -20.570698
       4A    -11.388956     5A    -11.316522     6A    -11.241229
       7A     -1.465099     8A     -1.383911     9A     -1.349919
      10A     -1.060200    11A     -0.926012    12A     -0.779008
      13A     -0.740400    14A     -0.700696    15A     -0.661256
      16A     -0.646609    17A     -0.609782    18A     -0.598341
      19A     -0.567940    20A     -0.562774    21A     -0.528570
      22A     -0.493680    23A     -0.467549    24A     -0.454879

  @DF-RHF Final Energy:  -341.81953314844679

   => Energetics <=

    Nuclear Repulsion Energy =            248.9717220149663603
    One-Electron Energy =                -962.2175674759206458
    Two-Electron Energy =                 371.4263123125075481
    Total Energy =                       -341.8195331484467943
  Basis Set: (AUG-CC-PVTZ AUX)
    Blend: AUG-CC-PVTZ-RI
    Molecular point group: c1

    Geometry (in Angstrom), charge = 0, multiplicity = 1:

       Center              X                  Y                   Z               Mass
    ------------   -----------------  -----------------  -----------------  -----------------
         O           -1.352917516520    -1.132676628990     0.191428965764    15.994914619570
         O            1.448813483480     1.050418371010     0.301283965764    15.994914619570
         O            1.243563483480    -1.086710628990    -0.448175034236    15.994914619570
         C           -0.711179516520     0.114277371010     0.390081965764    12.000000000000
         C           -1.336242516520     1.219590371010    -0.454288034236    12.000000000000
         C            0.692011383480    -0.169639828990     0.004652465764    12.000000000000
         H           -0.730448516520     0.409819371010     1.449939965764     1.007825032230
         H           -1.286148516520     0.941307371010    -1.508487034236     1.007825032230
         H           -0.818774516520     2.168418371010    -0.302481034236     1.007825032230
         H           -2.388024516520     1.349951371010    -0.180394034236     1.007825032230
         H           -2.266047516520    -1.030455628990     0.511132965764     1.007825032230
         H            2.369892483480     0.851081371010     0.032534965764     1.007825032230

  Basis Set: AUG-CC-PVTZ
    Blend: AUG-CC-PVTZ
  Basis Set: (AUG-CC-PVTZ AUX)
    Blend: AUG-CC-PVTZ-JKFIT
	 Reference Energy          =    -341.8195331484467943 [Eh]
	 Singles Energy            =      -0.0000000000000000 [Eh]
	 Same-Spin Energy          =      -0.3266645750163645 [Eh]
	 Opposite-Spin Energy      =      -1.0128577509211223 [Eh]
	 Correlation Energy        =      -1.3395223259374869 [Eh]
	 Total Energy              =    -343.1590554743842745 [Eh]

	 ================> DF-SCS-MP2 Energies <==================
	-----------------------------------------------------------
	 SCS Same-Spin Scale       =       0.3333333333333333 [-]
	 SCS Opposite-Spin Scale   =       1.2000000000000000 [-]
	 SCS Same-Spin Energy      =      -0.1088881916721215 [Eh]
	 SCS Opposite-Spin Energy  =      -1.2154293011053467 [Eh]
	 SCS Correlation Energy    =      -1.3243174927774684 [Eh]
	 SCS Total Energy          =    -343.1438506412242759 [Eh]
	-----------------------------------------------------------

  Dipole Moment: [D]
     X:    -1.7414      Y:     2.0236      Z:     0.8642     Total:     2.8061

*** Psi4 exiting successfully. Buy a developer a beer!
