                               Psi4 1.3.2 release

  ==> Input File <==

--------------------------------------------------------------------------
#psi4
#
memory 32 gb

molecule  {
0 1
  O       -1.3597980    -1.1437690     0.1887320
  O        1.4419330     1.0393260     0.2985870
  O        1.2366830    -1.0978030    -0.4508720
  C       -0.7180600     0.1031850     0.3873850
  C       -1.3431230     1.2084980    -0.4569850
  C        0.8328871    -0.1107730    -0.0019432
  H       -0.7373290     0.3987270     1.4472430
  H       -1.2930290     0.9302150    -1.5111840
  H       -0.8256550     2.1573260    -0.3051780
  H       -2.3949050     1.3388590    -0.1830910
  H       -2.2729280    -1.0415480     0.5084360
  H        2.3630120     0.8399890     0.0298380
units angstrom
no_reorient  #important for SAPT in psi4, default
symmetry c1  #important for SAPT in psi4, default
}

set PROPERTIES_ORIGIN ["COM"]
properties('MP2/aug-cc-pvtz', properties = ['dipole'])
--------------------------------------------------------------------------

    Molecular point group: c1
  Charge       = 0
  Multiplicity = 1
  Basis Set: AUG-CC-PVTZ
    Blend: AUG-CC-PVTZ
  Basis Set: (AUG-CC-PVTZ AUX)
    Blend: AUG-CC-PVTZ-JKFIT

    Orbital Energies [Eh]
    ---------------------

    Doubly Occupied:

       1A    -20.628308     2A    -20.568115     3A    -20.560263
       4A    -11.384328     5A    -11.305387     6A    -11.231307
       7A     -1.489211     8A     -1.400128     9A     -1.368906
      10A     -1.035893    11A     -0.902200    12A     -0.803270
      13A     -0.725367    14A     -0.717703    15A     -0.673716
      16A     -0.656187    17A     -0.616092    18A     -0.602037
      19A     -0.561917    20A     -0.556596    21A     -0.520582
      22A     -0.505839    23A     -0.455319    24A     -0.434314

  @DF-RHF Final Energy:  -341.82198721982337

   => Energetics <=

    Nuclear Repulsion Energy =            248.6808311301494712
    One-Electron Energy =                -961.5996654816669889
    Two-Electron Energy =                 371.0968471316941191
    Total Energy =                       -341.8219872198233702
  Basis Set: (AUG-CC-PVTZ AUX)
    Blend: AUG-CC-PVTZ-RI
    Molecular point group: c1

    Geometry (in Angstrom), charge = 0, multiplicity = 1:

       Center              X                  Y                   Z               Mass
    ------------   -----------------  -----------------  -----------------  -----------------
         O           -1.372611407862    -1.142001238605     0.191948609435    15.994914619570
         O            1.429119592138     1.041093761395     0.301803609435    15.994914619570
         O            1.223869592138    -1.096035238605    -0.447655390565    15.994914619570
         C           -0.730873407862     0.104952761395     0.390601609435    12.000000000000
         C           -1.355936407862     1.210265761395    -0.453768390565    12.000000000000
         C            0.820073692138    -0.109005238605     0.001273409435    12.000000000000
         H           -0.750142407862     0.400494761395     1.450459609435     1.007825032230
         H           -1.305842407862     0.931982761395    -1.507967390565     1.007825032230
         H           -0.838468407862     2.159093761395    -0.301961390565     1.007825032230
         H           -2.407718407862     1.340626761395    -0.179874390565     1.007825032230
         H           -2.285741407862    -1.039780238605     0.511652609435     1.007825032230
         H            2.350198592138     0.841756761395     0.033054609435     1.007825032230

  Basis Set: AUG-CC-PVTZ
    Blend: AUG-CC-PVTZ
  Basis Set: (AUG-CC-PVTZ AUX)
    Blend: AUG-CC-PVTZ-JKFIT
	 Reference Energy          =    -341.8219872198233702 [Eh]
	 Singles Energy            =      -0.0000000000000000 [Eh]
	 Same-Spin Energy          =      -0.3256390420255171 [Eh]
	 Opposite-Spin Energy      =      -1.0098760043124657 [Eh]
	 Correlation Energy        =      -1.3355150463379828 [Eh]
	 Total Energy              =    -343.1575022661613730 [Eh]

	 ================> DF-SCS-MP2 Energies <==================
	-----------------------------------------------------------
	 SCS Same-Spin Scale       =       0.3333333333333333 [-]
	 SCS Opposite-Spin Scale   =       1.2000000000000000 [-]
	 SCS Same-Spin Energy      =      -0.1085463473418390 [Eh]
	 SCS Opposite-Spin Energy  =      -1.2118512051749588 [Eh]
	 SCS Correlation Energy    =      -1.3203975525167979 [Eh]
	 SCS Total Energy          =    -343.1423847723401650 [Eh]
	-----------------------------------------------------------

  Dipole Moment: [D]
     X:    -0.7291      Y:     2.6113      Z:     0.9578     Total:     2.8754

*** Psi4 exiting successfully. Buy a developer a beer!
