                               Psi4 1.4a3.dev225

  ==> Input File <==

--------------------------------------------------------------------------
#psi4
#
memory 32 gb

molecule  {
0 1
  O        1.3501930    -1.1356630    -0.2433140
  O       -1.5558540     0.8884770    -0.3921630
  O       -1.2169910    -1.1507310     0.5497490
  C        0.6629050     0.0959340    -0.3934650
  C        1.2396040     1.1907030     0.5015680
  C       -0.7811570    -0.1720460    -0.0200300
  H        0.6688980     0.4337360    -1.4405180
  H        1.2084250     0.8592770     1.5425200
  H        0.6765780     2.1206880     0.3977210
  H        2.2819130     1.3850820     0.2293300
  H        2.2602857    -0.9718465    -0.4719368
  H       -2.4621080     0.6654070    -0.0949290
units angstrom
no_reorient  #important for SAPT in psi4, default
symmetry c1  #important for SAPT in psi4, default
}

set PROPERTIES_ORIGIN ["COM"]
properties('MP2/aug-cc-pvtz', properties = ['dipole'])
--------------------------------------------------------------------------

    Molecular point group: c1
  Charge       = 0
  Multiplicity = 1
  Basis Set: AUG-CC-PVTZ
    Blend: AUG-CC-PVTZ
  Basis Set: (AUG-CC-PVTZ AUX)
    Blend: AUG-CC-PVTZ-JKFIT

    Orbital Energies [Eh]
    ---------------------

    Doubly Occupied:

       1A    -20.619525     2A    -20.573579     3A    -20.554666
       4A    -11.390342     5A    -11.314024     6A    -11.241061
       7A     -1.463570     8A     -1.384937     9A     -1.357643
      10A     -1.056731    11A     -0.922633    12A     -0.803969
      13A     -0.731594    14A     -0.703506    15A     -0.662116
      16A     -0.655019    17A     -0.617735    18A     -0.602413
      19A     -0.563570    20A     -0.557597    21A     -0.524574
      22A     -0.485370    23A     -0.464330    24A     -0.451236

  @DF-RHF Final Energy:  -341.83016935627410

   => Energetics <=

    Nuclear Repulsion Energy =            248.7078366622067733
    One-Electron Energy =                -961.6725326423140814
    Two-Electron Energy =                 371.1345266238332101
    Total Energy =                       -341.8301693562740979
  Basis Set: (AUG-CC-PVTZ AUX)
    Blend: AUG-CC-PVTZ-RI
    Molecular point group: c1

    Geometry (in Angstrom), charge = 0, multiplicity = 1:

       Center              X                  Y                   Z               Mass
    ------------   -----------------  -----------------  -----------------  -----------------
         O            1.401605122005    -1.086158490788    -0.241638148823    15.994914619570
         O           -1.504441877995     0.937981509212    -0.390487148823    15.994914619570
         O           -1.165578877995    -1.101226490788     0.551424851177    15.994914619570
         C            0.714317122005     0.145438509212    -0.391789148823    12.000000000000
         C            1.291016122005     1.240207509212     0.503243851177    12.000000000000
         C           -0.729744877995    -0.122541490788    -0.018354148823    12.000000000000
         H            0.720310122005     0.483240509212    -1.438842148823     1.007825032230
         H            1.259837122005     0.908781509212     1.544195851177     1.007825032230
         H            0.727990122005     2.170192509212     0.399396851177     1.007825032230
         H            2.333325122005     1.434586509212     0.231005851177     1.007825032230
         H            2.311697822005    -0.922341990788    -0.470260948823     1.007825032230
         H           -2.410695877995     0.714911509212    -0.093253148823     1.007825032230

  Basis Set: AUG-CC-PVTZ
    Blend: AUG-CC-PVTZ
  Basis Set: (AUG-CC-PVTZ AUX)
    Blend: AUG-CC-PVTZ-JKFIT
	 Reference Energy          =    -341.8301693562740979 [Eh]
	 Singles Energy            =      -0.0000000000000000 [Eh]
	 Same-Spin Energy          =      -0.3265646046716459 [Eh]
	 Opposite-Spin Energy      =      -1.0118713814736318 [Eh]
	 Correlation Energy        =      -1.3384359861452777 [Eh]
	 Total Energy              =    -343.1686053424193688 [Eh]

	 ================> DF-SCS-MP2 Energies <==================
	-----------------------------------------------------------
	 SCS Same-Spin Scale       =       0.3333333333333333 [-]
	 SCS Opposite-Spin Scale   =       1.2000000000000000 [-]
	 SCS Same-Spin Energy      =      -0.1088548682238820 [Eh]
	 SCS Opposite-Spin Energy  =      -1.2142456577683580 [Eh]
	 SCS Correlation Energy    =      -1.3231005259922399 [Eh]
	 SCS Total Energy          =    -343.1532698822663292 [Eh]
	-----------------------------------------------------------

  Dipole Moment: [D]
     X:     1.1976      Y:     2.7979      Z:    -0.9538     Total:     3.1894

*** Psi4 exiting successfully. Buy a developer a beer!
