                               Psi4 1.4a3.dev225

  ==> Input File <==

--------------------------------------------------------------------------
#psi4
#
memory 32 gb

molecule  {
0 1
  O        1.3501930    -1.1356630    -0.2433140
  O       -1.5558540     0.8884770    -0.3921630
  O       -1.2169910    -1.1507310     0.5497490
  C        0.6629050     0.0959340    -0.3934650
  C        1.2396040     1.1907030     0.5015680
  C       -0.7620991    -0.1685094    -0.0249584
  H        0.6688980     0.4337360    -1.4405180
  H        1.2084250     0.8592770     1.5425200
  H        0.6765780     2.1206880     0.3977210
  H        2.2819130     1.3850820     0.2293300
  H        2.2793940    -0.9684070    -0.4767370
  H       -2.4621080     0.6654070    -0.0949290
units angstrom
no_reorient  #important for SAPT in psi4, default
symmetry c1  #important for SAPT in psi4, default
}

set PROPERTIES_ORIGIN ["COM"]
properties('MP2/aug-cc-pvtz', properties = ['dipole'])
--------------------------------------------------------------------------

    Molecular point group: c1
  Charge       = 0
  Multiplicity = 1
  Basis Set: AUG-CC-PVTZ
    Blend: AUG-CC-PVTZ
  Basis Set: (AUG-CC-PVTZ AUX)
    Blend: AUG-CC-PVTZ-JKFIT

    Orbital Energies [Eh]
    ---------------------

    Doubly Occupied:

       1A    -20.617859     2A    -20.576790     3A    -20.553768
       4A    -11.391943     5A    -11.314873     6A    -11.242496
       7A     -1.458464     8A     -1.382074     9A     -1.349927
      10A     -1.060222    11A     -0.926195    12A     -0.802204
      13A     -0.732312    14A     -0.700197    15A     -0.659202
      16A     -0.654741    17A     -0.616077    18A     -0.600832
      19A     -0.564333    20A     -0.557648    21A     -0.524343
      22A     -0.481515    23A     -0.465026    24A     -0.452504

  @DF-RHF Final Energy:  -341.82717154020236

   => Energetics <=

    Nuclear Repulsion Energy =            248.5973964643302452
    One-Electron Energy =                -961.4780497776774837
    Two-Electron Energy =                 371.0534817731448811
    Total Energy =                       -341.8271715402023574
  Basis Set: (AUG-CC-PVTZ AUX)
    Blend: AUG-CC-PVTZ-RI
    Molecular point group: c1

    Geometry (in Angstrom), charge = 0, multiplicity = 1:

       Center              X                  Y                   Z               Mass
    ------------   -----------------  -----------------  -----------------  -----------------
         O            1.398851062719    -1.086668373610    -0.240927526165    15.994914619570
         O           -1.507195937281     0.937471626390    -0.389776526165    15.994914619570
         O           -1.168332937281    -1.101736373610     0.552135473835    15.994914619570
         C            0.711563062719     0.144928626390    -0.391078526165    12.000000000000
         C            1.288262062719     1.239697626390     0.503954473835    12.000000000000
         C           -0.713441037281    -0.119514773610    -0.022571926165    12.000000000000
         H            0.717556062719     0.482730626390    -1.438131526165     1.007825032230
         H            1.257083062719     0.908271626390     1.544906473835     1.007825032230
         H            0.725236062719     2.169682626390     0.400107473835     1.007825032230
         H            2.330571062719     1.434076626390     0.231716473835     1.007825032230
         H            2.328052062719    -0.919412373610    -0.474350526165     1.007825032230
         H           -2.413449937281     0.714401626390    -0.092542526165     1.007825032230

  Basis Set: AUG-CC-PVTZ
    Blend: AUG-CC-PVTZ
  Basis Set: (AUG-CC-PVTZ AUX)
    Blend: AUG-CC-PVTZ-JKFIT
	 Reference Energy          =    -341.8271715402023574 [Eh]
	 Singles Energy            =      -0.0000000000000000 [Eh]
	 Same-Spin Energy          =      -0.3271891740079408 [Eh]
	 Opposite-Spin Energy      =      -1.0133005741918464 [Eh]
	 Correlation Energy        =      -1.3404897481997873 [Eh]
	 Total Energy              =    -343.1676612884021438 [Eh]

	 ================> DF-SCS-MP2 Energies <==================
	-----------------------------------------------------------
	 SCS Same-Spin Scale       =       0.3333333333333333 [-]
	 SCS Opposite-Spin Scale   =       1.2000000000000000 [-]
	 SCS Same-Spin Energy      =      -0.1090630580026469 [Eh]
	 SCS Opposite-Spin Energy  =      -1.2159606890302157 [Eh]
	 SCS Correlation Energy    =      -1.3250237470328627 [Eh]
	 SCS Total Energy          =    -343.1521952872352017 [Eh]
	-----------------------------------------------------------

  Dipole Moment: [D]
     X:     1.3235      Y:     2.8147      Z:    -0.9738     Total:     3.2592

*** Psi4 exiting successfully. Buy a developer a beer!
