                               Psi4 1.4a3.dev225

  ==> Input File <==

--------------------------------------------------------------------------
#psi4
#
memory 32 gb

molecule  {
0 1
  O        1.3501930    -1.1356630    -0.2433140
  O       -1.5558540     0.8884770    -0.3921630
  O       -1.2169910    -1.1507310     0.5497490
  C        0.6629050     0.0959340    -0.3934650
  C        1.2396040     1.1907030     0.5015680
  C       -0.7698065    -0.1875843    -0.0145777
  H        0.6688980     0.4337360    -1.4405180
  H        1.2084250     0.8592770     1.5425200
  H        0.6765780     2.1206880     0.3977210
  H        2.2819130     1.3850820     0.2293300
  H        2.2793940    -0.9684070    -0.4767370
  H       -2.4621080     0.6654070    -0.0949290
units angstrom
no_reorient  #important for SAPT in psi4, default
symmetry c1  #important for SAPT in psi4, default
}

set PROPERTIES_ORIGIN ["COM"]
properties('MP2/aug-cc-pvtz', properties = ['dipole'])
--------------------------------------------------------------------------

    Molecular point group: c1
  Charge       = 0
  Multiplicity = 1
  Basis Set: AUG-CC-PVTZ
    Blend: AUG-CC-PVTZ
  Basis Set: (AUG-CC-PVTZ AUX)
    Blend: AUG-CC-PVTZ-JKFIT

    Orbital Energies [Eh]
    ---------------------

    Doubly Occupied:

       1A    -20.613662     2A    -20.576041     3A    -20.557771
       4A    -11.389830     5A    -11.314215     6A    -11.241354
       7A     -1.459323     8A     -1.381162     9A     -1.359733
      10A     -1.056583    11A     -0.922520    12A     -0.797189
      13A     -0.732082    14A     -0.701255    15A     -0.658341
      16A     -0.654570    17A     -0.616183    18A     -0.601373
      19A     -0.563528    20A     -0.558503    21A     -0.525283
      22A     -0.488292    23A     -0.464684    24A     -0.452739

  @DF-RHF Final Energy:  -341.82908142273305

   => Energetics <=

    Nuclear Repulsion Energy =            248.6291419746108033
    One-Electron Energy =                -961.5440119040201807
    Two-Electron Energy =                 371.0857885066763515
    Total Energy =                       -341.8290814227330543
  Basis Set: (AUG-CC-PVTZ AUX)
    Blend: AUG-CC-PVTZ-RI
    Molecular point group: c1

    Geometry (in Angstrom), charge = 0, multiplicity = 1:

       Center              X                  Y                   Z               Mass
    ------------   -----------------  -----------------  -----------------  -----------------
         O            1.399878354285    -1.084125948940    -0.242311132253    15.994914619570
         O           -1.506168645715     0.940014051060    -0.391160132253    15.994914619570
         O           -1.167305645715    -1.099193948940     0.550751867747    15.994914619570
         C            0.712590354285     0.147471051060    -0.392462132253    12.000000000000
         C            1.289289354285     1.242240051060     0.502570867747    12.000000000000
         C           -0.720121145715    -0.136047248940    -0.013574832253    12.000000000000
         H            0.718583354285     0.485273051060    -1.439515132253     1.007825032230
         H            1.258110354285     0.910814051060     1.543522867747     1.007825032230
         H            0.726263354285     2.172225051060     0.398723867747     1.007825032230
         H            2.331598354285     1.436619051060     0.230332867747     1.007825032230
         H            2.329079354285    -0.916869948940    -0.475734132253     1.007825032230
         H           -2.412422645715     0.716944051060    -0.093926132253     1.007825032230

  Basis Set: AUG-CC-PVTZ
    Blend: AUG-CC-PVTZ
  Basis Set: (AUG-CC-PVTZ AUX)
    Blend: AUG-CC-PVTZ-JKFIT
	 Reference Energy          =    -341.8290814227330543 [Eh]
	 Singles Energy            =      -0.0000000000000000 [Eh]
	 Same-Spin Energy          =      -0.3267115162627711 [Eh]
	 Opposite-Spin Energy      =      -1.0124627957533954 [Eh]
	 Correlation Energy        =      -1.3391743120161665 [Eh]
	 Total Energy              =    -343.1682557347492093 [Eh]

	 ================> DF-SCS-MP2 Energies <==================
	-----------------------------------------------------------
	 SCS Same-Spin Scale       =       0.3333333333333333 [-]
	 SCS Opposite-Spin Scale   =       1.2000000000000000 [-]
	 SCS Same-Spin Energy      =      -0.1089038387542570 [Eh]
	 SCS Opposite-Spin Energy  =      -1.2149553549040744 [Eh]
	 SCS Correlation Energy    =      -1.3238591936583313 [Eh]
	 SCS Total Energy          =    -343.1529406163913904 [Eh]
	-----------------------------------------------------------

  Dipole Moment: [D]
     X:     1.3036      Y:     2.6688      Z:    -0.9063     Total:     3.1053

*** Psi4 exiting successfully. Buy a developer a beer!
