                               Psi4 1.3.2 release

  ==> Input File <==

--------------------------------------------------------------------------
#psi4
#
memory 32 gb

molecule  {
0 1
  O       -1.3597980    -1.1437690     0.1887320
  O        1.4419330     1.0393260     0.2985870
  O        1.1792771    -1.1250773    -0.4495957
  C       -0.7323081     0.0292790     0.3626468
  C       -1.3431230     1.2084980    -0.4569850
  C        0.7367530    -0.0975110     0.0221890
  H       -0.7373290     0.3987270     1.4472430
  H       -1.2930290     0.9302150    -1.5111840
  H       -0.8256550     2.1573260    -0.3051780
  H       -2.3949050     1.3388590    -0.1830910
  H       -2.2729280    -1.0415480     0.5084360
  H        2.3630120     0.8399890     0.0298380
units angstrom
no_reorient  #important for SAPT in psi4, default
symmetry c1  #important for SAPT in psi4, default
}

set PROPERTIES_ORIGIN ["COM"]
properties('MP2/aug-cc-pvtz', properties = ['dipole'])
--------------------------------------------------------------------------

    Molecular point group: c1
  Charge       = 0
  Multiplicity = 1
  Basis Set: AUG-CC-PVTZ
    Blend: AUG-CC-PVTZ
  Basis Set: (AUG-CC-PVTZ AUX)
    Blend: AUG-CC-PVTZ-JKFIT

    Orbital Energies [Eh]
    ---------------------

    Doubly Occupied:

       1A    -20.624482     2A    -20.580605     3A    -20.552248
       4A    -11.388295     5A    -11.312531     6A    -11.236067
       7A     -1.462941     8A     -1.410835     9A     -1.360804
      10A     -1.043202    11A     -0.917477    12A     -0.809378
      13A     -0.730243    14A     -0.705414    15A     -0.678849
      16A     -0.654903    17A     -0.616625    18A     -0.607292
      19A     -0.564226    20A     -0.556227    21A     -0.522011
      22A     -0.486702    23A     -0.446976    24A     -0.443842

  @DF-RHF Final Energy:  -341.82243498314364

   => Energetics <=

    Nuclear Repulsion Energy =            249.5117589625716903
    One-Electron Energy =                -963.2440364725246127
    Two-Electron Energy =                 371.9098425268093138
    Total Energy =                       -341.8224349831436371
  Basis Set: (AUG-CC-PVTZ AUX)
    Blend: AUG-CC-PVTZ-RI
    Molecular point group: c1

    Geometry (in Angstrom), charge = 0, multiplicity = 1:

       Center              X                  Y                   Z               Mass
    ------------   -----------------  -----------------  -----------------  -----------------
         O           -1.347700304136    -1.129072701470     0.191802635179    15.994914619570
         O            1.454030695864     1.054022298530     0.301657635179    15.994914619570
         O            1.191374795864    -1.110381001470    -0.446525064821    15.994914619570
         C           -0.720210404136     0.043975298530     0.365717435179    12.000000000000
         C           -1.331025304136     1.223194298530    -0.453914364821    12.000000000000
         C            0.748850695864    -0.082814701470     0.025259635179    12.000000000000
         H           -0.725231304136     0.413423298530     1.450313635179     1.007825032230
         H           -1.280931304136     0.944911298530    -1.508113364821     1.007825032230
         H           -0.813557304136     2.172022298530    -0.302107364821     1.007825032230
         H           -2.382807304136     1.353555298530    -0.180020364821     1.007825032230
         H           -2.260830304136    -1.026851701470     0.511506635179     1.007825032230
         H            2.375109695864     0.854685298530     0.032908635179     1.007825032230

  Basis Set: AUG-CC-PVTZ
    Blend: AUG-CC-PVTZ
  Basis Set: (AUG-CC-PVTZ AUX)
    Blend: AUG-CC-PVTZ-JKFIT
	 Reference Energy          =    -341.8224349831436371 [Eh]
	 Singles Energy            =      -0.0000000000000000 [Eh]
	 Same-Spin Energy          =      -0.3269466455692580 [Eh]
	 Opposite-Spin Energy      =      -1.0116840101722064 [Eh]
	 Correlation Energy        =      -1.3386306557414644 [Eh]
	 Total Energy              =    -343.1610656388850771 [Eh]

	 ================> DF-SCS-MP2 Energies <==================
	-----------------------------------------------------------
	 SCS Same-Spin Scale       =       0.3333333333333333 [-]
	 SCS Opposite-Spin Scale   =       1.2000000000000000 [-]
	 SCS Same-Spin Energy      =      -0.1089822151897527 [Eh]
	 SCS Opposite-Spin Energy  =      -1.2140208122066476 [Eh]
	 SCS Correlation Energy    =      -1.3230030273964002 [Eh]
	 SCS Total Energy          =    -343.1454380105400332 [Eh]
	-----------------------------------------------------------

  Dipole Moment: [D]
     X:    -1.2908      Y:     2.5095      Z:     1.0346     Total:     3.0057

*** Psi4 exiting successfully. Buy a developer a beer!
