                               Psi4 1.4a3.dev225

  ==> Input File <==

--------------------------------------------------------------------------
#psi4
#
memory 32 gb

molecule  {
0 1
  O        1.3501930    -1.1356630    -0.2433140
  O       -1.5558540     0.8884770    -0.3921630
  O       -1.2169910    -1.1507310     0.5497490
  C        0.6629050     0.0959340    -0.3934650
  C        1.2396040     1.1907030     0.5015680
  C       -0.7335123    -0.1632044    -0.0323509
  H        0.6688980     0.4337360    -1.4405180
  H        1.2084250     0.8592770     1.5425200
  H        0.6765780     2.1206880     0.3977210
  H        2.2819130     1.3850820     0.2293300
  H        2.2793940    -0.9684070    -0.4767370
  H       -2.4621080     0.6654070    -0.0949290
units angstrom
no_reorient  #important for SAPT in psi4, default
symmetry c1  #important for SAPT in psi4, default
}

set PROPERTIES_ORIGIN ["COM"]
properties('MP2/aug-cc-pvtz', properties = ['dipole'])
--------------------------------------------------------------------------

    Molecular point group: c1
  Charge       = 0
  Multiplicity = 1
  Basis Set: AUG-CC-PVTZ
    Blend: AUG-CC-PVTZ
  Basis Set: (AUG-CC-PVTZ AUX)
    Blend: AUG-CC-PVTZ-JKFIT

    Orbital Energies [Eh]
    ---------------------

    Doubly Occupied:

       1A    -20.615495     2A    -20.578878     3A    -20.552607
       4A    -11.394593     5A    -11.316219     6A    -11.244936
       7A     -1.451120     8A     -1.383986     9A     -1.338874
      10A     -1.067556    11A     -0.932415    12A     -0.801447
      13A     -0.735752    14A     -0.695401    15A     -0.659498
      16A     -0.654904    17A     -0.613648    18A     -0.598398
      19A     -0.566276    20A     -0.558078    21A     -0.525493
      22A     -0.476868    23A     -0.465887    24A     -0.453429

  @DF-RHF Final Energy:  -341.82168546578993

   => Energetics <=

    Nuclear Repulsion Energy =            248.6264507975967035
    One-Electron Energy =                -961.5327492949685393
    Two-Electron Energy =                 371.0846130315819096
    Total Energy =                       -341.8216854657899262
  Basis Set: (AUG-CC-PVTZ AUX)
    Blend: AUG-CC-PVTZ-RI
    Molecular point group: c1

    Geometry (in Angstrom), charge = 0, multiplicity = 1:

       Center              X                  Y                   Z               Mass
    ------------   -----------------  -----------------  -----------------  -----------------
         O            1.395040831182    -1.087375457939    -0.239942206485    15.994914619570
         O           -1.511006168818     0.936764542061    -0.388791206485    15.994914619570
         O           -1.172143168818    -1.102443457939     0.553120793515    15.994914619570
         C            0.707752831182     0.144221542061    -0.390093206485    12.000000000000
         C            1.284451831182     1.238990542061     0.504939793515    12.000000000000
         C           -0.688664468818    -0.114916857939    -0.028979106485    12.000000000000
         H            0.713745831182     0.482023542061    -1.437146206485     1.007825032230
         H            1.253272831182     0.907564542061     1.545891793515     1.007825032230
         H            0.721425831182     2.168975542061     0.401092793515     1.007825032230
         H            2.326760831182     1.433369542061     0.232701793515     1.007825032230
         H            2.324241831182    -0.920119457939    -0.473365206485     1.007825032230
         H           -2.417260168818     0.713694542061    -0.091557206485     1.007825032230

  Basis Set: AUG-CC-PVTZ
    Blend: AUG-CC-PVTZ
  Basis Set: (AUG-CC-PVTZ AUX)
    Blend: AUG-CC-PVTZ-JKFIT
	 Reference Energy          =    -341.8216854657899262 [Eh]
	 Singles Energy            =      -0.0000000000000000 [Eh]
	 Same-Spin Energy          =      -0.3278715162570094 [Eh]
	 Opposite-Spin Energy      =      -1.0147100701840845 [Eh]
	 Correlation Energy        =      -1.3425815864410939 [Eh]
	 Total Energy              =    -343.1642670522310254 [Eh]

	 ================> DF-SCS-MP2 Energies <==================
	-----------------------------------------------------------
	 SCS Same-Spin Scale       =       0.3333333333333333 [-]
	 SCS Opposite-Spin Scale   =       1.2000000000000000 [-]
	 SCS Same-Spin Energy      =      -0.1092905054190031 [Eh]
	 SCS Opposite-Spin Energy  =      -1.2176520842209013 [Eh]
	 SCS Correlation Energy    =      -1.3269425896399045 [Eh]
	 SCS Total Energy          =    -343.1486280554298105 [Eh]
	-----------------------------------------------------------

  Dipole Moment: [D]
     X:     1.4857      Y:     2.8421      Z:    -0.9958     Total:     3.3580

*** Psi4 exiting successfully. Buy a developer a beer!
