                               Psi4 1.3.2 release

  ==> Input File <==

--------------------------------------------------------------------------
#psi4
#
memory 32 gb

molecule  {
0 1
  O       -1.3597980    -1.1437690     0.1887320
  O        1.4419330     1.0393260     0.2985870
  O        1.2366830    -1.0978030    -0.4508720
  C       -0.7180600     0.1031850     0.3873850
  C       -1.3431230     1.2084980    -0.4569850
  C        0.6406189    -0.0842490     0.0463212
  H       -0.7373290     0.3987270     1.4472430
  H       -1.2930290     0.9302150    -1.5111840
  H       -0.8256550     2.1573260    -0.3051780
  H       -2.3949050     1.3388590    -0.1830910
  H       -2.2729280    -1.0415480     0.5084360
  H        2.3630120     0.8399890     0.0298380
units angstrom
no_reorient  #important for SAPT in psi4, default
symmetry c1  #important for SAPT in psi4, default
}

set PROPERTIES_ORIGIN ["COM"]
properties('MP2/aug-cc-pvtz', properties = ['dipole'])
--------------------------------------------------------------------------

    Molecular point group: c1
  Charge       = 0
  Multiplicity = 1
  Basis Set: AUG-CC-PVTZ
    Blend: AUG-CC-PVTZ
  Basis Set: (AUG-CC-PVTZ AUX)
    Blend: AUG-CC-PVTZ-JKFIT

    Orbital Energies [Eh]
    ---------------------

    Doubly Occupied:

       1A    -20.611748     2A    -20.582158     3A    -20.550964
       4A    -11.399222     5A    -11.317547     6A    -11.247231
       7A     -1.439253     8A     -1.387925     9A     -1.320086
      10A     -1.081338    11A     -0.942442    12A     -0.799962
      13A     -0.743187    14A     -0.688828    15A     -0.661181
      16A     -0.655437    17A     -0.605205    18A     -0.594454
      19A     -0.571004    20A     -0.559054    21A     -0.526407
      22A     -0.475470    23A     -0.460824    24A     -0.452284

  @DF-RHF Final Energy:  -341.80569112206177

   => Energetics <=

    Nuclear Repulsion Energy =            248.8316372322483687
    One-Electron Energy =                -961.9282313695391622
    Two-Electron Energy =                 371.2909030152290484
    Total Energy =                       -341.8056911220617735
  Basis Set: (AUG-CC-PVTZ AUX)
    Blend: AUG-CC-PVTZ-RI
    Molecular point group: c1

    Geometry (in Angstrom), charge = 0, multiplicity = 1:

       Center              X                  Y                   Z               Mass
    ------------   -----------------  -----------------  -----------------  -----------------
         O           -1.346984672474    -1.145536526965     0.185515621518    15.994914619570
         O            1.454746327526     1.037558473035     0.295370621518    15.994914619570
         O            1.249496327526    -1.099570526965    -0.454088378482    15.994914619570
         C           -0.705246672474     0.101417473035     0.384168621518    12.000000000000
         C           -1.330309672474     1.206730473035    -0.460201378482    12.000000000000
         C            0.653432227526    -0.086016526965     0.043104821518    12.000000000000
         H           -0.724515672474     0.396959473035     1.444026621518     1.007825032230
         H           -1.280215672474     0.928447473035    -1.514400378482     1.007825032230
         H           -0.812841672474     2.155558473035    -0.308394378482     1.007825032230
         H           -2.382091672474     1.337091473035    -0.186307378482     1.007825032230
         H           -2.260114672474    -1.043315526965     0.505219621518     1.007825032230
         H            2.375825327526     0.838221473035     0.026621621518     1.007825032230

  Basis Set: AUG-CC-PVTZ
    Blend: AUG-CC-PVTZ
  Basis Set: (AUG-CC-PVTZ AUX)
    Blend: AUG-CC-PVTZ-JKFIT
	 Reference Energy          =    -341.8056911220617735 [Eh]
	 Singles Energy            =      -0.0000000000000000 [Eh]
	 Same-Spin Energy          =      -0.3293109513558619 [Eh]
	 Opposite-Spin Energy      =      -1.0175510651885165 [Eh]
	 Correlation Energy        =      -1.3468620165443783 [Eh]
	 Total Energy              =    -343.1525531386061516 [Eh]

	 ================> DF-SCS-MP2 Energies <==================
	-----------------------------------------------------------
	 SCS Same-Spin Scale       =       0.3333333333333333 [-]
	 SCS Opposite-Spin Scale   =       1.2000000000000000 [-]
	 SCS Same-Spin Energy      =      -0.1097703171186206 [Eh]
	 SCS Opposite-Spin Energy  =      -1.2210612782262198 [Eh]
	 SCS Correlation Energy    =      -1.3308315953448404 [Eh]
	 SCS Total Energy          =    -343.1365227174065922 [Eh]
	-----------------------------------------------------------

  Dipole Moment: [D]
     X:    -1.8559      Y:     2.7743      Z:     1.1378     Total:     3.5264

*** Psi4 exiting successfully. Buy a developer a beer!
