                               Psi4 1.3.2 release

  ==> Input File <==

--------------------------------------------------------------------------
#psi4
#
memory 32 gb

molecule  {
0 1
  O       -1.3597980    -1.1437690     0.1887320
  O        1.4419330     1.0393260     0.2985870
  O        1.2555215    -1.0880984    -0.4510094
  C       -0.7124223     0.1277080     0.3954119
  C       -1.3431230     1.2084980    -0.4569850
  C        0.7367530    -0.0975110     0.0221890
  H       -0.7373290     0.3987270     1.4472430
  H       -1.2930290     0.9302150    -1.5111840
  H       -0.8256550     2.1573260    -0.3051780
  H       -2.3949050     1.3388590    -0.1830910
  H       -2.2729280    -1.0415480     0.5084360
  H        2.3630120     0.8399890     0.0298380
units angstrom
no_reorient  #important for SAPT in psi4, default
symmetry c1  #important for SAPT in psi4, default
}

set PROPERTIES_ORIGIN ["COM"]
properties('MP2/aug-cc-pvtz', properties = ['dipole'])
--------------------------------------------------------------------------

    Molecular point group: c1
  Charge       = 0
  Multiplicity = 1
  Basis Set: AUG-CC-PVTZ
    Blend: AUG-CC-PVTZ
  Basis Set: (AUG-CC-PVTZ AUX)
    Blend: AUG-CC-PVTZ-JKFIT

    Orbital Energies [Eh]
    ---------------------

    Doubly Occupied:

       1A    -20.618111     2A    -20.573314     3A    -20.555672
       4A    -11.391390     5A    -11.314331     6A    -11.240014
       7A     -1.463671     8A     -1.373516     9A     -1.354970
      10A     -1.059845    11A     -0.923104    12A     -0.801624
      13A     -0.731323    14A     -0.704939    15A     -0.658977
      16A     -0.648975    17A     -0.613005    18A     -0.601468
      19A     -0.566495    20A     -0.557759    21A     -0.521329
      22A     -0.484896    23A     -0.467251    24A     -0.453003

  @DF-RHF Final Energy:  -341.82759304742422

   => Energetics <=

    Nuclear Repulsion Energy =            248.4722757083610816
    One-Electron Energy =                -961.2417775712004868
    Two-Electron Energy =                 370.9419088154152178
    Total Energy =                       -341.8275930474242159
  Basis Set: (AUG-CC-PVTZ AUX)
    Blend: AUG-CC-PVTZ-RI
    Molecular point group: c1

    Geometry (in Angstrom), charge = 0, multiplicity = 1:

       Center              X                  Y                   Z               Mass
    ------------   -----------------  -----------------  -----------------  -----------------
         O           -1.363896292488    -1.148761571783     0.187686649213    15.994914619570
         O            1.437834707512     1.034333428217     0.297541649213    15.994914619570
         O            1.251423207512    -1.093090971783    -0.452054750787    15.994914619570
         C           -0.716520592488     0.122715428217     0.394366549213    12.000000000000
         C           -1.347221292488     1.203505428217    -0.458030350787    12.000000000000
         C            0.732654707512    -0.102503571783     0.021143649213    12.000000000000
         H           -0.741427292488     0.393734428217     1.446197649213     1.007825032230
         H           -1.297127292488     0.925222428217    -1.512229350787     1.007825032230
         H           -0.829753292488     2.152333428217    -0.306223350787     1.007825032230
         H           -2.399003292488     1.333866428217    -0.184136350787     1.007825032230
         H           -2.277026292488    -1.046540571783     0.507390649213     1.007825032230
         H            2.358913707512     0.834996428217     0.028792649213     1.007825032230

  Basis Set: AUG-CC-PVTZ
    Blend: AUG-CC-PVTZ
  Basis Set: (AUG-CC-PVTZ AUX)
    Blend: AUG-CC-PVTZ-JKFIT
	 Reference Energy          =    -341.8275930474242159 [Eh]
	 Singles Energy            =      -0.0000000000000000 [Eh]
	 Same-Spin Energy          =      -0.3269693935613363 [Eh]
	 Opposite-Spin Energy      =      -1.0130717181829367 [Eh]
	 Correlation Energy        =      -1.3400411117442730 [Eh]
	 Total Energy              =    -343.1676341591684718 [Eh]

	 ================> DF-SCS-MP2 Energies <==================
	-----------------------------------------------------------
	 SCS Same-Spin Scale       =       0.3333333333333333 [-]
	 SCS Opposite-Spin Scale   =       1.2000000000000000 [-]
	 SCS Same-Spin Energy      =      -0.1089897978537787 [Eh]
	 SCS Opposite-Spin Energy  =      -1.2156860618195240 [Eh]
	 SCS Correlation Energy    =      -1.3246758596733028 [Eh]
	 SCS Total Energy          =    -343.1522689070974934 [Eh]
	-----------------------------------------------------------

  Dipole Moment: [D]
     X:    -1.3252      Y:     2.7742      Z:     1.0639     Total:     3.2533

*** Psi4 exiting successfully. Buy a developer a beer!
