                               Psi4 1.3.2 release

  ==> Input File <==

--------------------------------------------------------------------------
#psi4
#
memory 32 gb

molecule  {
0 1
  O       -1.3597980    -1.1437690     0.1887320
  O        1.4419330     1.0393260     0.2985870
  O        1.2366830    -1.0978030    -0.4508720
  C       -0.7180600     0.1031850     0.3873850
  C       -1.3431230     1.2084980    -0.4569850
  C        0.7367530    -0.0975110     0.0221890
  H       -0.7373290     0.3987270     1.4472430
  H       -1.2930290     0.9302150    -1.5111840
  H       -0.8256550     2.1573260    -0.3051780
  H       -2.3949050     1.3388590    -0.1830910
  H       -2.2729280    -1.0415480     0.5084360
  H        2.1750316     0.8806711     0.0846862
units angstrom
no_reorient  #important for SAPT in psi4, default
symmetry c1  #important for SAPT in psi4, default
}

set PROPERTIES_ORIGIN ["COM"]
properties('MP2/aug-cc-pvtz', properties = ['dipole'])
--------------------------------------------------------------------------

    Molecular point group: c1
  Charge       = 0
  Multiplicity = 1
  Basis Set: AUG-CC-PVTZ
    Blend: AUG-CC-PVTZ
  Basis Set: (AUG-CC-PVTZ AUX)
    Blend: AUG-CC-PVTZ-JKFIT

    Orbital Energies [Eh]
    ---------------------

    Doubly Occupied:

       1A    -20.602895     2A    -20.576428     3A    -20.559094
       4A    -11.394531     5A    -11.314790     6A    -11.240424
       7A     -1.508251     8A     -1.391553     9A     -1.368762
      10A     -1.063173    11A     -0.937662    12A     -0.837051
      13A     -0.736281    14A     -0.716642    15A     -0.668499
      16A     -0.655882    17A     -0.622196    18A     -0.611539
      19A     -0.566963    20A     -0.561607    21A     -0.524597
      22A     -0.491579    23A     -0.464769    24A     -0.454832

  @DF-RHF Final Energy:  -341.78530847160926

   => Energetics <=

    Nuclear Repulsion Energy =            250.1470860253021726
    One-Electron Energy =                -964.1247900054127058
    Two-Electron Energy =                 372.1923955085012494
    Total Energy =                       -341.7853084716092553
  Basis Set: (AUG-CC-PVTZ AUX)
    Blend: AUG-CC-PVTZ-RI
    Molecular point group: c1

    Geometry (in Angstrom), charge = 0, multiplicity = 1:

       Center              X                  Y                   Z               Mass
    ------------   -----------------  -----------------  -----------------  -----------------
         O           -1.357693766171    -1.144224282843     0.188118138482    15.994914619570
         O            1.444037233829     1.038870717157     0.297973138482    15.994914619570
         O            1.238787233829    -1.098258282843    -0.451485861518    15.994914619570
         C           -0.715955766171     0.102729717157     0.386771138482    12.000000000000
         C           -1.341018766171     1.208042717157    -0.457598861518    12.000000000000
         C            0.738857233829    -0.097966282843     0.021575138482    12.000000000000
         H           -0.735224766171     0.398271717157     1.446629138482     1.007825032230
         H           -1.290924766171     0.929759717157    -1.511797861518     1.007825032230
         H           -0.823550766171     2.156870717157    -0.305791861518     1.007825032230
         H           -2.392800766171     1.338403717157    -0.183704861518     1.007825032230
         H           -2.270823766171    -1.042003282843     0.507822138482     1.007825032230
         H            2.177135833829     0.880215817157     0.084072338482     1.007825032230

  Basis Set: AUG-CC-PVTZ
    Blend: AUG-CC-PVTZ
  Basis Set: (AUG-CC-PVTZ AUX)
    Blend: AUG-CC-PVTZ-JKFIT
	 Reference Energy          =    -341.7853084716092553 [Eh]
	 Singles Energy            =      -0.0000000000000000 [Eh]
	 Same-Spin Energy          =      -0.3244292164017099 [Eh]
	 Opposite-Spin Energy      =      -1.0073112435930387 [Eh]
	 Correlation Energy        =      -1.3317404599947484 [Eh]
	 Total Energy              =    -343.1170489316040175 [Eh]

	 ================> DF-SCS-MP2 Energies <==================
	-----------------------------------------------------------
	 SCS Same-Spin Scale       =       0.3333333333333333 [-]
	 SCS Opposite-Spin Scale   =       1.2000000000000000 [-]
	 SCS Same-Spin Energy      =      -0.1081430721339033 [Eh]
	 SCS Opposite-Spin Energy  =      -1.2087734923116464 [Eh]
	 SCS Correlation Energy    =      -1.3169165644455498 [Eh]
	 SCS Total Energy          =    -343.1022250360547901 [Eh]
	-----------------------------------------------------------

  Dipole Moment: [D]
     X:    -1.5708      Y:     2.6851      Z:     1.0994     Total:     3.2994

*** Psi4 exiting successfully. Buy a developer a beer!
