                               Psi4 1.3.2 release

  ==> Input File <==

--------------------------------------------------------------------------
#psi4
#
memory 32 gb

molecule  {
0 1
  O       -1.3444170    -1.1379604     0.1164236
  O        1.4419330     1.0393260     0.2985870
  O        1.2366830    -1.0978030    -0.4508720
  C       -0.7180600     0.1031850     0.3873850
  C       -1.3431230     1.2084980    -0.4569850
  C        0.7367530    -0.0975110     0.0221890
  H       -0.7088976     0.4467138     1.4328128
  H       -1.2930290     0.9302150    -1.5111840
  H       -0.8256550     2.1573260    -0.3051780
  H       -2.3949050     1.3388590    -0.1830910
  H       -2.2729280    -1.0415480     0.5084360
  H        2.3630120     0.8399890     0.0298380
units angstrom
no_reorient  #important for SAPT in psi4, default
symmetry c1  #important for SAPT in psi4, default
}

set PROPERTIES_ORIGIN ["COM"]
properties('MP2/aug-cc-pvtz', properties = ['dipole'])
--------------------------------------------------------------------------

    Molecular point group: c1
  Charge       = 0
  Multiplicity = 1
  Basis Set: AUG-CC-PVTZ
    Blend: AUG-CC-PVTZ
  Basis Set: (AUG-CC-PVTZ AUX)
    Blend: AUG-CC-PVTZ-JKFIT

    Orbital Energies [Eh]
    ---------------------

    Doubly Occupied:

       1A    -20.618729     2A    -20.581672     3A    -20.553785
       4A    -11.388800     5A    -11.313078     6A    -11.237179
       7A     -1.462453     8A     -1.377777     9A     -1.354790
      10A     -1.053863    11A     -0.920005    12A     -0.798009
      13A     -0.732199    14A     -0.704041    15A     -0.662021
      16A     -0.643841    17A     -0.612992    18A     -0.598434
      19A     -0.565067    20A     -0.556833    21A     -0.523576
      22A     -0.484466    23A     -0.463229    24A     -0.450169

  @DF-RHF Final Energy:  -341.82257523040511

   => Energetics <=

    Nuclear Repulsion Energy =            248.9598443119386388
    One-Electron Energy =                -962.2508216225864999
    Two-Electron Energy =                 371.4684020802426971
    Total Energy =                       -341.8225752304051070
  Basis Set: (AUG-CC-PVTZ AUX)
    Blend: AUG-CC-PVTZ-RI
    Molecular point group: c1

    Geometry (in Angstrom), charge = 0, multiplicity = 1:

       Center              X                  Y                   Z               Mass
    ------------   -----------------  -----------------  -----------------  -----------------
         O           -1.347467873114    -1.139529400869     0.129431465840    15.994914619570
         O            1.438882126886     1.037756999131     0.311594865840    15.994914619570
         O            1.233632126886    -1.099372000869    -0.437864134160    15.994914619570
         C           -0.721110873114     0.101615999131     0.400392865840    12.000000000000
         C           -1.346173873114     1.206928999131    -0.443977134160    12.000000000000
         C            0.733702126886    -0.099080000869     0.035196865840    12.000000000000
         H           -0.711948473114     0.445144799131     1.445820665840     1.007825032230
         H           -1.296079873114     0.928645999131    -1.498176134160     1.007825032230
         H           -0.828705873114     2.155756999131    -0.292170134160     1.007825032230
         H           -2.397955873114     1.337289999131    -0.170083134160     1.007825032230
         H           -2.275978873114    -1.043117000869     0.521443865840     1.007825032230
         H            2.359961126886     0.838419999131     0.042845865840     1.007825032230

  Basis Set: AUG-CC-PVTZ
    Blend: AUG-CC-PVTZ
  Basis Set: (AUG-CC-PVTZ AUX)
    Blend: AUG-CC-PVTZ-JKFIT
	 Reference Energy          =    -341.8225752304051070 [Eh]
	 Singles Energy            =      -0.0000000000000000 [Eh]
	 Same-Spin Energy          =      -0.3276894456173229 [Eh]
	 Opposite-Spin Energy      =      -1.0143227679366074 [Eh]
	 Correlation Energy        =      -1.3420122135539303 [Eh]
	 Total Energy              =    -343.1645874439590216 [Eh]

	 ================> DF-SCS-MP2 Energies <==================
	-----------------------------------------------------------
	 SCS Same-Spin Scale       =       0.3333333333333333 [-]
	 SCS Opposite-Spin Scale   =       1.2000000000000000 [-]
	 SCS Same-Spin Energy      =      -0.1092298152057743 [Eh]
	 SCS Opposite-Spin Energy  =      -1.2171873215239288 [Eh]
	 SCS Correlation Energy    =      -1.3264171367297031 [Eh]
	 SCS Total Energy          =    -343.1489923671348379 [Eh]
	-----------------------------------------------------------

  Dipole Moment: [D]
     X:    -1.3371      Y:     2.6472      Z:     1.2034     Total:     3.2006

*** Psi4 exiting successfully. Buy a developer a beer!
