                               Psi4 1.3.2 release

  ==> Input File <==

--------------------------------------------------------------------------
#psi4
#
memory 32 gb

molecule  {
0 1
  O       -1.9552980    -0.1001660     0.0000220
  N        0.3498810    -0.0202960    -0.0000190
  C        0.3588684     1.4296409    -0.0000073
  C        1.5997520    -0.7495290     0.0000330
  C       -0.8580840    -0.6542600    -0.0000640
  H        0.9354200     1.7894750    -0.8904620
  H        0.9353900     1.7894590     0.8904760
  H       -0.6132960     1.8038840    -0.0000200
  H        2.1916710    -0.5051450    -0.8892690
  H        1.3957050    -1.8225400    -0.0000020
  H        2.1915820    -0.5051840     0.8894040
  H       -0.7500460    -1.7544780     0.0000470
units angstrom
no_reorient  #important for SAPT in psi4, default
symmetry c1  #important for SAPT in psi4, default
}

set PROPERTIES_ORIGIN ["COM"]
properties('MP2/aug-cc-pvtz', properties = ['dipole'])
--------------------------------------------------------------------------

    Molecular point group: c1
  Charge       = 0
  Multiplicity = 1
  Basis Set: AUG-CC-PVTZ
    Blend: AUG-CC-PVTZ
  Basis Set: (AUG-CC-PVTZ AUX)
    Blend: AUG-CC-PVTZ-JKFIT

    Orbital Energies [Eh]
    ---------------------

    Doubly Occupied:

       1A    -20.520643     2A    -15.597035     3A    -11.348323
       4A    -11.279925     5A    -11.261866     6A     -1.372287
       7A     -1.254189     8A     -0.989301     9A     -0.948095
      10A     -0.782206    11A     -0.705493    12A     -0.657016
      13A     -0.654979    14A     -0.582314    15A     -0.566781
      16A     -0.562832    17A     -0.556377    18A     -0.524423
      19A     -0.428469    20A     -0.375725

  @DF-RHF Final Energy:  -247.08051336787656

   => Energetics <=

    Nuclear Repulsion Energy =            181.3418981816736846
    One-Electron Energy =                -694.9082660282269899
    Two-Electron Energy =                 266.4858544786766856
    Total Energy =                       -247.0805133678765628
  Basis Set: (AUG-CC-PVTZ AUX)
    Blend: AUG-CC-PVTZ-RI
    Molecular point group: c1

    Geometry (in Angstrom), charge = 0, multiplicity = 1:

       Center              X                  Y                   Z               Mass
    ------------   -----------------  -----------------  -----------------  -----------------
         O           -1.861757928634    -0.089564968899     0.000024715965    15.994914619570
         N            0.443421071366    -0.009694968899    -0.000016284035    14.003074004430
         C            0.452408471366     1.440241931101    -0.000004584035    12.000000000000
         C            1.693292071366    -0.738927968899     0.000035715965    12.000000000000
         C           -0.764543928634    -0.643658968899    -0.000061284035    12.000000000000
         H            1.028960071366     1.800076031101    -0.890459284035     1.007825032230
         H            1.028930071366     1.800060031101     0.890478715965     1.007825032230
         H           -0.519755928634     1.814485031101    -0.000017284035     1.007825032230
         H            2.285211071366    -0.494543968899    -0.889266284035     1.007825032230
         H            1.489245071366    -1.811938968899     0.000000715965     1.007825032230
         H            2.285122071366    -0.494582968899     0.889406715965     1.007825032230
         H           -0.656505928634    -1.743876968899     0.000049715965     1.007825032230

  Basis Set: AUG-CC-PVTZ
    Blend: AUG-CC-PVTZ
  Basis Set: (AUG-CC-PVTZ AUX)
    Blend: AUG-CC-PVTZ-JKFIT
	 Reference Energy          =    -247.0805133678765628 [Eh]
	 Singles Energy            =      -0.0000000000000000 [Eh]
	 Same-Spin Energy          =      -0.2465712403582002 [Eh]
	 Opposite-Spin Energy      =      -0.8131880791085886 [Eh]
	 Correlation Energy        =      -1.0597593194667887 [Eh]
	 Total Energy              =    -248.1402726873433551 [Eh]

	 ================> DF-SCS-MP2 Energies <==================
	-----------------------------------------------------------
	 SCS Same-Spin Scale       =       0.3333333333333333 [-]
	 SCS Opposite-Spin Scale   =       1.2000000000000000 [-]
	 SCS Same-Spin Energy      =      -0.0821904134527334 [Eh]
	 SCS Opposite-Spin Energy  =      -0.9758256949303062 [Eh]
	 SCS Correlation Energy    =      -1.0580161083830397 [Eh]
	 SCS Total Energy          =    -248.1385294762596061 [Eh]
	-----------------------------------------------------------

  Dipole Moment: [D]
     X:     4.1218      Y:    -0.3966      Z:    -0.0000     Total:     4.1408

*** Psi4 exiting successfully. Buy a developer a beer!
