                               Psi4 1.3.2 release

  ==> Input File <==

--------------------------------------------------------------------------
#psi4
#
memory 32 gb

molecule  {
0 1
  O       -1.9552980    -0.1001660     0.0000220
  N        0.3498810    -0.0202960    -0.0000190
  C        0.4599890     1.4254820    -0.0000027
  C        1.5997520    -0.7495290     0.0000330
  C       -0.8580840    -0.6542600    -0.0000640
  H        0.9354200     1.7894750    -0.8904620
  H        0.9353900     1.7894590     0.8904760
  H       -0.6132960     1.8038840    -0.0000200
  H        2.1916710    -0.5051450    -0.8892690
  H        1.3957050    -1.8225400    -0.0000020
  H        2.1915820    -0.5051840     0.8894040
  H       -0.7500460    -1.7544780     0.0000470
units angstrom
no_reorient  #important for SAPT in psi4, default
symmetry c1  #important for SAPT in psi4, default
}

set PROPERTIES_ORIGIN ["COM"]
properties('MP2/aug-cc-pvtz', properties = ['dipole'])
--------------------------------------------------------------------------

    Molecular point group: c1
  Charge       = 0
  Multiplicity = 1
  Basis Set: AUG-CC-PVTZ
    Blend: AUG-CC-PVTZ
  Basis Set: (AUG-CC-PVTZ AUX)
    Blend: AUG-CC-PVTZ-JKFIT

    Orbital Energies [Eh]
    ---------------------

    Doubly Occupied:

       1A    -20.521054     2A    -15.596620     3A    -11.349976
       4A    -11.277136     5A    -11.260515     6A     -1.371691
       7A     -1.254222     8A     -0.984919     9A     -0.951578
      10A     -0.782634    11A     -0.700943    12A     -0.663568
      13A     -0.653243    14A     -0.583691    15A     -0.575426
      16A     -0.568985    17A     -0.530330    18A     -0.523584
      19A     -0.428721    20A     -0.379005

  @DF-RHF Final Energy:  -247.08018946553199

   => Energetics <=

    Nuclear Repulsion Energy =            181.1286522533409027
    One-Electron Energy =                -694.5019988237523876
    Two-Electron Energy =                 266.2931571048795263
    Total Energy =                       -247.0801894655319870
  Basis Set: (AUG-CC-PVTZ AUX)
    Blend: AUG-CC-PVTZ-RI
    Molecular point group: c1

    Geometry (in Angstrom), charge = 0, multiplicity = 1:

       Center              X                  Y                   Z               Mass
    ------------   -----------------  -----------------  -----------------  -----------------
         O           -1.878368487031    -0.088881807888     0.000023960346    15.994914619570
         N            0.426810512969    -0.009011807888    -0.000017039654    14.003074004430
         C            0.536918512969     1.436766192112    -0.000000739654    12.000000000000
         C            1.676681512969    -0.738244807888     0.000034960346    12.000000000000
         C           -0.781154487031    -0.642975807888    -0.000062039654    12.000000000000
         H            1.012349512969     1.800759192112    -0.890460039654     1.007825032230
         H            1.012319512969     1.800743192112     0.890477960346     1.007825032230
         H           -0.536366487031     1.815168192112    -0.000018039654     1.007825032230
         H            2.268600512969    -0.493860807888    -0.889267039654     1.007825032230
         H            1.472634512969    -1.811255807888    -0.000000039654     1.007825032230
         H            2.268511512969    -0.493899807888     0.889405960346     1.007825032230
         H           -0.673116487031    -1.743193807888     0.000048960346     1.007825032230

  Basis Set: AUG-CC-PVTZ
    Blend: AUG-CC-PVTZ
  Basis Set: (AUG-CC-PVTZ AUX)
    Blend: AUG-CC-PVTZ-JKFIT
	 Reference Energy          =    -247.0801894655319870 [Eh]
	 Singles Energy            =      -0.0000000000000000 [Eh]
	 Same-Spin Energy          =      -0.2468510924643763 [Eh]
	 Opposite-Spin Energy      =      -0.8137133660513117 [Eh]
	 Correlation Energy        =      -1.0605644585156879 [Eh]
	 Total Energy              =    -248.1407539240476865 [Eh]

	 ================> DF-SCS-MP2 Energies <==================
	-----------------------------------------------------------
	 SCS Same-Spin Scale       =       0.3333333333333333 [-]
	 SCS Opposite-Spin Scale   =       1.2000000000000000 [-]
	 SCS Same-Spin Energy      =      -0.0822836974881254 [Eh]
	 SCS Opposite-Spin Energy  =      -0.9764560392615740 [Eh]
	 SCS Correlation Energy    =      -1.0587397367496993 [Eh]
	 SCS Total Energy          =    -248.1389292022816733 [Eh]
	-----------------------------------------------------------

  Dipole Moment: [D]
     X:     4.1067      Y:    -0.3705      Z:     0.0000     Total:     4.1234

*** Psi4 exiting successfully. Buy a developer a beer!
