                               Psi4 1.3.2 release

  ==> Input File <==

--------------------------------------------------------------------------
#psi4
#
memory 32 gb

molecule  {
0 1
  O       -1.9552980    -0.1001660     0.0000220
  N        0.3498810    -0.0202960    -0.0000190
  C        0.5103789     1.4207586    -0.0000004
  C        1.5997520    -0.7495290     0.0000330
  C       -0.8580840    -0.6542600    -0.0000640
  H        0.9354200     1.7894750    -0.8904620
  H        0.9353900     1.7894590     0.8904760
  H       -0.6132960     1.8038840    -0.0000200
  H        2.1916710    -0.5051450    -0.8892690
  H        1.3957050    -1.8225400    -0.0000020
  H        2.1915820    -0.5051840     0.8894040
  H       -0.7500460    -1.7544780     0.0000470
units angstrom
no_reorient  #important for SAPT in psi4, default
symmetry c1  #important for SAPT in psi4, default
}

set PROPERTIES_ORIGIN ["COM"]
properties('MP2/aug-cc-pvtz', properties = ['dipole'])
--------------------------------------------------------------------------

    Molecular point group: c1
  Charge       = 0
  Multiplicity = 1
  Basis Set: AUG-CC-PVTZ
    Blend: AUG-CC-PVTZ
  Basis Set: (AUG-CC-PVTZ AUX)
    Blend: AUG-CC-PVTZ-JKFIT

    Orbital Energies [Eh]
    ---------------------

    Doubly Occupied:

       1A    -20.521519     2A    -15.596919     3A    -11.351031
       4A    -11.276050     5A    -11.261102     6A     -1.371713
       7A     -1.254649     8A     -0.983496     9A     -0.953470
      10A     -0.784116    11A     -0.699392    12A     -0.668146
      13A     -0.653590    14A     -0.584001    15A     -0.581771
      16A     -0.569458    17A     -0.532049    18A     -0.505813
      19A     -0.428975    20A     -0.380511

  @DF-RHF Final Energy:  -247.07183503580205

   => Energetics <=

    Nuclear Repulsion Energy =            181.0455966019404457
    One-Electron Energy =                -694.3193254621071446
    Two-Electron Energy =                 266.2018938243646176
    Total Energy =                       -247.0718350358020530
  Basis Set: (AUG-CC-PVTZ AUX)
    Blend: AUG-CC-PVTZ-RI
    Molecular point group: c1

    Geometry (in Angstrom), charge = 0, multiplicity = 1:

       Center              X                  Y                   Z               Mass
    ------------   -----------------  -----------------  -----------------  -----------------
         O           -1.886645775502    -0.088105919380     0.000023582537    15.994914619570
         N            0.418533224498    -0.008235919380    -0.000017417463    14.003074004430
         C            0.579031124498     1.432818680620     0.000001182537    12.000000000000
         C            1.668404224498    -0.737468919380     0.000034582537    12.000000000000
         C           -0.789431775502    -0.642199919380    -0.000062417463    12.000000000000
         H            1.004072224498     1.801535080620    -0.890460417463     1.007825032230
         H            1.004042224498     1.801519080620     0.890477582537     1.007825032230
         H           -0.544643775502     1.815944080620    -0.000018417463     1.007825032230
         H            2.260323224498    -0.493084919380    -0.889267417463     1.007825032230
         H            1.464357224498    -1.810479919380    -0.000000417463     1.007825032230
         H            2.260234224498    -0.493123919380     0.889405582537     1.007825032230
         H           -0.681393775502    -1.742417919380     0.000048582537     1.007825032230

  Basis Set: AUG-CC-PVTZ
    Blend: AUG-CC-PVTZ
  Basis Set: (AUG-CC-PVTZ AUX)
    Blend: AUG-CC-PVTZ-JKFIT
	 Reference Energy          =    -247.0718350358020530 [Eh]
	 Singles Energy            =      -0.0000000000000000 [Eh]
	 Same-Spin Energy          =      -0.2471799531464133 [Eh]
	 Opposite-Spin Energy      =      -0.8144754291164391 [Eh]
	 Correlation Energy        =      -1.0616553822628525 [Eh]
	 Total Energy              =    -248.1334904180648948 [Eh]

	 ================> DF-SCS-MP2 Energies <==================
	-----------------------------------------------------------
	 SCS Same-Spin Scale       =       0.3333333333333333 [-]
	 SCS Opposite-Spin Scale   =       1.2000000000000000 [-]
	 SCS Same-Spin Energy      =      -0.0823933177154711 [Eh]
	 SCS Opposite-Spin Energy  =      -0.9773705149397269 [Eh]
	 SCS Correlation Energy    =      -1.0597638326551981 [Eh]
	 SCS Total Energy          =    -248.1315988684572460 [Eh]
	-----------------------------------------------------------

  Dipole Moment: [D]
     X:     4.0968      Y:    -0.3740      Z:     0.0000     Total:     4.1139

*** Psi4 exiting successfully. Buy a developer a beer!
