                               Psi4 1.3.2 release

  ==> Input File <==

--------------------------------------------------------------------------
#psi4
#
memory 32 gb

molecule  {
0 1
  O       -1.9552980    -0.1001660     0.0000220
  N        0.3498810    -0.0202960    -0.0000190
  C        0.4347399     1.4271835    -0.0000038
  C        1.5997520    -0.7495290     0.0000330
  C       -0.8580840    -0.6542600    -0.0000640
  H        0.9354200     1.7894750    -0.8904620
  H        0.9353900     1.7894590     0.8904760
  H       -0.6132960     1.8038840    -0.0000200
  H        2.1916710    -0.5051450    -0.8892690
  H        1.3957050    -1.8225400    -0.0000020
  H        2.1915820    -0.5051840     0.8894040
  H       -0.7500460    -1.7544780     0.0000470
units angstrom
no_reorient  #important for SAPT in psi4, default
symmetry c1  #important for SAPT in psi4, default
}

set PROPERTIES_ORIGIN ["COM"]
properties('MP2/aug-cc-pvtz', properties = ['dipole'])
--------------------------------------------------------------------------

    Molecular point group: c1
  Charge       = 0
  Multiplicity = 1
  Basis Set: AUG-CC-PVTZ
    Blend: AUG-CC-PVTZ
  Basis Set: (AUG-CC-PVTZ AUX)
    Blend: AUG-CC-PVTZ-JKFIT

    Orbital Energies [Eh]
    ---------------------

    Doubly Occupied:

       1A    -20.520884     2A    -15.596592     3A    -11.349503
       4A    -11.277756     5A    -11.260540     6A     -1.371757
       7A     -1.254111     8A     -0.985818     9A     -0.950646
      10A     -0.782140    11A     -0.701929    12A     -0.661593
      13A     -0.653311    14A     -0.583415    15A     -0.572135
      16A     -0.568631    17A     -0.532265    18A     -0.529237
      19A     -0.428615    20A     -0.378223

  @DF-RHF Final Energy:  -247.08249373407006

   => Energetics <=

    Nuclear Repulsion Energy =            181.1754727689788922
    One-Electron Energy =                -694.5977327270347814
    Two-Electron Energy =                 266.3397662239858050
    Total Energy =                       -247.0824937340700558
  Basis Set: (AUG-CC-PVTZ AUX)
    Blend: AUG-CC-PVTZ-RI
    Molecular point group: c1

    Geometry (in Angstrom), charge = 0, multiplicity = 1:

       Center              X                  Y                   Z               Mass
    ------------   -----------------  -----------------  -----------------  -----------------
         O           -1.874220947854    -0.089161304500     0.000024141038    15.994914619570
         N            0.430958052146    -0.009291304500    -0.000016858962    14.003074004430
         C            0.515816952146     1.438188195500    -0.000001658962    12.000000000000
         C            1.680829052146    -0.738524304500     0.000035141038    12.000000000000
         C           -0.777006947854    -0.643255304500    -0.000061858962    12.000000000000
         H            1.016497052146     1.800479695500    -0.890459858962     1.007825032230
         H            1.016467052146     1.800463695500     0.890478141038     1.007825032230
         H           -0.532218947854     1.814888695500    -0.000017858962     1.007825032230
         H            2.272748052146    -0.494140304500    -0.889266858962     1.007825032230
         H            1.476782052146    -1.811535304500     0.000000141038     1.007825032230
         H            2.272659052146    -0.494179304500     0.889406141038     1.007825032230
         H           -0.668968947854    -1.743473304500     0.000049141038     1.007825032230

  Basis Set: AUG-CC-PVTZ
    Blend: AUG-CC-PVTZ
  Basis Set: (AUG-CC-PVTZ AUX)
    Blend: AUG-CC-PVTZ-JKFIT
	 Reference Energy          =    -247.0824937340700558 [Eh]
	 Singles Energy            =      -0.0000000000000000 [Eh]
	 Same-Spin Energy          =      -0.2467331985267034 [Eh]
	 Opposite-Spin Energy      =      -0.8134520342228739 [Eh]
	 Correlation Energy        =      -1.0601852327495773 [Eh]
	 Total Energy              =    -248.1426789668196307 [Eh]

	 ================> DF-SCS-MP2 Energies <==================
	-----------------------------------------------------------
	 SCS Same-Spin Scale       =       0.3333333333333333 [-]
	 SCS Opposite-Spin Scale   =       1.2000000000000000 [-]
	 SCS Same-Spin Energy      =      -0.0822443995089011 [Eh]
	 SCS Opposite-Spin Energy  =      -0.9761424410674486 [Eh]
	 SCS Correlation Energy    =      -1.0583868405763497 [Eh]
	 SCS Total Energy          =    -248.1408805746464168 [Eh]
	-----------------------------------------------------------

  Dipole Moment: [D]
     X:     4.1109      Y:    -0.3727      Z:    -0.0000     Total:     4.1278

*** Psi4 exiting successfully. Buy a developer a beer!
