                               Psi4 1.3.2 release

  ==> Input File <==

--------------------------------------------------------------------------
#psi4
#
memory 32 gb

molecule  {
0 1
  O       -1.9552980    -0.1001660     0.0000220
  N        0.3498810    -0.0202960    -0.0000190
  C        0.5605732     1.4142794     0.0000019
  C        1.5997520    -0.7495290     0.0000330
  C       -0.8580840    -0.6542600    -0.0000640
  H        0.9354200     1.7894750    -0.8904620
  H        0.9353900     1.7894590     0.8904760
  H       -0.6132960     1.8038840    -0.0000200
  H        2.1916710    -0.5051450    -0.8892690
  H        1.3957050    -1.8225400    -0.0000020
  H        2.1915820    -0.5051840     0.8894040
  H       -0.7500460    -1.7544780     0.0000470
units angstrom
no_reorient  #important for SAPT in psi4, default
symmetry c1  #important for SAPT in psi4, default
}

set PROPERTIES_ORIGIN ["COM"]
properties('MP2/aug-cc-pvtz', properties = ['dipole'])
--------------------------------------------------------------------------

    Molecular point group: c1
  Charge       = 0
  Multiplicity = 1
  Basis Set: AUG-CC-PVTZ
    Blend: AUG-CC-PVTZ
  Basis Set: (AUG-CC-PVTZ AUX)
    Blend: AUG-CC-PVTZ-JKFIT

    Orbital Energies [Eh]
    ---------------------

    Doubly Occupied:

       1A    -20.522140     2A    -15.597510     3A    -11.352213
       4A    -11.275165     5A    -11.262529     6A     -1.371924
       7A     -1.255343     8A     -0.982553     9A     -0.955310
      10A     -0.786015    11A     -0.698462    12A     -0.673396
      13A     -0.654331    14A     -0.587412    15A     -0.583978
      16A     -0.569739    17A     -0.533378    18A     -0.488026
      19A     -0.429201    20A     -0.381953

  @DF-RHF Final Energy:  -247.05927357461616

   => Energetics <=

    Nuclear Repulsion Energy =            180.9739687717292895
    One-Electron Energy =                -694.1453309624851045
    Two-Electron Energy =                 266.1120886161397152
    Total Energy =                       -247.0592735746161566
  Basis Set: (AUG-CC-PVTZ AUX)
    Blend: AUG-CC-PVTZ-RI
    Molecular point group: c1

    Geometry (in Angstrom), charge = 0, multiplicity = 1:

       Center              X                  Y                   Z               Mass
    ------------   -----------------  -----------------  -----------------  -----------------
         O           -1.894890933772    -0.087041614678     0.000023204728    15.994914619570
         N            0.410288066228    -0.007171614678    -0.000017795272    14.003074004430
         C            0.620980266228     1.427403785322     0.000003104728    12.000000000000
         C            1.660159066228    -0.736404614678     0.000034204728    12.000000000000
         C           -0.797676933772    -0.641135614678    -0.000062795272    12.000000000000
         H            0.995827066228     1.802599385322    -0.890460795272     1.007825032230
         H            0.995797066228     1.802583385322     0.890477204728     1.007825032230
         H           -0.552888933772     1.817008385322    -0.000018795272     1.007825032230
         H            2.252078066228    -0.492020614678    -0.889267795272     1.007825032230
         H            1.456112066228    -1.809415614678    -0.000000795272     1.007825032230
         H            2.251989066228    -0.492059614678     0.889405204728     1.007825032230
         H           -0.689638933772    -1.741353614678     0.000048204728     1.007825032230

  Basis Set: AUG-CC-PVTZ
    Blend: AUG-CC-PVTZ
  Basis Set: (AUG-CC-PVTZ AUX)
    Blend: AUG-CC-PVTZ-JKFIT
	 Reference Energy          =    -247.0592735746161566 [Eh]
	 Singles Energy            =      -0.0000000000000000 [Eh]
	 Same-Spin Energy          =      -0.2476310226845202 [Eh]
	 Opposite-Spin Energy      =      -0.8155351492581991 [Eh]
	 Correlation Energy        =      -1.0631661719427195 [Eh]
	 Total Energy              =    -248.1224397465588822 [Eh]

	 ================> DF-SCS-MP2 Energies <==================
	-----------------------------------------------------------
	 SCS Same-Spin Scale       =       0.3333333333333333 [-]
	 SCS Opposite-Spin Scale   =       1.2000000000000000 [-]
	 SCS Same-Spin Energy      =      -0.0825436742281734 [Eh]
	 SCS Opposite-Spin Energy  =      -0.9786421791098390 [Eh]
	 SCS Correlation Energy    =      -1.0611858533380123 [Eh]
	 SCS Total Energy          =    -248.1204594279541595 [Eh]
	-----------------------------------------------------------

  Dipole Moment: [D]
     X:     4.0838      Y:    -0.3865      Z:     0.0000     Total:     4.1020

*** Psi4 exiting successfully. Buy a developer a beer!
