                               Psi4 1.3.2 release

  ==> Input File <==

--------------------------------------------------------------------------
#psi4
#
memory 32 gb

molecule  {
0 1
  O       -1.9552980    -0.1001660     0.0000220
  N        0.3498810    -0.0202960    -0.0000190
  C        0.2577040     1.4267359    -0.0000120
  C        1.5997520    -0.7495290     0.0000330
  C       -0.8580840    -0.6542600    -0.0000640
  H        0.9354200     1.7894750    -0.8904620
  H        0.9353900     1.7894590     0.8904760
  H       -0.6132960     1.8038840    -0.0000200
  H        2.1916710    -0.5051450    -0.8892690
  H        1.3957050    -1.8225400    -0.0000020
  H        2.1915820    -0.5051840     0.8894040
  H       -0.7500460    -1.7544780     0.0000470
units angstrom
no_reorient  #important for SAPT in psi4, default
symmetry c1  #important for SAPT in psi4, default
}

set PROPERTIES_ORIGIN ["COM"]
properties('MP2/aug-cc-pvtz', properties = ['dipole'])
--------------------------------------------------------------------------

    Molecular point group: c1
  Charge       = 0
  Multiplicity = 1
  Basis Set: AUG-CC-PVTZ
    Blend: AUG-CC-PVTZ
  Basis Set: (AUG-CC-PVTZ AUX)
    Blend: AUG-CC-PVTZ-JKFIT

    Orbital Energies [Eh]
    ---------------------

    Doubly Occupied:

       1A    -20.521017     2A    -15.598952     3A    -11.347392
       4A    -11.283529     5A    -11.266516     6A     -1.373867
       7A     -1.255240     8A     -0.995849     9A     -0.945967
      10A     -0.787987    11A     -0.710342    12A     -0.661828
      13A     -0.653814    14A     -0.584277    15A     -0.579175
      16A     -0.559852    17A     -0.554777    18A     -0.513122
      19A     -0.428846    20A     -0.371874

  @DF-RHF Final Energy:  -247.05287168783588

   => Energetics <=

    Nuclear Repulsion Energy =            181.6380771637116425
    One-Electron Energy =                -695.3934512141007644
    Two-Electron Energy =                 266.7025023625532754
    Total Energy =                       -247.0528716878358750
  Basis Set: (AUG-CC-PVTZ AUX)
    Blend: AUG-CC-PVTZ-RI
    Molecular point group: c1

    Geometry (in Angstrom), charge = 0, multiplicity = 1:

       Center              X                  Y                   Z               Mass
    ------------   -----------------  -----------------  -----------------  -----------------
         O           -1.845140175437    -0.089087779562     0.000025488009    15.994914619570
         N            0.460038824563    -0.009217779562    -0.000015511991    14.003074004430
         C            0.367861824563     1.437814120438    -0.000008511991    12.000000000000
         C            1.709909824563    -0.738450779562     0.000036488009    12.000000000000
         C           -0.747926175437    -0.643181779562    -0.000060511991    12.000000000000
         H            1.045577824563     1.800553220438    -0.890458511991     1.007825032230
         H            1.045547824563     1.800537220438     0.890479488009     1.007825032230
         H           -0.503138175437     1.814962220438    -0.000016511991     1.007825032230
         H            2.301828824563    -0.494066779562    -0.889265511991     1.007825032230
         H            1.505862824563    -1.811461779562     0.000001488009     1.007825032230
         H            2.301739824563    -0.494105779562     0.889407488009     1.007825032230
         H           -0.639888175437    -1.743399779562     0.000050488009     1.007825032230

  Basis Set: AUG-CC-PVTZ
    Blend: AUG-CC-PVTZ
  Basis Set: (AUG-CC-PVTZ AUX)
    Blend: AUG-CC-PVTZ-JKFIT
	 Reference Energy          =    -247.0528716878358750 [Eh]
	 Singles Energy            =      -0.0000000000000000 [Eh]
	 Same-Spin Energy          =      -0.2468225837872160 [Eh]
	 Opposite-Spin Energy      =      -0.8141393899823892 [Eh]
	 Correlation Energy        =      -1.0609619737696052 [Eh]
	 Total Energy              =    -248.1138336616054687 [Eh]

	 ================> DF-SCS-MP2 Energies <==================
	-----------------------------------------------------------
	 SCS Same-Spin Scale       =       0.3333333333333333 [-]
	 SCS Opposite-Spin Scale   =       1.2000000000000000 [-]
	 SCS Same-Spin Energy      =      -0.0822741945957387 [Eh]
	 SCS Opposite-Spin Energy  =      -0.9769672679788670 [Eh]
	 SCS Correlation Energy    =      -1.0592414625746056 [Eh]
	 SCS Total Energy          =    -248.1121131504104937 [Eh]
	-----------------------------------------------------------

  Dipole Moment: [D]
     X:     4.1341      Y:    -0.4734      Z:    -0.0000     Total:     4.1611

*** Psi4 exiting successfully. Buy a developer a beer!
