                               Psi4 1.3.2 release

  ==> Input File <==

--------------------------------------------------------------------------
#psi4
#
memory 32 gb

molecule  {
0 1
  O       -1.9552980    -0.1001660     0.0000220
  N        0.3498810    -0.0202960    -0.0000190
  C        0.3841719     1.4292632    -0.0000062
  C        1.5997520    -0.7495290     0.0000330
  C       -0.8580840    -0.6542600    -0.0000640
  H        0.9354200     1.7894750    -0.8904620
  H        0.9353900     1.7894590     0.8904760
  H       -0.6132960     1.8038840    -0.0000200
  H        2.1916710    -0.5051450    -0.8892690
  H        1.3957050    -1.8225400    -0.0000020
  H        2.1915820    -0.5051840     0.8894040
  H       -0.7500460    -1.7544780     0.0000470
units angstrom
no_reorient  #important for SAPT in psi4, default
symmetry c1  #important for SAPT in psi4, default
}

set PROPERTIES_ORIGIN ["COM"]
properties('MP2/aug-cc-pvtz', properties = ['dipole'])
--------------------------------------------------------------------------

    Molecular point group: c1
  Charge       = 0
  Multiplicity = 1
  Basis Set: AUG-CC-PVTZ
    Blend: AUG-CC-PVTZ
  Basis Set: (AUG-CC-PVTZ AUX)
    Blend: AUG-CC-PVTZ-JKFIT

    Orbital Energies [Eh]
    ---------------------

    Doubly Occupied:

       1A    -20.520677     2A    -15.596797     3A    -11.348674
       4A    -11.279150     5A    -11.261217     6A     -1.372052
       7A     -1.254095     8A     -0.988008     9A     -0.948887
      10A     -0.781872    11A     -0.704232    12A     -0.658319
      13A     -0.654137    14A     -0.582693    15A     -0.567550
      16A     -0.565741    17A     -0.548776    18A     -0.526337
      19A     -0.428484    20A     -0.376587

  @DF-RHF Final Energy:  -247.08277123868947

   => Energetics <=

    Nuclear Repulsion Energy =            181.2817086791958729
    One-Electron Energy =                -694.8003949263132881
    Two-Electron Energy =                 266.4359150084279690
    Total Energy =                       -247.0827712386894746
  Basis Set: (AUG-CC-PVTZ AUX)
    Blend: AUG-CC-PVTZ-RI
    Molecular point group: c1

    Geometry (in Angstrom), charge = 0, multiplicity = 1:

       Center              X                  Y                   Z               Mass
    ------------   -----------------  -----------------  -----------------  -----------------
         O           -1.865914403817    -0.089502926072     0.000024535273    15.994914619570
         N            0.439264596183    -0.009632926072    -0.000016464727    14.003074004430
         C            0.473555496183     1.439926273928    -0.000003664727    12.000000000000
         C            1.689135596183    -0.738865926072     0.000035535273    12.000000000000
         C           -0.768700403817    -0.643596926072    -0.000061464727    12.000000000000
         H            1.024803596183     1.800138073928    -0.890459464727     1.007825032230
         H            1.024773596183     1.800122073928     0.890478535273     1.007825032230
         H           -0.523912403817     1.814547073928    -0.000017464727     1.007825032230
         H            2.281054596183    -0.494481926072    -0.889266464727     1.007825032230
         H            1.485088596183    -1.811876926072     0.000000535273     1.007825032230
         H            2.280965596183    -0.494520926072     0.889406535273     1.007825032230
         H           -0.660662403817    -1.743814926072     0.000049535273     1.007825032230

  Basis Set: AUG-CC-PVTZ
    Blend: AUG-CC-PVTZ
  Basis Set: (AUG-CC-PVTZ AUX)
    Blend: AUG-CC-PVTZ-JKFIT
	 Reference Energy          =    -247.0827712386894746 [Eh]
	 Singles Energy            =      -0.0000000000000000 [Eh]
	 Same-Spin Energy          =      -0.2465927472426215 [Eh]
	 Opposite-Spin Energy      =      -0.8131864045428283 [Eh]
	 Correlation Energy        =      -1.0597791517854498 [Eh]
	 Total Energy              =    -248.1425503904749235 [Eh]

	 ================> DF-SCS-MP2 Energies <==================
	-----------------------------------------------------------
	 SCS Same-Spin Scale       =       0.3333333333333333 [-]
	 SCS Opposite-Spin Scale   =       1.2000000000000000 [-]
	 SCS Same-Spin Energy      =      -0.0821975824142071 [Eh]
	 SCS Opposite-Spin Energy  =      -0.9758236854513940 [Eh]
	 SCS Correlation Energy    =      -1.0580212678656011 [Eh]
	 SCS Total Energy          =    -248.1407925065550728 [Eh]
	-----------------------------------------------------------

  Dipole Moment: [D]
     X:     4.1184      Y:    -0.3856      Z:    -0.0000     Total:     4.1364

*** Psi4 exiting successfully. Buy a developer a beer!
