                               Psi4 1.3.2 release

  ==> Input File <==

--------------------------------------------------------------------------
#psi4
#
memory 32 gb

molecule  {
0 1
  O       -1.9552980    -0.1001660     0.0000220
  N        0.3498810    -0.0202960    -0.0000190
  C        0.3082609     1.4290713    -0.0000097
  C        1.5997520    -0.7495290     0.0000330
  C       -0.8580840    -0.6542600    -0.0000640
  H        0.9354200     1.7894750    -0.8904620
  H        0.9353900     1.7894590     0.8904760
  H       -0.6132960     1.8038840    -0.0000200
  H        2.1916710    -0.5051450    -0.8892690
  H        1.3957050    -1.8225400    -0.0000020
  H        2.1915820    -0.5051840     0.8894040
  H       -0.7500460    -1.7544780     0.0000470
units angstrom
no_reorient  #important for SAPT in psi4, default
symmetry c1  #important for SAPT in psi4, default
}

set PROPERTIES_ORIGIN ["COM"]
properties('MP2/aug-cc-pvtz', properties = ['dipole'])
--------------------------------------------------------------------------

    Molecular point group: c1
  Charge       = 0
  Multiplicity = 1
  Basis Set: AUG-CC-PVTZ
    Blend: AUG-CC-PVTZ
  Basis Set: (AUG-CC-PVTZ AUX)
    Blend: AUG-CC-PVTZ-JKFIT

    Orbital Energies [Eh]
    ---------------------

    Doubly Occupied:

       1A    -20.520724     2A    -15.597797     3A    -11.347758
       4A    -11.281627     5A    -11.263780     6A     -1.372943
       7A     -1.254581     8A     -0.992296     9A     -0.946781
      10A     -0.784103    11A     -0.708047    12A     -0.657686
      13A     -0.655037    14A     -0.581844    15A     -0.570601
      16A     -0.563667    17A     -0.558014    18A     -0.519482
      19A     -0.428562    20A     -0.373891

  @DF-RHF Final Energy:  -247.07063583095965

   => Energetics <=

    Nuclear Repulsion Energy =            181.4782491761936001
    One-Electron Energy =                -695.1393305754729681
    Two-Electron Energy =                 266.5904455683197511
    Total Energy =                       -247.0706358309596453
  Basis Set: (AUG-CC-PVTZ AUX)
    Blend: AUG-CC-PVTZ-RI
    Molecular point group: c1

    Geometry (in Angstrom), charge = 0, multiplicity = 1:

       Center              X                  Y                   Z               Mass
    ------------   -----------------  -----------------  -----------------  -----------------
         O           -1.853444896135    -0.089471403651     0.000025110200    15.994914619570
         N            0.451734103865    -0.009601403651    -0.000015889800    14.003074004430
         C            0.410114003865     1.439765896349    -0.000006589800    12.000000000000
         C            1.701605103865    -0.738834403651     0.000036110200    12.000000000000
         C           -0.756230896135    -0.643565403651    -0.000060889800    12.000000000000
         H            1.037273103865     1.800169596349    -0.890458889800     1.007825032230
         H            1.037243103865     1.800153596349     0.890479110200     1.007825032230
         H           -0.511442896135     1.814578596349    -0.000016889800     1.007825032230
         H            2.293524103865    -0.494450403651    -0.889265889800     1.007825032230
         H            1.497558103865    -1.811845403651     0.000001110200     1.007825032230
         H            2.293435103865    -0.494489403651     0.889407110200     1.007825032230
         H           -0.648192896135    -1.743783403651     0.000050110200     1.007825032230

  Basis Set: AUG-CC-PVTZ
    Blend: AUG-CC-PVTZ
  Basis Set: (AUG-CC-PVTZ AUX)
    Blend: AUG-CC-PVTZ-JKFIT
	 Reference Energy          =    -247.0706358309596453 [Eh]
	 Singles Energy            =      -0.0000000000000000 [Eh]
	 Same-Spin Energy          =      -0.2466283640527553 [Eh]
	 Opposite-Spin Energy      =      -0.8134716275143117 [Eh]
	 Correlation Energy        =      -1.0600999915670670 [Eh]
	 Total Energy              =    -248.1307358225267023 [Eh]

	 ================> DF-SCS-MP2 Energies <==================
	-----------------------------------------------------------
	 SCS Same-Spin Scale       =       0.3333333333333333 [-]
	 SCS Opposite-Spin Scale   =       1.2000000000000000 [-]
	 SCS Same-Spin Energy      =      -0.0822094546842518 [Eh]
	 SCS Opposite-Spin Energy  =      -0.9761659530171740 [Eh]
	 SCS Correlation Energy    =      -1.0583754077014258 [Eh]
	 SCS Total Energy          =    -248.1290112386610645 [Eh]
	-----------------------------------------------------------

  Dipole Moment: [D]
     X:     4.1282      Y:    -0.4283      Z:    -0.0000     Total:     4.1504

*** Psi4 exiting successfully. Buy a developer a beer!
