                               Psi4 1.3.2 release

  ==> Input File <==

--------------------------------------------------------------------------
#psi4
#
memory 32 gb

molecule  {
-1 1
  O       -1.6248440     0.4205080     1.0662040
  O       -1.8285700    -0.2634140    -1.0709070
  O        0.9874640     1.2716570    -0.4175620
  O        2.4715130    -0.3822350     0.1558140
  C        0.0734921    -1.0302736     0.2460973
  C       -1.1683160    -0.2561350    -0.0391410
  C        1.3410260     0.1217830    -0.0505500
  H        0.2143420    -1.2704300     1.2280200
  H        0.2567200    -1.7478830    -0.4879250
  H       -2.4148060     0.8894050     0.7315680
units angstrom
no_reorient  #important for SAPT in psi4, default
symmetry c1  #important for SAPT in psi4, default
}

set PROPERTIES_ORIGIN ["COM"]
properties('MP2/aug-cc-pvtz', properties = ['dipole'])
--------------------------------------------------------------------------

    Molecular point group: c1
  Charge       = -1
  Multiplicity = 1
  Basis Set: AUG-CC-PVTZ
    Blend: AUG-CC-PVTZ
  Basis Set: (AUG-CC-PVTZ AUX)
    Blend: AUG-CC-PVTZ-JKFIT

    Orbital Energies [Eh]
    ---------------------

    Doubly Occupied:

       1A    -20.469590     2A    -20.400416     3A    -20.327009
       4A    -20.325196     5A    -11.243013     6A    -11.184647
       7A    -11.075998     8A     -1.310016     9A     -1.203567
      10A     -1.192399    11A     -1.100504    12A     -0.869478
      13A     -0.667554    14A     -0.560557    15A     -0.542497
      16A     -0.524159    17A     -0.487153    18A     -0.457422
      19A     -0.442248    20A     -0.419405    21A     -0.413327
      22A     -0.367587    23A     -0.337844    24A     -0.310650
      25A     -0.242102    26A     -0.223639    27A     -0.200490

  @DF-RHF Final Energy:  -415.01224359170601

   => Energetics <=

    Nuclear Repulsion Energy =            286.8201965264323121
    One-Electron Energy =               -1149.8679465167194849
    Two-Electron Energy =                 448.0355063985812194
    Total Energy =                       -415.0122435917060102
  Basis Set: (AUG-CC-PVTZ AUX)
    Blend: AUG-CC-PVTZ-RI
    Molecular point group: c1

    Geometry (in Angstrom), charge = -1, multiplicity = 1:

       Center              X                  Y                   Z               Mass
    ------------   -----------------  -----------------  -----------------  -----------------
         O           -1.635372330673     0.414509540799     1.074959137379    15.994914619570
         O           -1.839098330673    -0.269412459201    -1.062151862621    15.994914619570
         O            0.976935669327     1.265658540799    -0.408806862621    15.994914619570
         O            2.460984669327    -0.388233459201     0.164569137379    15.994914619570
         C            0.062963769327    -1.036272059201     0.254852437379    12.000000000000
         C           -1.178844330673    -0.262133459201    -0.030385862621    12.000000000000
         C            1.330497669327     0.115784540799    -0.041794862621    12.000000000000
         H            0.203813669327    -1.276428459201     1.236775137379     1.007825032230
         H            0.246191669327    -1.753881459201    -0.479169862621     1.007825032230
         H           -2.425334330673     0.883406540799     0.740323137379     1.007825032230

  Basis Set: AUG-CC-PVTZ
    Blend: AUG-CC-PVTZ
  Basis Set: (AUG-CC-PVTZ AUX)
    Blend: AUG-CC-PVTZ-JKFIT
	 Reference Energy          =    -415.0122435917060102 [Eh]
	 Singles Energy            =      -0.0000000000000000 [Eh]
	 Same-Spin Energy          =      -0.4027068950555619 [Eh]
	 Opposite-Spin Energy      =      -1.1711153120187177 [Eh]
	 Correlation Energy        =      -1.5738222070742796 [Eh]
	 Total Energy              =    -416.5860657987802824 [Eh]

	 ================> DF-SCS-MP2 Energies <==================
	-----------------------------------------------------------
	 SCS Same-Spin Scale       =       0.3333333333333333 [-]
	 SCS Opposite-Spin Scale   =       1.2000000000000000 [-]
	 SCS Same-Spin Energy      =      -0.1342356316851873 [Eh]
	 SCS Opposite-Spin Energy  =      -1.4053383744224612 [Eh]
	 SCS Correlation Energy    =      -1.5395740061076486 [Eh]
	 SCS Total Energy          =    -416.5518175978136810 [Eh]
	-----------------------------------------------------------

  Dipole Moment: [D]
     X:    -5.2343      Y:    -1.4331      Z:     1.7197     Total:     5.6929

*** Psi4 exiting successfully. Buy a developer a beer!
