                               Psi4 1.3.2 release

  ==> Input File <==

--------------------------------------------------------------------------
#psi4
#
memory 32 gb

molecule  {
-1 1
  O       -1.6248440     0.4205080     1.0662040
  O       -1.8285700    -0.2634140    -1.0709070
  O        0.9874640     1.2716570    -0.4175620
  O        2.4715130    -0.3822350     0.1558140
  C        0.1556017    -0.9784893    -0.0393452
  C       -1.1683160    -0.2561350    -0.0391410
  C        1.3410260     0.1217830    -0.0505500
  H        0.2143420    -1.2704300     1.2280200
  H        0.2567200    -1.7478830    -0.4879250
  H       -2.4148060     0.8894050     0.7315680
units angstrom
no_reorient  #important for SAPT in psi4, default
symmetry c1  #important for SAPT in psi4, default
}

set PROPERTIES_ORIGIN ["COM"]
properties('MP2/aug-cc-pvtz', properties = ['dipole'])
--------------------------------------------------------------------------

    Molecular point group: c1
  Charge       = -1
  Multiplicity = 1
  Basis Set: AUG-CC-PVTZ
    Blend: AUG-CC-PVTZ
  Basis Set: (AUG-CC-PVTZ AUX)
    Blend: AUG-CC-PVTZ-JKFIT

    Orbital Energies [Eh]
    ---------------------

    Doubly Occupied:

       1A    -20.480222     2A    -20.401632     3A    -20.319357
       4A    -20.316410     5A    -11.248464     6A    -11.174489
       7A    -11.092840     8A     -1.315992     9A     -1.209234
      10A     -1.189182    11A     -1.095295    12A     -0.872794
      13A     -0.684119    14A     -0.567441    15A     -0.559465
      16A     -0.541354    17A     -0.489735    18A     -0.461102
      19A     -0.438907    20A     -0.419177    21A     -0.398507
      22A     -0.344107    23A     -0.340859    24A     -0.293386
      25A     -0.234696    26A     -0.217532    27A     -0.214585

  @DF-RHF Final Energy:  -414.95764664220701

   => Energetics <=

    Nuclear Repulsion Energy =            288.0139060069305401
    One-Electron Energy =               -1152.1013435539043712
    Two-Electron Energy =                 449.1297909047668782
    Total Energy =                       -414.9576466422070098
  Basis Set: (AUG-CC-PVTZ AUX)
    Blend: AUG-CC-PVTZ-RI
    Molecular point group: c1

    Geometry (in Angstrom), charge = -1, multiplicity = 1:

       Center              X                  Y                   Z               Mass
    ------------   -----------------  -----------------  -----------------  -----------------
         O           -1.644938206640     0.408476602010     1.108213562571    15.994914619570
         O           -1.848664206640    -0.275445397990    -1.028897437429    15.994914619570
         O            0.967369793360     1.259625602010    -0.375552437429    15.994914619570
         O            2.451418793360    -0.394266397990     0.197823562571    15.994914619570
         C            0.135507493360    -0.990520697990     0.002664362571    12.000000000000
         C           -1.188410206640    -0.268166397990     0.002868562571    12.000000000000
         C            1.320931793360     0.109751602010    -0.008540437429    12.000000000000
         H            0.194247793360    -1.282461397990     1.270029562571     1.007825032230
         H            0.236625793360    -1.759914397990    -0.445915437429     1.007825032230
         H           -2.434900206640     0.877373602010     0.773577562571     1.007825032230

  Basis Set: AUG-CC-PVTZ
    Blend: AUG-CC-PVTZ
  Basis Set: (AUG-CC-PVTZ AUX)
    Blend: AUG-CC-PVTZ-JKFIT
	 Reference Energy          =    -414.9576466422070098 [Eh]
	 Singles Energy            =      -0.0000000000000000 [Eh]
	 Same-Spin Energy          =      -0.4016638341937929 [Eh]
	 Opposite-Spin Energy      =      -1.1717087316695030 [Eh]
	 Correlation Energy        =      -1.5733725658632958 [Eh]
	 Total Energy              =    -416.5310192080702905 [Eh]

	 ================> DF-SCS-MP2 Energies <==================
	-----------------------------------------------------------
	 SCS Same-Spin Scale       =       0.3333333333333333 [-]
	 SCS Opposite-Spin Scale   =       1.2000000000000000 [-]
	 SCS Same-Spin Energy      =      -0.1338879447312643 [Eh]
	 SCS Opposite-Spin Energy  =      -1.4060504780034035 [Eh]
	 SCS Correlation Energy    =      -1.5399384227346680 [Eh]
	 SCS Total Energy          =    -416.4975850649416884 [Eh]
	-----------------------------------------------------------

  Dipole Moment: [D]
     X:    -5.7623      Y:    -1.6112      Z:     1.3998     Total:     6.1449

*** Psi4 exiting successfully. Buy a developer a beer!
