                               Psi4 1.3.2 release

  ==> Input File <==

--------------------------------------------------------------------------
#psi4
#
memory 32 gb

molecule  {
-1 1
  O       -1.6248440     0.4205080     1.0662040
  O       -1.8285700    -0.2634140    -1.0709070
  O        0.9874640     1.2716570    -0.4175620
  O        2.4715130    -0.3822350     0.1558140
  C        0.0265995    -1.1129993     0.2770415
  C       -1.1683160    -0.2561350    -0.0391410
  C        1.3410260     0.1217830    -0.0505500
  H        0.2143420    -1.2704300     1.2280200
  H        0.2567200    -1.7478830    -0.4879250
  H       -2.4148060     0.8894050     0.7315680
units angstrom
no_reorient  #important for SAPT in psi4, default
symmetry c1  #important for SAPT in psi4, default
}

set PROPERTIES_ORIGIN ["COM"]
properties('MP2/aug-cc-pvtz', properties = ['dipole'])
--------------------------------------------------------------------------

    Molecular point group: c1
  Charge       = -1
  Multiplicity = 1
  Basis Set: AUG-CC-PVTZ
    Blend: AUG-CC-PVTZ
  Basis Set: (AUG-CC-PVTZ AUX)
    Blend: AUG-CC-PVTZ-JKFIT

    Orbital Energies [Eh]
    ---------------------

    Doubly Occupied:

       1A    -20.466656     2A    -20.395585     3A    -20.335856
       4A    -20.333637     5A    -11.241344     6A    -11.195221
       7A    -11.071141     8A     -1.306574     9A     -1.200116
      10A     -1.197608    11A     -1.106989    12A     -0.864019
      13A     -0.664947    14A     -0.558384    15A     -0.538527
      16A     -0.526765    17A     -0.485689    18A     -0.467450
      19A     -0.439922    20A     -0.419810    21A     -0.412869
      22A     -0.376992    23A     -0.335688    24A     -0.306422
      25A     -0.247838    26A     -0.230509    27A     -0.188463

  @DF-RHF Final Energy:  -414.98881448091879

   => Energetics <=

    Nuclear Repulsion Energy =            285.6122879745120144
    One-Electron Energy =               -1147.3721592688457349
    Two-Electron Energy =                 446.7710568134149298
    Total Energy =                       -414.9888144809187907
  Basis Set: (AUG-CC-PVTZ AUX)
    Blend: AUG-CC-PVTZ-RI
    Molecular point group: c1

    Geometry (in Angstrom), charge = -1, multiplicity = 1:

       Center              X                  Y                   Z               Mass
    ------------   -----------------  -----------------  -----------------  -----------------
         O           -1.629909281341     0.424147193223     1.071354097541    15.994914619570
         O           -1.833635281341    -0.259774806777    -1.065756902459    15.994914619570
         O            0.982398718659     1.275296193223    -0.412411902459    15.994914619570
         O            2.466447718659    -0.378595806777     0.160964097541    15.994914619570
         C            0.021534218659    -1.109360106777     0.282191597541    12.000000000000
         C           -1.173381281341    -0.252495806777    -0.033990902459    12.000000000000
         C            1.335960718659     0.125422193223    -0.045399902459    12.000000000000
         H            0.209276718659    -1.266790806777     1.233170097541     1.007825032230
         H            0.251654718659    -1.744243806777    -0.482774902459     1.007825032230
         H           -2.419871281341     0.893044193223     0.736718097541     1.007825032230

  Basis Set: AUG-CC-PVTZ
    Blend: AUG-CC-PVTZ
  Basis Set: (AUG-CC-PVTZ AUX)
    Blend: AUG-CC-PVTZ-JKFIT
	 Reference Energy          =    -414.9888144809187907 [Eh]
	 Singles Energy            =      -0.0000000000000000 [Eh]
	 Same-Spin Energy          =      -0.4043969027810305 [Eh]
	 Opposite-Spin Energy      =      -1.1741246579498985 [Eh]
	 Correlation Energy        =      -1.5785215607309291 [Eh]
	 Total Energy              =    -416.5673360416496962 [Eh]

	 ================> DF-SCS-MP2 Energies <==================
	-----------------------------------------------------------
	 SCS Same-Spin Scale       =       0.3333333333333333 [-]
	 SCS Opposite-Spin Scale   =       1.2000000000000000 [-]
	 SCS Same-Spin Energy      =      -0.1347989675936768 [Eh]
	 SCS Opposite-Spin Energy  =      -1.4089495895398783 [Eh]
	 SCS Correlation Energy    =      -1.5437485571335552 [Eh]
	 SCS Total Energy          =    -416.5325630380523307 [Eh]
	-----------------------------------------------------------

  Dipole Moment: [D]
     X:    -4.7672      Y:    -1.1849      Z:     1.6765     Total:     5.1904

*** Psi4 exiting successfully. Buy a developer a beer!
