                               Psi4 1.3.2 release

  ==> Input File <==

--------------------------------------------------------------------------
#psi4
#
memory 32 gb

molecule  {
-1 1
  O       -1.6248440     0.4205080     1.0662040
  O       -1.8285700    -0.2634140    -1.0709070
  O        0.9874640     1.2716570    -0.4175620
  O        2.4715130    -0.3822350     0.1558140
  C        0.1485393    -0.9351067     0.1040705
  C       -1.1683160    -0.2561350    -0.0391410
  C        1.3410260     0.1217830    -0.0505500
  H        0.2143420    -1.2704300     1.2280200
  H        0.2567200    -1.7478830    -0.4879250
  H       -2.4148060     0.8894050     0.7315680
units angstrom
no_reorient  #important for SAPT in psi4, default
symmetry c1  #important for SAPT in psi4, default
}

set PROPERTIES_ORIGIN ["COM"]
properties('MP2/aug-cc-pvtz', properties = ['dipole'])
--------------------------------------------------------------------------

    Molecular point group: c1
  Charge       = -1
  Multiplicity = 1
  Basis Set: AUG-CC-PVTZ
    Blend: AUG-CC-PVTZ
  Basis Set: (AUG-CC-PVTZ AUX)
    Blend: AUG-CC-PVTZ-JKFIT

    Orbital Energies [Eh]
    ---------------------

    Doubly Occupied:

       1A    -20.475905     2A    -20.404599     3A    -20.317308
       4A    -20.315837     5A    -11.245927     6A    -11.170763
       7A    -11.087296     8A     -1.314766     9A     -1.208413
      10A     -1.188306    11A     -1.094128    12A     -0.873835
      13A     -0.675457    14A     -0.563977    15A     -0.558066
      16A     -0.520835    17A     -0.488870    18A     -0.451692
      19A     -0.441022    20A     -0.423869    21A     -0.405864
      22A     -0.351127    23A     -0.340662    24A     -0.308435
      25A     -0.235084    26A     -0.216594    27A     -0.215249

  @DF-RHF Final Energy:  -415.01811119264966

   => Energetics <=

    Nuclear Repulsion Energy =            288.4294023559244238
    One-Electron Energy =               -1153.1072519940832990
    Two-Electron Energy =                 449.6597384455092765
    Total Energy =                       -415.0181111926496555
  Basis Set: (AUG-CC-PVTZ AUX)
    Blend: AUG-CC-PVTZ-RI
    Molecular point group: c1

    Geometry (in Angstrom), charge = -1, multiplicity = 1:

       Center              X                  Y                   Z               Mass
    ------------   -----------------  -----------------  -----------------  -----------------
         O           -1.644115427788     0.403422472277     1.091505445640    15.994914619570
         O           -1.847841427788    -0.280499527723    -1.045605554360    15.994914619570
         O            0.968192572212     1.254571472277    -0.392260554360    15.994914619570
         O            2.452241572212    -0.399320527723     0.181115445640    15.994914619570
         C            0.129267872212    -0.952192227723     0.129371945640    12.000000000000
         C           -1.187587427788    -0.273220527723    -0.013839554360    12.000000000000
         C            1.321754572212     0.104697472277    -0.025248554360    12.000000000000
         H            0.195070572212    -1.287515527723     1.253321445640     1.007825032230
         H            0.237448572212    -1.764968527723    -0.462623554360     1.007825032230
         H           -2.434077427788     0.872319472277     0.756869445640     1.007825032230

  Basis Set: AUG-CC-PVTZ
    Blend: AUG-CC-PVTZ
  Basis Set: (AUG-CC-PVTZ AUX)
    Blend: AUG-CC-PVTZ-JKFIT
	 Reference Energy          =    -415.0181111926496555 [Eh]
	 Singles Energy            =      -0.0000000000000000 [Eh]
	 Same-Spin Energy          =      -0.4011942223544099 [Eh]
	 Opposite-Spin Energy      =      -1.1693246140170768 [Eh]
	 Correlation Energy        =      -1.5705188363714866 [Eh]
	 Total Energy              =    -416.5886300290211466 [Eh]

	 ================> DF-SCS-MP2 Energies <==================
	-----------------------------------------------------------
	 SCS Same-Spin Scale       =       0.3333333333333333 [-]
	 SCS Opposite-Spin Scale   =       1.2000000000000000 [-]
	 SCS Same-Spin Energy      =      -0.1337314074514700 [Eh]
	 SCS Opposite-Spin Energy  =      -1.4031895368204921 [Eh]
	 SCS Correlation Energy    =      -1.5369209442719620 [Eh]
	 SCS Total Energy          =    -416.5550321369216249 [Eh]
	-----------------------------------------------------------

  Dipole Moment: [D]
     X:    -5.7850      Y:    -1.6649      Z:     1.6085     Total:     6.2310

*** Psi4 exiting successfully. Buy a developer a beer!
