                               Psi4 1.3.2 release

  ==> Input File <==

--------------------------------------------------------------------------
#psi4
#
memory 32 gb

molecule  {
-1 1
  O       -1.6248440     0.4205080     1.0662040
  O       -1.8285700    -0.2634140    -1.0709070
  O        0.9874640     1.2716570    -0.4175620
  O        2.4715130    -0.3822350     0.1558140
  C        0.0031532    -1.1543621     0.2925136
  C       -1.1683160    -0.2561350    -0.0391410
  C        1.3410260     0.1217830    -0.0505500
  H        0.2143420    -1.2704300     1.2280200
  H        0.2567200    -1.7478830    -0.4879250
  H       -2.4148060     0.8894050     0.7315680
units angstrom
no_reorient  #important for SAPT in psi4, default
symmetry c1  #important for SAPT in psi4, default
}

set PROPERTIES_ORIGIN ["COM"]
properties('MP2/aug-cc-pvtz', properties = ['dipole'])
--------------------------------------------------------------------------

    Molecular point group: c1
  Charge       = -1
  Multiplicity = 1
  Basis Set: AUG-CC-PVTZ
    Blend: AUG-CC-PVTZ
  Basis Set: (AUG-CC-PVTZ AUX)
    Blend: AUG-CC-PVTZ-JKFIT

    Orbital Energies [Eh]
    ---------------------

    Doubly Occupied:

       1A    -20.465081     2A    -20.393123     3A    -20.340993
       4A    -20.338625     5A    -11.240531     6A    -11.200971
       7A    -11.069259     8A     -1.304740     9A     -1.201675
      10A     -1.197657    11A     -1.110939    12A     -0.860812
      13A     -0.663490    14A     -0.557303    15A     -0.537903
      16A     -0.528152    17A     -0.484983    18A     -0.470640
      19A     -0.439422    20A     -0.420834    21A     -0.411781
      22A     -0.381803    23A     -0.334543    24A     -0.303912
      25A     -0.251134    26A     -0.234614    27A     -0.182292

  @DF-RHF Final Energy:  -414.97491158831252

   => Energetics <=

    Nuclear Repulsion Energy =            284.9906219318614831
    One-Electron Energy =               -1146.0766393115179653
    Two-Electron Energy =                 446.1111057913439595
    Total Energy =                       -414.9749115883125228
  Basis Set: (AUG-CC-PVTZ AUX)
    Blend: AUG-CC-PVTZ-RI
    Molecular point group: c1

    Geometry (in Angstrom), charge = -1, multiplicity = 1:

       Center              X                  Y                   Z               Mass
    ------------   -----------------  -----------------  -----------------  -----------------
         O           -1.627177756676     0.428966013610     1.069551577621    15.994914619570
         O           -1.830903756676    -0.254955986390    -1.067559422379    15.994914619570
         O            0.985130243324     1.280115013610    -0.414214422379    15.994914619570
         O            2.469179243324    -0.373776986390     0.159161577621    15.994914619570
         C            0.000819443324    -1.145904086390     0.295861177621    12.000000000000
         C           -1.170649756676    -0.247676986390    -0.035793422379    12.000000000000
         C            1.338692243324     0.130241013610    -0.047202422379    12.000000000000
         H            0.212008243324    -1.261971986390     1.231367577621     1.007825032230
         H            0.254386243324    -1.739424986390    -0.484577422379     1.007825032230
         H           -2.417139756676     0.897863013610     0.734915577621     1.007825032230

  Basis Set: AUG-CC-PVTZ
    Blend: AUG-CC-PVTZ
  Basis Set: (AUG-CC-PVTZ AUX)
    Blend: AUG-CC-PVTZ-JKFIT
	 Reference Energy          =    -414.9749115883125228 [Eh]
	 Singles Energy            =      -0.0000000000000000 [Eh]
	 Same-Spin Energy          =      -0.4054114105668036 [Eh]
	 Opposite-Spin Energy      =      -1.1760731687061259 [Eh]
	 Correlation Energy        =      -1.5814845792729295 [Eh]
	 Total Energy              =    -416.5563961675854330 [Eh]

	 ================> DF-SCS-MP2 Energies <==================
	-----------------------------------------------------------
	 SCS Same-Spin Scale       =       0.3333333333333333 [-]
	 SCS Opposite-Spin Scale   =       1.2000000000000000 [-]
	 SCS Same-Spin Energy      =      -0.1351371368556012 [Eh]
	 SCS Opposite-Spin Energy  =      -1.4112878024473510 [Eh]
	 SCS Correlation Energy    =      -1.5464249393029521 [Eh]
	 SCS Total Energy          =    -416.5213365276154605 [Eh]
	-----------------------------------------------------------

  Dipole Moment: [D]
     X:    -4.5118      Y:    -1.0298      Z:     1.6433     Total:     4.9109

*** Psi4 exiting successfully. Buy a developer a beer!
