                               Psi4 1.3.2 release

  ==> Input File <==

--------------------------------------------------------------------------
#psi4
#
memory 32 gb

molecule  {
-1 1
  O       -1.6248440     0.4205080     1.0662040
  O       -1.8285700    -0.2634140    -1.0709070
  O        0.9874640     1.2716570    -0.4175620
  O        2.4715130    -0.3822350     0.1558140
  C        0.1461851    -0.9206459     0.1518758
  C       -1.1683160    -0.2561350    -0.0391410
  C        1.3410260     0.1217830    -0.0505500
  H        0.2143420    -1.2704300     1.2280200
  H        0.2567200    -1.7478830    -0.4879250
  H       -2.4148060     0.8894050     0.7315680
units angstrom
no_reorient  #important for SAPT in psi4, default
symmetry c1  #important for SAPT in psi4, default
}

set PROPERTIES_ORIGIN ["COM"]
properties('MP2/aug-cc-pvtz', properties = ['dipole'])
--------------------------------------------------------------------------

    Molecular point group: c1
  Charge       = -1
  Multiplicity = 1
  Basis Set: AUG-CC-PVTZ
    Blend: AUG-CC-PVTZ
  Basis Set: (AUG-CC-PVTZ AUX)
    Blend: AUG-CC-PVTZ-JKFIT

    Orbital Energies [Eh]
    ---------------------

    Doubly Occupied:

       1A    -20.474576     2A    -20.405793     3A    -20.317058
       4A    -20.315827     5A    -11.245835     6A    -11.170342
       7A    -11.086544     8A     -1.314561     9A     -1.208378
      10A     -1.188247    11A     -1.094018    12A     -0.874625
      13A     -0.673690    14A     -0.563686    15A     -0.557295
      16A     -0.518927    17A     -0.488751    18A     -0.446953
      19A     -0.441178    20A     -0.426521    21A     -0.406661
      22A     -0.352401    23A     -0.340361    24A     -0.311803
      25A     -0.235206    26A     -0.216445    27A     -0.215501

  @DF-RHF Final Energy:  -415.02620111142556

   => Energetics <=

    Nuclear Repulsion Energy =            288.5173812463972354
    One-Electron Energy =               -1153.3047977721248571
    Two-Electron Energy =                 449.7612154143020575
    Total Energy =                       -415.0262011114255642
  Basis Set: (AUG-CC-PVTZ AUX)
    Blend: AUG-CC-PVTZ-RI
    Molecular point group: c1

    Geometry (in Angstrom), charge = -1, multiplicity = 1:

       Center              X                  Y                   Z               Mass
    ------------   -----------------  -----------------  -----------------  -----------------
         O           -1.643841160403     0.401737770132     1.085936065563    15.994914619570
         O           -1.847567160403    -0.282184229868    -1.051174934437    15.994914619570
         O            0.968466839597     1.252886770132    -0.397829934437    15.994914619570
         O            2.452515839597    -0.401005229868     0.175546065563    15.994914619570
         C            0.127187939597    -0.939416129868     0.171607865563    12.000000000000
         C           -1.187313160403    -0.274905229868    -0.019408934437    12.000000000000
         C            1.322028839597     0.103012770132    -0.030817934437    12.000000000000
         H            0.195344839597    -1.289200229868     1.247752065563     1.007825032230
         H            0.237722839597    -1.766653229868    -0.468192934437     1.007825032230
         H           -2.433803160403     0.870634770132     0.751300065563     1.007825032230

  Basis Set: AUG-CC-PVTZ
    Blend: AUG-CC-PVTZ
  Basis Set: (AUG-CC-PVTZ AUX)
    Blend: AUG-CC-PVTZ-JKFIT
	 Reference Energy          =    -415.0262011114255642 [Eh]
	 Singles Energy            =      -0.0000000000000000 [Eh]
	 Same-Spin Energy          =      -0.4012058633551565 [Eh]
	 Opposite-Spin Energy      =      -1.1691007054442748 [Eh]
	 Correlation Energy        =      -1.5703065687994313 [Eh]
	 Total Energy              =    -416.5965076802249882 [Eh]

	 ================> DF-SCS-MP2 Energies <==================
	-----------------------------------------------------------
	 SCS Same-Spin Scale       =       0.3333333333333333 [-]
	 SCS Opposite-Spin Scale   =       1.2000000000000000 [-]
	 SCS Same-Spin Energy      =      -0.1337352877850522 [Eh]
	 SCS Opposite-Spin Energy  =      -1.4029208465331298 [Eh]
	 SCS Correlation Energy    =      -1.5366561343181819 [Eh]
	 SCS Total Energy          =    -416.5628572457437713 [Eh]
	-----------------------------------------------------------

  Dipole Moment: [D]
     X:    -5.7896      Y:    -1.6634      Z:     1.6716     Total:     6.2515

*** Psi4 exiting successfully. Buy a developer a beer!
