                               Psi4 1.3.2 release

  ==> Input File <==

--------------------------------------------------------------------------
#psi4
#
memory 32 gb

molecule  {
-1 1
  O       -1.6248440     0.4205080     1.0662040
  O       -1.8285700    -0.2634140    -1.0709070
  O        0.9874640     1.2716570    -0.4175620
  O        2.4715130    -0.3822350     0.1558140
  C        0.1203847    -0.9475479     0.2151531
  C       -1.1683160    -0.2561350    -0.0391410
  C        1.3410260     0.1217830    -0.0505500
  H        0.2143420    -1.2704300     1.2280200
  H        0.2567200    -1.7478830    -0.4879250
  H       -2.4148060     0.8894050     0.7315680
units angstrom
no_reorient  #important for SAPT in psi4, default
symmetry c1  #important for SAPT in psi4, default
}

set PROPERTIES_ORIGIN ["COM"]
properties('MP2/aug-cc-pvtz', properties = ['dipole'])
--------------------------------------------------------------------------

    Molecular point group: c1
  Charge       = -1
  Multiplicity = 1
  Basis Set: AUG-CC-PVTZ
    Blend: AUG-CC-PVTZ
  Basis Set: (AUG-CC-PVTZ AUX)
    Blend: AUG-CC-PVTZ-JKFIT

    Orbital Energies [Eh]
    ---------------------

    Doubly Occupied:

       1A    -20.472174     2A    -20.404958     3A    -20.319934
       4A    -20.318597     5A    -11.244972     6A    -11.174965
       7A    -11.082483     8A     -1.313086     9A     -1.206927
      10A     -1.189124    11A     -1.095785    12A     -0.873758
      13A     -0.670482    14A     -0.562773    15A     -0.550515
      16A     -0.521793    17A     -0.488253    18A     -0.447135
      19A     -0.442594    20A     -0.424728    21A     -0.408704
      22A     -0.357773    23A     -0.339590    24A     -0.313632
      25A     -0.237395    26A     -0.218412    27A     -0.211177

  @DF-RHF Final Energy:  -415.02631230298567

   => Energetics <=

    Nuclear Repulsion Energy =            287.9963313881069098
    One-Electron Energy =               -1152.2618495837400587
    Two-Electron Energy =                 449.2392058926474760
    Total Energy =                       -415.0263123029856729
  Basis Set: (AUG-CC-PVTZ AUX)
    Blend: AUG-CC-PVTZ-RI
    Molecular point group: c1

    Geometry (in Angstrom), charge = -1, multiplicity = 1:

       Center              X                  Y                   Z               Mass
    ------------   -----------------  -----------------  -----------------  -----------------
         O           -1.640835380004     0.404871888375     1.078564177217    15.994914619570
         O           -1.844561380004    -0.279050111625    -1.058546822783    15.994914619570
         O            0.971472619996     1.256020888375    -0.405201822783    15.994914619570
         O            2.455521619996    -0.397871111625     0.168174177217    15.994914619570
         C            0.104393319996    -0.963184011625     0.227513277217    12.000000000000
         C           -1.184307380004    -0.271771111625    -0.026780822783    12.000000000000
         C            1.325034619996     0.106146888375    -0.038189822783    12.000000000000
         H            0.198350619996    -1.286066111625     1.240380177217     1.007825032230
         H            0.240728619996    -1.763519111625    -0.475564822783     1.007825032230
         H           -2.430797380004     0.873768888375     0.743928177217     1.007825032230

  Basis Set: AUG-CC-PVTZ
    Blend: AUG-CC-PVTZ
  Basis Set: (AUG-CC-PVTZ AUX)
    Blend: AUG-CC-PVTZ-JKFIT
	 Reference Energy          =    -415.0263123029856729 [Eh]
	 Singles Energy            =      -0.0000000000000000 [Eh]
	 Same-Spin Energy          =      -0.4015952274732355 [Eh]
	 Opposite-Spin Energy      =      -1.1694481907623087 [Eh]
	 Correlation Energy        =      -1.5710434182355442 [Eh]
	 Total Energy              =    -416.5973557212212199 [Eh]

	 ================> DF-SCS-MP2 Energies <==================
	-----------------------------------------------------------
	 SCS Same-Spin Scale       =       0.3333333333333333 [-]
	 SCS Opposite-Spin Scale   =       1.2000000000000000 [-]
	 SCS Same-Spin Energy      =      -0.1338650758244118 [Eh]
	 SCS Opposite-Spin Energy  =      -1.4033378289147704 [Eh]
	 SCS Correlation Energy    =      -1.5372029047391822 [Eh]
	 SCS Total Energy          =    -416.5635152077248335 [Eh]
	-----------------------------------------------------------

  Dipole Moment: [D]
     X:    -5.6271      Y:    -1.5985      Z:     1.7339     Total:     6.1013

*** Psi4 exiting successfully. Buy a developer a beer!
