                               Psi4 1.3.2 release

  ==> Input File <==

--------------------------------------------------------------------------
#psi4
#
memory 32 gb

molecule  {
-1 1
  O       -1.6248440     0.4205080     1.0662040
  O       -1.8285700    -0.2634140    -1.0709070
  O        0.9874640     1.2716570    -0.4175620
  O        2.4715130    -0.3822350     0.1558140
  C        0.1579559    -0.9929502    -0.0871505
  C       -1.1683160    -0.2561350    -0.0391410
  C        1.3410260     0.1217830    -0.0505500
  H        0.2143420    -1.2704300     1.2280200
  H        0.2567200    -1.7478830    -0.4879250
  H       -2.4148060     0.8894050     0.7315680
units angstrom
no_reorient  #important for SAPT in psi4, default
symmetry c1  #important for SAPT in psi4, default
}

set PROPERTIES_ORIGIN ["COM"]
properties('MP2/aug-cc-pvtz', properties = ['dipole'])
--------------------------------------------------------------------------

    Molecular point group: c1
  Charge       = -1
  Multiplicity = 1
  Basis Set: AUG-CC-PVTZ
    Blend: AUG-CC-PVTZ
  Basis Set: (AUG-CC-PVTZ AUX)
    Blend: AUG-CC-PVTZ-JKFIT

    Orbital Energies [Eh]
    ---------------------

    Doubly Occupied:

       1A    -20.481705     2A    -20.400844     3A    -20.320476
       4A    -20.316809     5A    -11.249994     6A    -11.176541
       7A    -11.095845     8A     -1.316555     9A     -1.209697
      10A     -1.189721    11A     -1.095970    12A     -0.873240
      13A     -0.688021    14A     -0.570484    15A     -0.560561
      16A     -0.547591    17A     -0.490202    18A     -0.461968
      19A     -0.438248    20A     -0.418945    21A     -0.396241
      22A     -0.342936    23A     -0.339326    24A     -0.286742
      25A     -0.234393    26A     -0.217984    27A     -0.214407

  @DF-RHF Final Energy:  -414.92463242741599

   => Energetics <=

    Nuclear Repulsion Energy =            287.8269504578769329
    One-Electron Energy =               -1151.6322768464431192
    Two-Electron Energy =                 448.8806939611502003
    Total Energy =                       -414.9246324274159861
  Basis Set: (AUG-CC-PVTZ AUX)
    Blend: AUG-CC-PVTZ-RI
    Molecular point group: c1

    Geometry (in Angstrom), charge = -1, multiplicity = 1:

       Center              X                  Y                   Z               Mass
    ------------   -----------------  -----------------  -----------------  -----------------
         O           -1.645212474024     0.410161315804     1.113782942648    15.994914619570
         O           -1.848938474024    -0.273760684196    -1.023328057352    15.994914619570
         O            0.967095525976     1.261310315804    -0.369983057352    15.994914619570
         O            2.451144525976    -0.392581684196     0.203392942648    15.994914619570
         C            0.137587425976    -1.003296884196    -0.039571557352    12.000000000000
         C           -1.188684474024    -0.266481684196     0.008437942648    12.000000000000
         C            1.320657525976     0.111436315804    -0.002971057352    12.000000000000
         H            0.193973525976    -1.280776684196     1.275598942648     1.007825032230
         H            0.236351525976    -1.758229684196    -0.440346057352     1.007825032230
         H           -2.435174474024     0.879058315804     0.779146942648     1.007825032230

  Basis Set: AUG-CC-PVTZ
    Blend: AUG-CC-PVTZ
  Basis Set: (AUG-CC-PVTZ AUX)
    Blend: AUG-CC-PVTZ-JKFIT
	 Reference Energy          =    -414.9246324274159861 [Eh]
	 Singles Energy            =      -0.0000000000000000 [Eh]
	 Same-Spin Energy          =      -0.4019971919275003 [Eh]
	 Opposite-Spin Energy      =      -1.1730853013536668 [Eh]
	 Correlation Energy        =      -1.5750824932811671 [Eh]
	 Total Energy              =    -416.4997149206971585 [Eh]

	 ================> DF-SCS-MP2 Energies <==================
	-----------------------------------------------------------
	 SCS Same-Spin Scale       =       0.3333333333333333 [-]
	 SCS Opposite-Spin Scale   =       1.2000000000000000 [-]
	 SCS Same-Spin Energy      =      -0.1339990639758334 [Eh]
	 SCS Opposite-Spin Energy  =      -1.4077023616244002 [Eh]
	 SCS Correlation Energy    =      -1.5417014256002337 [Eh]
	 SCS Total Energy          =    -416.4663338530162378 [Eh]
	-----------------------------------------------------------

  Dipole Moment: [D]
     X:    -5.7505      Y:    -1.5769      Z:     1.3263     Total:     6.1085

*** Psi4 exiting successfully. Buy a developer a beer!
