                               Psi4 1.3.2 release

  ==> Input File <==

--------------------------------------------------------------------------
#psi4
#
memory 32 gb

molecule  {
-1 1
  O       -1.6248440     0.4205080     1.0662040
  O       -1.8285700    -0.2634140    -1.0709070
  O        0.9874640     1.2716570    -0.4175620
  O        2.4715130    -0.3822350     0.1558140
  C        0.0500458    -1.0716364     0.2615694
  C       -1.1683160    -0.2561350    -0.0391410
  C        1.3410260     0.1217830    -0.0505500
  H        0.2143420    -1.2704300     1.2280200
  H        0.2567200    -1.7478830    -0.4879250
  H       -2.4148060     0.8894050     0.7315680
units angstrom
no_reorient  #important for SAPT in psi4, default
symmetry c1  #important for SAPT in psi4, default
}

set PROPERTIES_ORIGIN ["COM"]
properties('MP2/aug-cc-pvtz', properties = ['dipole'])
--------------------------------------------------------------------------

    Molecular point group: c1
  Charge       = -1
  Multiplicity = 1
  Basis Set: AUG-CC-PVTZ
    Blend: AUG-CC-PVTZ
  Basis Set: (AUG-CC-PVTZ AUX)
    Blend: AUG-CC-PVTZ-JKFIT

    Orbital Energies [Eh]
    ---------------------

    Doubly Occupied:

       1A    -20.468164     2A    -20.398026     3A    -20.331201
       4A    -20.329170     5A    -11.242159     6A    -11.189796
       7A    -11.073373     8A     -1.308338     9A     -1.201786
      10A     -1.194822    11A     -1.103517    12A     -0.866903
      13A     -0.666275    14A     -0.559461    15A     -0.540056
      16A     -0.525392    17A     -0.486449    18A     -0.462920
      19A     -0.441033    20A     -0.418640    21A     -0.413963
      22A     -0.372288    23A     -0.336793    24A     -0.308677
      25A     -0.244831    26A     -0.226857    27A     -0.194581

  @DF-RHF Final Energy:  -415.00143833536964

   => Energetics <=

    Nuclear Repulsion Energy =            286.2214441780141669
    One-Electron Energy =               -1148.6348244987593716
    Two-Electron Energy =                 447.4119419853755630
    Total Energy =                       -415.0014383353696417
  Basis Set: (AUG-CC-PVTZ AUX)
    Blend: AUG-CC-PVTZ-RI
    Molecular point group: c1

    Geometry (in Angstrom), charge = -1, multiplicity = 1:

       Center              X                  Y                   Z               Mass
    ------------   -----------------  -----------------  -----------------  -----------------
         O           -1.632640806007     0.419328361186     1.073156617460    15.994914619570
         O           -1.836366806007    -0.264593638814    -1.063954382540    15.994914619570
         O            0.979667193993     1.270477361186    -0.410609382540    15.994914619570
         O            2.463716193993    -0.383414638814     0.162766617460    15.994914619570
         C            0.042248993993    -1.072816038814     0.268522017460    12.000000000000
         C           -1.176112806007    -0.257314638814    -0.032188382540    12.000000000000
         C            1.333229193993     0.120603361186    -0.043597382540    12.000000000000
         H            0.206545193993    -1.271609638814     1.234972617460     1.007825032230
         H            0.248923193993    -1.749062638814    -0.480972382540     1.007825032230
         H           -2.422602806007     0.888225361186     0.738520617460     1.007825032230

  Basis Set: AUG-CC-PVTZ
    Blend: AUG-CC-PVTZ
  Basis Set: (AUG-CC-PVTZ AUX)
    Blend: AUG-CC-PVTZ-JKFIT
	 Reference Energy          =    -415.0014383353696417 [Eh]
	 Singles Energy            =      -0.0000000000000000 [Eh]
	 Same-Spin Energy          =      -0.4034885851744452 [Eh]
	 Opposite-Spin Energy      =      -1.1724620641150647 [Eh]
	 Correlation Energy        =      -1.5759506492895099 [Eh]
	 Total Energy              =    -416.5773889846591373 [Eh]

	 ================> DF-SCS-MP2 Energies <==================
	-----------------------------------------------------------
	 SCS Same-Spin Scale       =       0.3333333333333333 [-]
	 SCS Opposite-Spin Scale   =       1.2000000000000000 [-]
	 SCS Same-Spin Energy      =      -0.1344961950581484 [Eh]
	 SCS Opposite-Spin Energy  =      -1.4069544769380775 [Eh]
	 SCS Correlation Energy    =      -1.5414506719962260 [Eh]
	 SCS Total Energy          =    -416.5428890073658863 [Eh]
	-----------------------------------------------------------

  Dipole Moment: [D]
     X:    -5.0091      Y:    -1.3195      Z:     1.7020     Total:     5.4524

*** Psi4 exiting successfully. Buy a developer a beer!
