                               Psi4 1.3.2 release

  ==> Input File <==

--------------------------------------------------------------------------
#psi4
#
memory 32 gb

molecule  {
-1 1
  O       -1.6248440     0.4205080     1.0662040
  O       -1.8285700    -0.2634140    -1.0709070
  O        0.9874640     1.2716570    -0.4175620
  O        2.4715130    -0.3822350     0.1558140
  C        0.1532476    -0.9640285     0.0084600
  C       -1.1683160    -0.2561350    -0.0391410
  C        1.3410260     0.1217830    -0.0505500
  H        0.2143420    -1.2704300     1.2280200
  H        0.2567200    -1.7478830    -0.4879250
  H       -2.4148060     0.8894050     0.7315680
units angstrom
no_reorient  #important for SAPT in psi4, default
symmetry c1  #important for SAPT in psi4, default
}

set PROPERTIES_ORIGIN ["COM"]
properties('MP2/aug-cc-pvtz', properties = ['dipole'])
--------------------------------------------------------------------------

    Molecular point group: c1
  Charge       = -1
  Multiplicity = 1
  Basis Set: AUG-CC-PVTZ
    Blend: AUG-CC-PVTZ
  Basis Set: (AUG-CC-PVTZ AUX)
    Blend: AUG-CC-PVTZ-JKFIT

    Orbital Energies [Eh]
    ---------------------

    Doubly Occupied:

       1A    -20.478746     2A    -20.402518     3A    -20.318456
       4A    -20.316121     5A    -11.247258     6A    -11.172838
       7A    -11.090426     8A     -1.315495     9A     -1.208855
      10A     -1.188770    11A     -1.094764    12A     -0.872822
      13A     -0.680684    14A     -0.565759    15A     -0.558886
      16A     -0.533421    17A     -0.489356    18A     -0.459370
      19A     -0.439549    20A     -0.419917    21A     -0.401203
      22A     -0.346571    23A     -0.341051    24A     -0.299285
      25A     -0.234866    26A     -0.217141    27A     -0.214788

  @DF-RHF Final Energy:  -414.98407103843476

   => Energetics <=

    Nuclear Repulsion Energy =            288.1770488277111326
    One-Electron Energy =               -1152.5044126016111932
    Two-Electron Energy =                 449.3432927354652975
    Total Energy =                       -414.9840710384347631
  Basis Set: (AUG-CC-PVTZ AUX)
    Blend: AUG-CC-PVTZ-RI
    Molecular point group: c1

    Geometry (in Angstrom), charge = -1, multiplicity = 1:

       Center              X                  Y                   Z               Mass
    ------------   -----------------  -----------------  -----------------  -----------------
         O           -1.644663950906     0.406791899865     1.102644194144    15.994914619570
         O           -1.848389950906    -0.277130100135    -1.034466805856    15.994914619570
         O            0.967644049094     1.257940899865    -0.381121805856    15.994914619570
         O            2.451693049094    -0.395951100135     0.192254194144    15.994914619570
         C            0.133427649094    -0.977744600135     0.044900194144    12.000000000000
         C           -1.188135950906    -0.269851100135    -0.002700805856    12.000000000000
         C            1.321206049094     0.108066899865    -0.014109805856    12.000000000000
         H            0.194522049094    -1.284146100135     1.264460194144     1.007825032230
         H            0.236900049094    -1.761599100135    -0.451484805856     1.007825032230
         H           -2.434625950906     0.875688899865     0.768008194144     1.007825032230

  Basis Set: AUG-CC-PVTZ
    Blend: AUG-CC-PVTZ
  Basis Set: (AUG-CC-PVTZ AUX)
    Blend: AUG-CC-PVTZ-JKFIT
	 Reference Energy          =    -414.9840710384347631 [Eh]
	 Singles Energy            =      -0.0000000000000000 [Eh]
	 Same-Spin Energy          =      -0.4014209668387831 [Eh]
	 Opposite-Spin Energy      =      -1.1706246823597564 [Eh]
	 Correlation Energy        =      -1.5720456491985395 [Eh]
	 Total Energy              =    -416.5561166876332777 [Eh]

	 ================> DF-SCS-MP2 Energies <==================
	-----------------------------------------------------------
	 SCS Same-Spin Scale       =       0.3333333333333333 [-]
	 SCS Opposite-Spin Scale   =       1.2000000000000000 [-]
	 SCS Same-Spin Energy      =      -0.1338069889462610 [Eh]
	 SCS Opposite-Spin Energy  =      -1.4047496188317077 [Eh]
	 SCS Correlation Energy    =      -1.5385566077779687 [Eh]
	 SCS Total Energy          =    -416.5226276462127544 [Eh]
	-----------------------------------------------------------

  Dipole Moment: [D]
     X:    -5.7717      Y:    -1.6380      Z:     1.4720     Total:     6.1776

*** Psi4 exiting successfully. Buy a developer a beer!
