                               Psi4 1.3.2 release

  ==> Input File <==

--------------------------------------------------------------------------
#psi4
#
memory 32 gb

molecule  {
-1 1
  O       -1.6248440     0.4205080     1.0662040
  O       -1.8285700    -0.2634140    -1.0709070
  O        0.9874640     1.2716570    -0.4175620
  O        2.4715130    -0.3822350     0.1558140
  C        0.0969384    -0.9889107     0.2306252
  C       -1.1683160    -0.2561350    -0.0391410
  C        1.3410260     0.1217830    -0.0505500
  H        0.2143420    -1.2704300     1.2280200
  H        0.2567200    -1.7478830    -0.4879250
  H       -2.4148060     0.8894050     0.7315680
units angstrom
no_reorient  #important for SAPT in psi4, default
symmetry c1  #important for SAPT in psi4, default
}

set PROPERTIES_ORIGIN ["COM"]
properties('MP2/aug-cc-pvtz', properties = ['dipole'])
--------------------------------------------------------------------------

    Molecular point group: c1
  Charge       = -1
  Multiplicity = 1
  Basis Set: AUG-CC-PVTZ
    Blend: AUG-CC-PVTZ
  Basis Set: (AUG-CC-PVTZ AUX)
    Blend: AUG-CC-PVTZ-JKFIT

    Orbital Energies [Eh]
    ---------------------

    Doubly Occupied:

       1A    -20.470928     2A    -20.402732     3A    -20.323260
       4A    -20.321684     5A    -11.243940     6A    -11.179720
       7A    -11.079035     8A     -1.311600     9A     -1.205288
      10A     -1.190495    11A     -1.097934    12A     -0.871757
      13A     -0.668904    14A     -0.561666    15A     -0.545962
      16A     -0.523000    17A     -0.487750    18A     -0.451541
      19A     -0.443233    20A     -0.421856    21A     -0.411218
      22A     -0.362773    23A     -0.338807    24A     -0.312315
      25A     -0.239632    26A     -0.220831    27A     -0.206057

  @DF-RHF Final Energy:  -415.02070369089006

   => Energetics <=

    Nuclear Repulsion Energy =            287.4109445363547479
    One-Electron Energy =               -1151.0754688800118402
    Two-Electron Energy =                 448.6438206527670900
    Total Energy =                       -415.0207036908900591
  Basis Set: (AUG-CC-PVTZ AUX)
    Blend: AUG-CC-PVTZ-RI
    Molecular point group: c1

    Geometry (in Angstrom), charge = -1, multiplicity = 1:

       Center              X                  Y                   Z               Mass
    ------------   -----------------  -----------------  -----------------  -----------------
         O           -1.638103855338     0.409690708762     1.076761657298    15.994914619570
         O           -1.841829855338    -0.274231291238    -1.060349342702    15.994914619570
         O            0.974204144662     1.260839708762    -0.407004342702    15.994914619570
         O            2.458253144662    -0.393052291238     0.166371657298    15.994914619570
         C            0.083678544662    -0.999727991238     0.241182857298    12.000000000000
         C           -1.181575855338    -0.266952291238    -0.028583342702    12.000000000000
         C            1.327766144662     0.110965708762    -0.039992342702    12.000000000000
         H            0.201082144662    -1.281247291238     1.238577657298     1.007825032230
         H            0.243460144662    -1.758700291238    -0.477367342702     1.007825032230
         H           -2.428065855338     0.878587708762     0.742125657298     1.007825032230

  Basis Set: AUG-CC-PVTZ
    Blend: AUG-CC-PVTZ
  Basis Set: (AUG-CC-PVTZ AUX)
    Blend: AUG-CC-PVTZ-JKFIT
	 Reference Energy          =    -415.0207036908900591 [Eh]
	 Singles Energy            =      -0.0000000000000000 [Eh]
	 Same-Spin Energy          =      -0.4020700827001789 [Eh]
	 Opposite-Spin Energy      =      -1.1701054783907536 [Eh]
	 Correlation Energy        =      -1.5721755610909325 [Eh]
	 Total Energy              =    -416.5928792519810031 [Eh]

	 ================> DF-SCS-MP2 Energies <==================
	-----------------------------------------------------------
	 SCS Same-Spin Scale       =       0.3333333333333333 [-]
	 SCS Opposite-Spin Scale   =       1.2000000000000000 [-]
	 SCS Same-Spin Energy      =      -0.1340233609000596 [Eh]
	 SCS Opposite-Spin Energy  =      -1.4041265740689044 [Eh]
	 SCS Correlation Energy    =      -1.5381499349689640 [Eh]
	 SCS Total Energy          =    -416.5588536258590011 [Eh]
	-----------------------------------------------------------

  Dipole Moment: [D]
     X:    -5.4407      Y:    -1.5259      Z:     1.7302     Total:     5.9096

*** Psi4 exiting successfully. Buy a developer a beer!
