                               Psi4 1.3.2 release

  ==> Input File <==

--------------------------------------------------------------------------
#psi4
#
memory 32 gb

molecule  {
-1 1
  O       -1.6248440     0.4205080     1.0662040
  O       -1.8285700    -0.2634140    -1.0709070
  O        0.9874640     1.2716570    -0.4175620
  O        2.4715130    -0.3822350     0.1558140
  C        0.1508934    -0.9495676     0.0562653
  C       -1.1683160    -0.2561350    -0.0391410
  C        1.3410260     0.1217830    -0.0505500
  H        0.2143420    -1.2704300     1.2280200
  H        0.2567200    -1.7478830    -0.4879250
  H       -2.4148060     0.8894050     0.7315680
units angstrom
no_reorient  #important for SAPT in psi4, default
symmetry c1  #important for SAPT in psi4, default
}

set PROPERTIES_ORIGIN ["COM"]
properties('MP2/aug-cc-pvtz', properties = ['dipole'])
--------------------------------------------------------------------------

    Molecular point group: c1
  Charge       = -1
  Multiplicity = 1
  Basis Set: AUG-CC-PVTZ
    Blend: AUG-CC-PVTZ
  Basis Set: (AUG-CC-PVTZ AUX)
    Blend: AUG-CC-PVTZ-JKFIT

    Orbital Energies [Eh]
    ---------------------

    Doubly Occupied:

       1A    -20.477300     2A    -20.403507     3A    -20.317773
       4A    -20.315933     5A    -11.246406     6A    -11.171595
       7A    -11.088584     8A     -1.315081     9A     -1.208576
      10A     -1.188480    11A     -1.094376    12A     -0.873205
      13A     -0.677789    14A     -0.564680    15A     -0.558519
      16A     -0.526002    17A     -0.489069    18A     -0.456307
      19A     -0.440238    20A     -0.421443    21A     -0.403878
      22A     -0.349090    23A     -0.340897    24A     -0.304297
      25A     -0.234980    26A     -0.216827    27A     -0.215010

  @DF-RHF Final Energy:  -415.00414238233412

   => Energetics <=

    Nuclear Repulsion Energy =            288.3157622942424041
    One-Electron Energy =               -1152.8401205490813481
    Two-Electron Energy =                 449.5202158725048207
    Total Energy =                       -415.0041423823341233
  Basis Set: (AUG-CC-PVTZ AUX)
    Blend: AUG-CC-PVTZ-RI
    Molecular point group: c1

    Geometry (in Angstrom), charge = -1, multiplicity = 1:

       Center              X                  Y                   Z               Mass
    ------------   -----------------  -----------------  -----------------  -----------------
         O           -1.644389683522     0.405107186071     1.097074814067    15.994914619570
         O           -1.848115683522    -0.278814813929    -1.040036185933    15.994914619570
         O            0.967918316478     1.256256186071    -0.386691185933    15.994914619570
         O            2.451967316478    -0.397635813929     0.186684814067    15.994914619570
         C            0.131347716478    -0.964968413929     0.087136114067    12.000000000000
         C           -1.187861683522    -0.271535813929    -0.008270185933    12.000000000000
         C            1.321480316478     0.106382186071    -0.019679185933    12.000000000000
         H            0.194796316478    -1.285830813929     1.258890814067     1.007825032230
         H            0.237174316478    -1.763283813929    -0.457054185933     1.007825032230
         H           -2.434351683522     0.874004186071     0.762438814067     1.007825032230

  Basis Set: AUG-CC-PVTZ
    Blend: AUG-CC-PVTZ
  Basis Set: (AUG-CC-PVTZ AUX)
    Blend: AUG-CC-PVTZ-JKFIT
	 Reference Energy          =    -415.0041423823341233 [Eh]
	 Singles Energy            =      -0.0000000000000000 [Eh]
	 Same-Spin Energy          =      -0.4012652778815107 [Eh]
	 Opposite-Spin Energy      =      -1.1698312268794204 [Eh]
	 Correlation Energy        =      -1.5710965047609311 [Eh]
	 Total Energy              =    -416.5752388870950540 [Eh]

	 ================> DF-SCS-MP2 Energies <==================
	-----------------------------------------------------------
	 SCS Same-Spin Scale       =       0.3333333333333333 [-]
	 SCS Opposite-Spin Scale   =       1.2000000000000000 [-]
	 SCS Same-Spin Energy      =      -0.1337550926271702 [Eh]
	 SCS Opposite-Spin Energy  =      -1.4037974722553044 [Eh]
	 SCS Correlation Energy    =      -1.5375525648824746 [Eh]
	 SCS Total Energy          =    -416.5416949472165697 [Eh]
	-----------------------------------------------------------

  Dipole Moment: [D]
     X:    -5.7792      Y:    -1.6562      Z:     1.5419     Total:     6.2064

*** Psi4 exiting successfully. Buy a developer a beer!
