                               Psi4 1.3.2 release

  ==> Input File <==

--------------------------------------------------------------------------
#psi4
#
memory 32 gb

molecule  {
0 1
  N       -0.0337150    -0.9783820    -0.0001030
  H       -0.0465630    -1.9952990     0.0000230
  C       -1.2924060    -0.3478390    -0.0002800
  O       -2.3237930    -1.0132930     0.0001830
  C       -1.2062280     1.1067970     0.0000000
  H       -2.1261180     1.6763830     0.0001840
  C        0.0030670     1.7105540     0.0000260
  H        0.1229620     2.7891690     0.0001530
  N        1.1742530     0.9863660    -0.0000120
  H        2.0766210     1.4468080     0.0000740
  C        1.2261220    -0.4021520    -0.0000880
  O        2.2745420    -1.0338450     0.0001200
units angstrom
no_reorient  #important for SAPT in psi4, default
symmetry c1  #important for SAPT in psi4, default
}

set PROPERTIES_ORIGIN ["COM"]
properties('MP2/aug-cc-pvtz', properties = ['dipole'])
--------------------------------------------------------------------------

    Molecular point group: c1
  Charge       = 0
  Multiplicity = 1
  Basis Set: AUG-CC-PVTZ
    Blend: AUG-CC-PVTZ
  Basis Set: (AUG-CC-PVTZ AUX)
    Blend: AUG-CC-PVTZ-JKFIT

    Orbital Energies [Eh]
    ---------------------

    Doubly Occupied:

       1A    -20.549547     2A    -20.544152     3A    -15.647287
       4A    -15.630771     5A    -11.423147     6A    -11.385315
       7A    -11.344601     8A    -11.259768     9A     -1.431740
      10A     -1.394107    11A     -1.310706    12A     -1.243670
      13A     -1.088440    14A     -0.932260    15A     -0.901073
      16A     -0.804904    17A     -0.763098    18A     -0.713464
      19A     -0.676943    20A     -0.666659    21A     -0.652518
      22A     -0.614687    23A     -0.600790    24A     -0.568947
      25A     -0.524999    26A     -0.484347    27A     -0.450724
      28A     -0.437413    29A     -0.370540

  @DF-RHF Final Energy:  -412.62101037386338

   => Energetics <=

    Nuclear Repulsion Energy =            355.3713615530613197
    One-Electron Energy =               -1267.1515085395928963
    Two-Electron Energy =                 499.1591366126681919
    Total Energy =                       -412.6210103738633848
  Basis Set: (AUG-CC-PVTZ AUX)
    Blend: AUG-CC-PVTZ-RI
    Molecular point group: c1

    Geometry (in Angstrom), charge = 0, multiplicity = 1:

       Center              X                  Y                   Z               Mass
    ------------   -----------------  -----------------  -----------------  -----------------
         N           -0.033510094440    -0.943783597327    -0.000099157201    14.003074004430
         H           -0.046358094440    -1.960700597327     0.000026842799     1.007825032230
         C           -1.292201094440    -0.313240597327    -0.000276157201    12.000000000000
         O           -2.323588094440    -0.978694597327     0.000186842799    15.994914619570
         C           -1.206023094440     1.141395402673     0.000003842799    12.000000000000
         H           -2.125913094440     1.710981402673     0.000187842799     1.007825032230
         C            0.003271905560     1.745152402673     0.000029842799    12.000000000000
         H            0.123166905560     2.823767402673     0.000156842799     1.007825032230
         N            1.174457905560     1.020964402673    -0.000008157201    14.003074004430
         H            2.076825905560     1.481406402673     0.000077842799     1.007825032230
         C            1.226326905560    -0.367553597327    -0.000084157201    12.000000000000
         O            2.274746905560    -0.999246597327     0.000123842799    15.994914619570

  Basis Set: AUG-CC-PVTZ
    Blend: AUG-CC-PVTZ
  Basis Set: (AUG-CC-PVTZ AUX)
    Blend: AUG-CC-PVTZ-JKFIT
	 Reference Energy          =    -412.6210103738633848 [Eh]
	 Singles Energy            =      -0.0000000000000000 [Eh]
	 Same-Spin Energy          =      -0.4147218474962279 [Eh]
	 Opposite-Spin Energy      =      -1.2283437313414445 [Eh]
	 Correlation Energy        =      -1.6430655788376725 [Eh]
	 Total Energy              =    -414.2640759527010346 [Eh]

	 ================> DF-SCS-MP2 Energies <==================
	-----------------------------------------------------------
	 SCS Same-Spin Scale       =       0.3333333333333333 [-]
	 SCS Opposite-Spin Scale   =       1.2000000000000000 [-]
	 SCS Same-Spin Energy      =      -0.1382406158320759 [Eh]
	 SCS Opposite-Spin Energy  =      -1.4740124776097334 [Eh]
	 SCS Correlation Energy    =      -1.6122530934418093 [Eh]
	 SCS Total Energy          =    -414.2332634673052212 [Eh]
	-----------------------------------------------------------

  Dipole Moment: [D]
     X:     1.1714      Y:     4.1927      Z:    -0.0005     Total:     4.3532

*** Psi4 exiting successfully. Buy a developer a beer!
