                               Psi4 1.3.2 release

  ==> Input File <==

--------------------------------------------------------------------------
#psi4
#
memory 32 gb

molecule  {
0 1
  N       -0.0337150    -0.9783820    -0.0001030
  H       -0.0465630    -1.9952990     0.0000230
  C       -1.2924060    -0.3478390    -0.0002800
  O       -2.3237930    -1.0132930     0.0001830
  C       -1.2062280     1.1067970     0.0000000
  H       -2.1261180     1.6763830     0.0001840
  C        0.0030670     1.7105540     0.0000260
  H        0.1229620     2.7891690     0.0001530
  N        1.1742530     0.9863660    -0.0000120
  H        2.0766210     1.4468080     0.0000740
  C        1.2261440    -0.4021905    -0.3000880
  O        2.2745420    -1.0338450     0.0001200
units angstrom
no_reorient  #important for SAPT in psi4, default
symmetry c1  #important for SAPT in psi4, default
}

set PROPERTIES_ORIGIN ["COM"]
properties('MP2/aug-cc-pvtz', properties = ['dipole'])
--------------------------------------------------------------------------

    Molecular point group: c1
  Charge       = 0
  Multiplicity = 1
  Basis Set: AUG-CC-PVTZ
    Blend: AUG-CC-PVTZ
  Basis Set: (AUG-CC-PVTZ AUX)
    Blend: AUG-CC-PVTZ-JKFIT

    Orbital Energies [Eh]
    ---------------------

    Doubly Occupied:

       1A    -20.557138     2A    -20.543649     3A    -15.648420
       4A    -15.632374     5A    -11.435345     6A    -11.383396
       7A    -11.342439     8A    -11.259582     9A     -1.419028
      10A     -1.389890    11A     -1.299183    12A     -1.235899
      13A     -1.084735    14A     -0.925849    15A     -0.894514
      16A     -0.802125    17A     -0.753589    18A     -0.711706
      19A     -0.674677    20A     -0.657424    21A     -0.645247
      22A     -0.612904    23A     -0.599217    24A     -0.564147
      25A     -0.518350    26A     -0.480395    27A     -0.450928
      28A     -0.431260    29A     -0.368573

  @DF-RHF Final Energy:  -412.57526632852296

   => Energetics <=

    Nuclear Repulsion Energy =            353.8387033906270744
    One-Electron Energy =               -1264.1839710120323161
    Two-Electron Energy =                 497.7700012928822844
    Total Energy =                       -412.5752663285229573
  Basis Set: (AUG-CC-PVTZ AUX)
    Blend: AUG-CC-PVTZ-RI
    Molecular point group: c1

    Geometry (in Angstrom), charge = 0, multiplicity = 1:

       Center              X                  Y                   Z               Mass
    ------------   -----------------  -----------------  -----------------  -----------------
         N           -0.033512451009    -0.943779473331     0.032035873519    14.003074004430
         H           -0.046360451009    -1.960696473331     0.032161873519     1.007825032230
         C           -1.292203451009    -0.313236473331     0.031858873519    12.000000000000
         O           -2.323590451009    -0.978690473331     0.032321873519    15.994914619570
         C           -1.206025451009     1.141399526669     0.032138873519    12.000000000000
         H           -2.125915451009     1.710985526669     0.032322873519     1.007825032230
         C            0.003269548991     1.745156526669     0.032164873519    12.000000000000
         H            0.123164548991     2.823771526669     0.032291873519     1.007825032230
         N            1.174455548991     1.020968526669     0.032126873519    14.003074004430
         H            2.076823548991     1.481410526669     0.032212873519     1.007825032230
         C            1.226346548991    -0.367587973331    -0.267949126481    12.000000000000
         O            2.274744548991    -0.999242473331     0.032258873519    15.994914619570

  Basis Set: AUG-CC-PVTZ
    Blend: AUG-CC-PVTZ
  Basis Set: (AUG-CC-PVTZ AUX)
    Blend: AUG-CC-PVTZ-JKFIT
	 Reference Energy          =    -412.5752663285229573 [Eh]
	 Singles Energy            =      -0.0000000000000000 [Eh]
	 Same-Spin Energy          =      -0.4175332325708488 [Eh]
	 Opposite-Spin Energy      =      -1.2357121164227984 [Eh]
	 Correlation Energy        =      -1.6532453489936474 [Eh]
	 Total Energy              =    -414.2285116775166216 [Eh]

	 ================> DF-SCS-MP2 Energies <==================
	-----------------------------------------------------------
	 SCS Same-Spin Scale       =       0.3333333333333333 [-]
	 SCS Opposite-Spin Scale   =       1.2000000000000000 [-]
	 SCS Same-Spin Energy      =      -0.1391777441902829 [Eh]
	 SCS Opposite-Spin Energy  =      -1.4828545397073580 [Eh]
	 SCS Correlation Energy    =      -1.6220322838976409 [Eh]
	 SCS Total Energy          =    -414.1972986124205818 [Eh]
	-----------------------------------------------------------

  Dipole Moment: [D]
     X:     1.2263      Y:     4.1365      Z:    -0.4174     Total:     4.3346

*** Psi4 exiting successfully. Buy a developer a beer!
