                               Psi4 1.3.2 release

  ==> Input File <==

--------------------------------------------------------------------------
#psi4
#
memory 32 gb

molecule  {
0 1
  N       -0.0337150    -0.9783820    -0.0001030
  H       -0.0465630    -1.9952990     0.0000230
  C       -1.2924060    -0.3478390    -0.0002800
  O       -2.3237930    -1.0132930     0.0001830
  C       -1.2062280     1.1067970     0.0000000
  H       -2.1261180     1.6763830     0.0001840
  C        0.0030554     1.7105836    -0.1499740
  H        0.1229620     2.7891690     0.0001530
  N        1.1742530     0.9863660    -0.0000120
  H        2.0766210     1.4468080     0.0000740
  C        1.2261220    -0.4021520    -0.0000880
  O        2.2745420    -1.0338450     0.0001200
units angstrom
no_reorient  #important for SAPT in psi4, default
symmetry c1  #important for SAPT in psi4, default
}

set PROPERTIES_ORIGIN ["COM"]
properties('MP2/aug-cc-pvtz', properties = ['dipole'])
--------------------------------------------------------------------------

    Molecular point group: c1
  Charge       = 0
  Multiplicity = 1
  Basis Set: AUG-CC-PVTZ
    Blend: AUG-CC-PVTZ
  Basis Set: (AUG-CC-PVTZ AUX)
    Blend: AUG-CC-PVTZ-JKFIT

    Orbital Energies [Eh]
    ---------------------

    Doubly Occupied:

       1A    -20.549087     2A    -20.545367     3A    -15.646248
       4A    -15.630970     5A    -11.422447     6A    -11.386124
       7A    -11.346288     8A    -11.263313     9A     -1.431195
      10A     -1.394875    11A     -1.308544    12A     -1.243032
      13A     -1.087320    14A     -0.930680    15A     -0.900638
      16A     -0.803718    17A     -0.761267    18A     -0.709636
      19A     -0.676822    20A     -0.665739    21A     -0.651429
      22A     -0.613961    23A     -0.600750    24A     -0.568707
      25A     -0.523793    26A     -0.483703    27A     -0.451487
      28A     -0.437567    29A     -0.370083

  @DF-RHF Final Energy:  -412.61342028826812

   => Energetics <=

    Nuclear Repulsion Energy =            355.0992253815909976
    One-Electron Energy =               -1266.6157057109589914
    Two-Electron Energy =                 498.9030600410999341
    Total Energy =                       -412.6134202882681166
  Basis Set: (AUG-CC-PVTZ AUX)
    Blend: AUG-CC-PVTZ-RI
    Molecular point group: c1

    Geometry (in Angstrom), charge = 0, multiplicity = 1:

       Center              X                  Y                   Z               Mass
    ------------   -----------------  -----------------  -----------------  -----------------
         N           -0.033508851885    -0.943786767983     0.015968358159    14.003074004430
         H           -0.046356851885    -1.960703767983     0.016094358159     1.007825032230
         C           -1.292199851885    -0.313243767983     0.015791358159    12.000000000000
         O           -2.323586851885    -0.978697767983     0.016254358159    15.994914619570
         C           -1.206021851885     1.141392232017     0.016071358159    12.000000000000
         H           -2.125911851885     1.710978232017     0.016255358159     1.007825032230
         C            0.003261548115     1.745178832017    -0.133902641841    12.000000000000
         H            0.123168148115     2.823764232017     0.016224358159     1.007825032230
         N            1.174459148115     1.020961232017     0.016059358159    14.003074004430
         H            2.076827148115     1.481403232017     0.016145358159     1.007825032230
         C            1.226328148115    -0.367556767983     0.015983358159    12.000000000000
         O            2.274748148115    -0.999249767983     0.016191358159    15.994914619570

  Basis Set: AUG-CC-PVTZ
    Blend: AUG-CC-PVTZ
  Basis Set: (AUG-CC-PVTZ AUX)
    Blend: AUG-CC-PVTZ-JKFIT
	 Reference Energy          =    -412.6134202882681166 [Eh]
	 Singles Energy            =      -0.0000000000000000 [Eh]
	 Same-Spin Energy          =      -0.4151279966351775 [Eh]
	 Opposite-Spin Energy      =      -1.2294965535067903 [Eh]
	 Correlation Energy        =      -1.6446245501419678 [Eh]
	 Total Energy              =    -414.2580448384100578 [Eh]

	 ================> DF-SCS-MP2 Energies <==================
	-----------------------------------------------------------
	 SCS Same-Spin Scale       =       0.3333333333333333 [-]
	 SCS Opposite-Spin Scale   =       1.2000000000000000 [-]
	 SCS Same-Spin Energy      =      -0.1383759988783925 [Eh]
	 SCS Opposite-Spin Energy  =      -1.4753958642081484 [Eh]
	 SCS Correlation Energy    =      -1.6137718630865410 [Eh]
	 SCS Total Energy          =    -414.2271921513546431 [Eh]
	-----------------------------------------------------------

  Dipole Moment: [D]
     X:     1.0959      Y:     4.1492      Z:     0.0129     Total:     4.2915

*** Psi4 exiting successfully. Buy a developer a beer!
