                               Psi4 1.3.2 release

  ==> Input File <==

--------------------------------------------------------------------------
#psi4
#
memory 32 gb

molecule  {
0 1
  N       -0.0337150    -0.9783820    -0.0001030
  H       -0.0465630    -1.9952990     0.0000230
  C       -1.2924060    -0.3478390    -0.0002800
  O       -2.3237930    -1.0132930     0.0001830
  C       -1.2062280     1.1067970     0.0000000
  H       -2.1261180     1.6763830     0.0001840
  C        0.0030670     1.7105540     0.0000260
  H        0.1229620     2.7891690     0.0001530
  N        1.1742530     0.9863660    -0.0000120
  H        2.0766210     1.4468080     0.0000740
  C        1.2261330    -0.4021713    -0.1500880
  O        2.2745420    -1.0338450     0.0001200
units angstrom
no_reorient  #important for SAPT in psi4, default
symmetry c1  #important for SAPT in psi4, default
}

set PROPERTIES_ORIGIN ["COM"]
properties('MP2/aug-cc-pvtz', properties = ['dipole'])
--------------------------------------------------------------------------

    Molecular point group: c1
  Charge       = 0
  Multiplicity = 1
  Basis Set: AUG-CC-PVTZ
    Blend: AUG-CC-PVTZ
  Basis Set: (AUG-CC-PVTZ AUX)
    Blend: AUG-CC-PVTZ-JKFIT

    Orbital Energies [Eh]
    ---------------------

    Doubly Occupied:

       1A    -20.551447     2A    -20.544019     3A    -15.647614
       4A    -15.631227     5A    -11.426454     6A    -11.384819
       7A    -11.344044     8A    -11.259708     9A     -1.428321
      10A     -1.393172    11A     -1.307679    12A     -1.241655
      13A     -1.087481    14A     -0.930597    15A     -0.899383
      16A     -0.804197    17A     -0.760660    18A     -0.713026
      19A     -0.676444    20A     -0.664165    21A     -0.650723
      22A     -0.614284    23A     -0.600426    24A     -0.567688
      25A     -0.523227    26A     -0.483241    27A     -0.450891
      28A     -0.435693    29A     -0.370038

  @DF-RHF Final Energy:  -412.60960901373022

   => Energetics <=

    Nuclear Repulsion Energy =            354.9778015761806387
    One-Electron Energy =               -1266.3901787695874646
    Two-Electron Energy =                 498.8027681796766615
    Total Energy =                       -412.6096090137302212
  Basis Set: (AUG-CC-PVTZ AUX)
    Blend: AUG-CC-PVTZ-RI
    Molecular point group: c1

    Geometry (in Angstrom), charge = 0, multiplicity = 1:

       Center              X                  Y                   Z               Mass
    ------------   -----------------  -----------------  -----------------  -----------------
         N           -0.033511272724    -0.943781529973     0.015968358159    14.003074004430
         H           -0.046359272724    -1.960698529973     0.016094358159     1.007825032230
         C           -1.292202272724    -0.313238529973     0.015791358159    12.000000000000
         O           -2.323589272724    -0.978692529973     0.016254358159    15.994914619570
         C           -1.206024272724     1.141397470027     0.016071358159    12.000000000000
         H           -2.125914272724     1.710983470027     0.016255358159     1.007825032230
         C            0.003270727276     1.745154470027     0.016097358159    12.000000000000
         H            0.123165727276     2.823769470027     0.016224358159     1.007825032230
         N            1.174456727276     1.020966470027     0.016059358159    14.003074004430
         H            2.076824727276     1.481408470027     0.016145358159     1.007825032230
         C            1.226336727276    -0.367570829973    -0.134016641841    12.000000000000
         O            2.274745727276    -0.999244529973     0.016191358159    15.994914619570

  Basis Set: AUG-CC-PVTZ
    Blend: AUG-CC-PVTZ
  Basis Set: (AUG-CC-PVTZ AUX)
    Blend: AUG-CC-PVTZ-JKFIT
	 Reference Energy          =    -412.6096090137302212 [Eh]
	 Singles Energy            =      -0.0000000000000000 [Eh]
	 Same-Spin Energy          =      -0.4154313175044939 [Eh]
	 Opposite-Spin Energy      =      -1.2300605327191203 [Eh]
	 Correlation Energy        =      -1.6454918502236142 [Eh]
	 Total Energy              =    -414.2551008639538281 [Eh]

	 ================> DF-SCS-MP2 Energies <==================
	-----------------------------------------------------------
	 SCS Same-Spin Scale       =       0.3333333333333333 [-]
	 SCS Opposite-Spin Scale   =       1.2000000000000000 [-]
	 SCS Same-Spin Energy      =      -0.1384771058348313 [Eh]
	 SCS Opposite-Spin Energy  =      -1.4760726392629444 [Eh]
	 SCS Correlation Energy    =      -1.6145497450977757 [Eh]
	 SCS Total Energy          =    -414.2241587588280254 [Eh]
	-----------------------------------------------------------

  Dipole Moment: [D]
     X:     1.1856      Y:     4.1779      Z:    -0.2246     Total:     4.3486

*** Psi4 exiting successfully. Buy a developer a beer!
