                               Psi4 1.3.2 release

  ==> Input File <==

--------------------------------------------------------------------------
#psi4
#
memory 32 gb

molecule  {
0 1
  N       -0.0337150    -0.9783820    -0.0001030
  H       -0.0465630    -1.9952990     0.0000230
  C       -1.2924060    -0.3478390    -0.0002800
  O       -2.3237930    -1.0132930     0.0001830
  C       -1.2062467     1.1067939    -0.1500000
  H       -2.1261180     1.6763830     0.0001840
  C        0.0030670     1.7105540     0.0000260
  H        0.1229620     2.7891690     0.0001530
  N        1.1742530     0.9863660    -0.0000120
  H        2.0766210     1.4468080     0.0000740
  C        1.2261220    -0.4021520    -0.0000880
  O        2.2745420    -1.0338450     0.0001200
units angstrom
no_reorient  #important for SAPT in psi4, default
symmetry c1  #important for SAPT in psi4, default
}

set PROPERTIES_ORIGIN ["COM"]
properties('MP2/aug-cc-pvtz', properties = ['dipole'])
--------------------------------------------------------------------------

    Molecular point group: c1
  Charge       = 0
  Multiplicity = 1
  Basis Set: AUG-CC-PVTZ
    Blend: AUG-CC-PVTZ
  Basis Set: (AUG-CC-PVTZ AUX)
    Blend: AUG-CC-PVTZ-JKFIT

    Orbital Energies [Eh]
    ---------------------

    Doubly Occupied:

       1A    -20.550299     2A    -20.544248     3A    -15.648358
       4A    -15.630804     5A    -11.423724     6A    -11.385738
       7A    -11.347114     8A    -11.261353     9A     -1.432220
      10A     -1.394052    11A     -1.311251    12A     -1.243935
      13A     -1.086434    14A     -0.931880    15A     -0.900745
      16A     -0.804093    17A     -0.761381    18A     -0.714035
      19A     -0.677086    20A     -0.667362    21A     -0.650906
      22A     -0.613478    23A     -0.597606    24A     -0.568082
      25A     -0.524539    26A     -0.484574    27A     -0.450225
      28A     -0.437528    29A     -0.370634

  @DF-RHF Final Energy:  -412.61545682513491

   => Energetics <=

    Nuclear Repulsion Energy =            355.1125389751716739
    One-Electron Energy =               -1266.6286244148254809
    Two-Electron Energy =                 498.9006286145188938
    Total Energy =                       -412.6154568251349133
  Basis Set: (AUG-CC-PVTZ AUX)
    Blend: AUG-CC-PVTZ-RI
    Molecular point group: c1

    Geometry (in Angstrom), charge = 0, multiplicity = 1:

       Center              X                  Y                   Z               Mass
    ------------   -----------------  -----------------  -----------------  -----------------
         N           -0.033508091356    -0.943783265265     0.015968358159    14.003074004430
         H           -0.046356091356    -1.960700265265     0.016094358159     1.007825032230
         C           -1.292199091356    -0.313240265265     0.015791358159    12.000000000000
         O           -2.323586091356    -0.978694265265     0.016254358159    15.994914619570
         C           -1.206039791356     1.141392634735    -0.133928641841    12.000000000000
         H           -2.125911091356     1.710981734735     0.016255358159     1.007825032230
         C            0.003273908644     1.745152734735     0.016097358159    12.000000000000
         H            0.123168908644     2.823767734735     0.016224358159     1.007825032230
         N            1.174459908644     1.020964734735     0.016059358159    14.003074004430
         H            2.076827908644     1.481406734735     0.016145358159     1.007825032230
         C            1.226328908644    -0.367553265265     0.015983358159    12.000000000000
         O            2.274748908644    -0.999246265265     0.016191358159    15.994914619570

  Basis Set: AUG-CC-PVTZ
    Blend: AUG-CC-PVTZ
  Basis Set: (AUG-CC-PVTZ AUX)
    Blend: AUG-CC-PVTZ-JKFIT
	 Reference Energy          =    -412.6154568251349133 [Eh]
	 Singles Energy            =      -0.0000000000000000 [Eh]
	 Same-Spin Energy          =      -0.4149794900095025 [Eh]
	 Opposite-Spin Energy      =      -1.2289696375759829 [Eh]
	 Correlation Energy        =      -1.6439491275854854 [Eh]
	 Total Energy              =    -414.2594059527203854 [Eh]

	 ================> DF-SCS-MP2 Energies <==================
	-----------------------------------------------------------
	 SCS Same-Spin Scale       =       0.3333333333333333 [-]
	 SCS Opposite-Spin Scale   =       1.2000000000000000 [-]
	 SCS Same-Spin Energy      =      -0.1383264966698342 [Eh]
	 SCS Opposite-Spin Energy  =      -1.4747635650911795 [Eh]
	 SCS Correlation Energy    =      -1.6130900617610135 [Eh]
	 SCS Total Energy          =    -414.2285468868959128 [Eh]
	-----------------------------------------------------------

  Dipole Moment: [D]
     X:     1.2127      Y:     4.1612      Z:     0.1319     Total:     4.3364

*** Psi4 exiting successfully. Buy a developer a beer!
