                               Psi4 1.3.2 release

  ==> Input File <==

--------------------------------------------------------------------------
#psi4
#
memory 32 gb

molecule  {
0 1
  N       -0.0337150    -0.9783820    -0.0001030
  H       -0.0465630    -1.9952990     0.0000230
  C       -1.2924060    -0.3478390    -0.0002800
  O       -2.3237930    -1.0132930     0.0001830
  C       -1.2062280     1.1067970     0.0000000
  H       -2.1261180     1.6763830     0.0001840
  C        0.0030670     1.7105540     0.0000260
  H        0.1229620     2.7891690     0.0001530
  N        1.1742530     0.9863706    -0.0500120
  H        2.0766210     1.4468080     0.0000740
  C        1.2261220    -0.4021520    -0.0000880
  O        2.2745420    -1.0338450     0.0001200
units angstrom
no_reorient  #important for SAPT in psi4, default
symmetry c1  #important for SAPT in psi4, default
}

set PROPERTIES_ORIGIN ["COM"]
properties('MP2/aug-cc-pvtz', properties = ['dipole'])
--------------------------------------------------------------------------

    Molecular point group: c1
  Charge       = 0
  Multiplicity = 1
  Basis Set: AUG-CC-PVTZ
    Blend: AUG-CC-PVTZ
  Basis Set: (AUG-CC-PVTZ AUX)
    Blend: AUG-CC-PVTZ-JKFIT

    Orbital Energies [Eh]
    ---------------------

    Doubly Occupied:

       1A    -20.549727     2A    -20.544301     3A    -15.647284
       4A    -15.630807     5A    -11.423207     6A    -11.385407
       7A    -11.344533     8A    -11.259883     9A     -1.431714
      10A     -1.394214    11A     -1.310420    12A     -1.243584
      13A     -1.088365    14A     -0.931927    15A     -0.900922
      16A     -0.804436    17A     -0.762872    18A     -0.713400
      19A     -0.676998    20A     -0.666467    21A     -0.652396
      22A     -0.614643    23A     -0.600848    24A     -0.568980
      25A     -0.524925    26A     -0.484397    27A     -0.450837
      28A     -0.437462    29A     -0.370744

  @DF-RHF Final Energy:  -412.62063598286625

   => Energetics <=

    Nuclear Repulsion Energy =            355.3355435819213426
    One-Electron Energy =               -1267.0809636162641709
    Two-Electron Energy =                 499.1247840514765812
    Total Energy =                       -412.6206359828662471
  Basis Set: (AUG-CC-PVTZ AUX)
    Blend: AUG-CC-PVTZ-RI
    Molecular point group: c1

    Geometry (in Angstrom), charge = 0, multiplicity = 1:

       Center              X                  Y                   Z               Mass
    ------------   -----------------  -----------------  -----------------  -----------------
         N           -0.033510094440    -0.943784172313     0.006150692984    14.003074004430
         H           -0.046358094440    -1.960701172313     0.006276692984     1.007825032230
         C           -1.292201094440    -0.313241172313     0.005973692984    12.000000000000
         O           -2.323588094440    -0.978695172313     0.006436692984    15.994914619570
         C           -1.206023094440     1.141394827687     0.006253692984    12.000000000000
         H           -2.125913094440     1.710980827687     0.006437692984     1.007825032230
         C            0.003271905560     1.745151827687     0.006279692984    12.000000000000
         H            0.123166905560     2.823766827687     0.006406692984     1.007825032230
         N            1.174457905560     1.020968427687    -0.043758307016    14.003074004430
         H            2.076825905560     1.481405827687     0.006327692984     1.007825032230
         C            1.226326905560    -0.367554172313     0.006165692984    12.000000000000
         O            2.274746905560    -0.999247172313     0.006373692984    15.994914619570

  Basis Set: AUG-CC-PVTZ
    Blend: AUG-CC-PVTZ
  Basis Set: (AUG-CC-PVTZ AUX)
    Blend: AUG-CC-PVTZ-JKFIT
	 Reference Energy          =    -412.6206359828662471 [Eh]
	 Singles Energy            =      -0.0000000000000000 [Eh]
	 Same-Spin Energy          =      -0.4147262841421599 [Eh]
	 Opposite-Spin Energy      =      -1.2283987104477654 [Eh]
	 Correlation Energy        =      -1.6431249945899253 [Eh]
	 Total Energy              =    -414.2637609774561724 [Eh]

	 ================> DF-SCS-MP2 Energies <==================
	-----------------------------------------------------------
	 SCS Same-Spin Scale       =       0.3333333333333333 [-]
	 SCS Opposite-Spin Scale   =       1.2000000000000000 [-]
	 SCS Same-Spin Energy      =      -0.1382420947140533 [Eh]
	 SCS Opposite-Spin Energy  =      -1.4740784525373185 [Eh]
	 SCS Correlation Energy    =      -1.6123205472513717 [Eh]
	 SCS Total Energy          =    -414.2329565301176331 [Eh]
	-----------------------------------------------------------

  Dipole Moment: [D]
     X:     1.1652      Y:     4.1842      Z:     0.0582     Total:     4.3438

*** Psi4 exiting successfully. Buy a developer a beer!
