                               Psi4 1.3.2 release

  ==> Input File <==

--------------------------------------------------------------------------
#psi4
#
memory 32 gb

molecule  {
0 1
  N       -0.0337150    -0.9783820    -0.0001030
  H       -0.0465630    -1.9952990     0.0000230
  C       -1.2924060    -0.3478390    -0.0002800
  O       -2.3237930    -1.0132930     0.0001830
  C       -1.2062280     1.1067970     0.0000000
  H       -2.1261180     1.6763830     0.0001840
  C        0.0030670     1.7105540     0.0000260
  H        0.1229620     2.7891690     0.0001530
  N        1.1742530     0.9863660    -0.0000120
  H        2.0766210     1.4468080     0.0000740
  C        1.2261236    -0.4021484    -0.0500880
  O        2.2745420    -1.0338450     0.0001200
units angstrom
no_reorient  #important for SAPT in psi4, default
symmetry c1  #important for SAPT in psi4, default
}

set PROPERTIES_ORIGIN ["COM"]
properties('MP2/aug-cc-pvtz', properties = ['dipole'])
--------------------------------------------------------------------------

    Molecular point group: c1
  Charge       = 0
  Multiplicity = 1
  Basis Set: AUG-CC-PVTZ
    Blend: AUG-CC-PVTZ
  Basis Set: (AUG-CC-PVTZ AUX)
    Blend: AUG-CC-PVTZ-JKFIT

    Orbital Energies [Eh]
    ---------------------

    Doubly Occupied:

       1A    -20.549757     2A    -20.544137     3A    -15.647326
       4A    -15.630824     5A    -11.423524     6A    -11.385259
       7A    -11.344539     8A    -11.259762     9A     -1.431350
      10A     -1.394005    11A     -1.310364    12A     -1.243444
      13A     -1.088333    14A     -0.932075    15A     -0.900883
      16A     -0.804826    17A     -0.762826    18A     -0.713416
      19A     -0.676890    20A     -0.666374    21A     -0.652319
      22A     -0.614643    23A     -0.600751    24A     -0.568805
      25A     -0.524797    26A     -0.484218    27A     -0.450747
      28A     -0.437213    29A     -0.370484

  @DF-RHF Final Energy:  -412.61974312980965

   => Energetics <=

    Nuclear Repulsion Energy =            355.3271751070211053
    One-Electron Energy =               -1267.0660535685308332
    Two-Electron Energy =                 499.1191353317001358
    Total Energy =                       -412.6197431298096490
  Basis Set: (AUG-CC-PVTZ AUX)
    Blend: AUG-CC-PVTZ-RI
    Molecular point group: c1

    Geometry (in Angstrom), charge = 0, multiplicity = 1:

       Center              X                  Y                   Z               Mass
    ------------   -----------------  -----------------  -----------------  -----------------
         N           -0.033510265826    -0.943783982947     0.005256681252    14.003074004430
         H           -0.046358265826    -1.960700982947     0.005382681252     1.007825032230
         C           -1.292201265826    -0.313240982947     0.005079681252    12.000000000000
         O           -2.323588265826    -0.978694982947     0.005542681252    15.994914619570
         C           -1.206023265826     1.141395017053     0.005359681252    12.000000000000
         H           -2.125913265826     1.710981017053     0.005543681252     1.007825032230
         C            0.003271734174     1.745152017053     0.005385681252    12.000000000000
         H            0.123166734174     2.823767017053     0.005512681252     1.007825032230
         N            1.174457734174     1.020964017053     0.005347681252    14.003074004430
         H            2.076825734174     1.481406017053     0.005433681252     1.007825032230
         C            1.226328334174    -0.367550382947    -0.044728318748    12.000000000000
         O            2.274746734174    -0.999246982947     0.005479681252    15.994914619570

  Basis Set: AUG-CC-PVTZ
    Blend: AUG-CC-PVTZ
  Basis Set: (AUG-CC-PVTZ AUX)
    Blend: AUG-CC-PVTZ-JKFIT
	 Reference Energy          =    -412.6197431298096490 [Eh]
	 Singles Energy            =      -0.0000000000000000 [Eh]
	 Same-Spin Energy          =      -0.4148009486971728 [Eh]
	 Opposite-Spin Energy      =      -1.2285232205292325 [Eh]
	 Correlation Energy        =      -1.6433241692264051 [Eh]
	 Total Energy              =    -414.2630672990360381 [Eh]

	 ================> DF-SCS-MP2 Energies <==================
	-----------------------------------------------------------
	 SCS Same-Spin Scale       =       0.3333333333333333 [-]
	 SCS Opposite-Spin Scale   =       1.2000000000000000 [-]
	 SCS Same-Spin Energy      =      -0.1382669828990576 [Eh]
	 SCS Opposite-Spin Energy  =      -1.4742278646350788 [Eh]
	 SCS Correlation Energy    =      -1.6124948475341365 [Eh]
	 SCS Total Energy          =    -414.2322379773438001 [Eh]
	-----------------------------------------------------------

  Dipole Moment: [D]
     X:     1.1730      Y:     4.1910      Z:    -0.0769     Total:     4.3528

*** Psi4 exiting successfully. Buy a developer a beer!
