                               Psi4 1.3.2 release

  ==> Input File <==

--------------------------------------------------------------------------
#psi4
#
memory 32 gb

molecule  {
0 1
  N       -0.0337150    -0.9783820    -0.0001030
  H       -0.0465630    -1.9952990     0.0000230
  C       -1.2924060    -0.3478390    -0.0002800
  O       -2.3237930    -1.0132930     0.0001830
  C       -1.2062280     1.1067970     0.0000000
  H       -2.1261180     1.6763830     0.0001840
  C        0.0030670     1.7105540     0.0000260
  H        0.1229620     2.7891690     0.0001530
  N        1.1742530     0.9863660    -0.0000120
  H        2.0766210     1.4468080     0.0000740
  C        1.2261252    -0.4021447    -0.1000880
  O        2.2745420    -1.0338450     0.0001200
units angstrom
no_reorient  #important for SAPT in psi4, default
symmetry c1  #important for SAPT in psi4, default
}

set PROPERTIES_ORIGIN ["COM"]
properties('MP2/aug-cc-pvtz', properties = ['dipole'])
--------------------------------------------------------------------------

    Molecular point group: c1
  Charge       = 0
  Multiplicity = 1
  Basis Set: AUG-CC-PVTZ
    Blend: AUG-CC-PVTZ
  Basis Set: (AUG-CC-PVTZ AUX)
    Blend: AUG-CC-PVTZ-JKFIT

    Orbital Energies [Eh]
    ---------------------

    Doubly Occupied:

       1A    -20.550389     2A    -20.544093     3A    -15.647439
       4A    -15.630979     5A    -11.424640     6A    -11.385093
       7A    -11.344353     8A    -11.259742     9A     -1.430198
      10A     -1.393697    11A     -1.309348    12A     -1.242768
      13A     -1.088013    14A     -0.931519    15A     -0.900317
      16A     -0.804591    17A     -0.762012    18A     -0.713270
      19A     -0.676728    20A     -0.665531    21A     -0.651721
      22A     -0.614511    23A     -0.600631    24A     -0.568382
      25A     -0.524200    26A     -0.483842    27A     -0.450811
      28A     -0.436627    29A     -0.370317

  @DF-RHF Final Energy:  -412.61594591705034

   => Energetics <=

    Nuclear Repulsion Energy =            355.1955064489221172
    One-Electron Energy =               -1266.8113804906167843
    Two-Electron Energy =                 498.9999281246443843
    Total Energy =                       -412.6159459170503396
  Basis Set: (AUG-CC-PVTZ AUX)
    Blend: AUG-CC-PVTZ-RI
    Molecular point group: c1

    Geometry (in Angstrom), charge = 0, multiplicity = 1:

       Center              X                  Y                   Z               Mass
    ------------   -----------------  -----------------  -----------------  -----------------
         N           -0.033510437213    -0.943784379279     0.010612519706    14.003074004430
         H           -0.046358437213    -1.960701379279     0.010738519706     1.007825032230
         C           -1.292201437213    -0.313241379279     0.010435519706    12.000000000000
         O           -2.323588437213    -0.978695379279     0.010898519706    15.994914619570
         C           -1.206023437213     1.141394620721     0.010715519706    12.000000000000
         H           -2.125913437213     1.710980620721     0.010899519706     1.007825032230
         C            0.003271562787     1.745151620721     0.010741519706    12.000000000000
         H            0.123166562787     2.823766620721     0.010868519706     1.007825032230
         N            1.174457562787     1.020963620721     0.010703519706    14.003074004430
         H            2.076825562787     1.481405620721     0.010789519706     1.007825032230
         C            1.226329762787    -0.367547079279    -0.089372480294    12.000000000000
         O            2.274746562787    -0.999247379279     0.010835519706    15.994914619570

  Basis Set: AUG-CC-PVTZ
    Blend: AUG-CC-PVTZ
  Basis Set: (AUG-CC-PVTZ AUX)
    Blend: AUG-CC-PVTZ-JKFIT
	 Reference Energy          =    -412.6159459170503396 [Eh]
	 Singles Energy            =      -0.0000000000000000 [Eh]
	 Same-Spin Energy          =      -0.4150375728951593 [Eh]
	 Opposite-Spin Energy      =      -1.2290816089998096 [Eh]
	 Correlation Energy        =      -1.6441191818949688 [Eh]
	 Total Energy              =    -414.2600650989452902 [Eh]

	 ================> DF-SCS-MP2 Energies <==================
	-----------------------------------------------------------
	 SCS Same-Spin Scale       =       0.3333333333333333 [-]
	 SCS Opposite-Spin Scale   =       1.2000000000000000 [-]
	 SCS Same-Spin Energy      =      -0.1383458576317197 [Eh]
	 SCS Opposite-Spin Energy  =      -1.4748979307997714 [Eh]
	 SCS Correlation Energy    =      -1.6132437884314912 [Eh]
	 SCS Total Energy          =    -414.2291897054818151 [Eh]
	-----------------------------------------------------------

  Dipole Moment: [D]
     X:     1.1777      Y:     4.1861      Z:    -0.1520     Total:     4.3513

*** Psi4 exiting successfully. Buy a developer a beer!
