                               Psi4 1.3.2 release

  ==> Input File <==

--------------------------------------------------------------------------
#psi4
#
memory 32 gb

molecule  {
0 1
  N       -0.0337150    -0.9783820    -0.0001030
  H       -0.0465630    -1.9952990     0.0000230
  C       -1.2924060    -0.3478390    -0.0002800
  O       -2.3237930    -1.0132930     0.0001830
  C       -1.2062280     1.1067970     0.0000000
  H       -2.1261180     1.6763830     0.0001840
  C        0.0030670     1.7105540     0.0000260
  H        0.1229620     2.7891690     0.0001530
  N        1.1742529     0.9863843    -0.2000120
  H        2.0766210     1.4468080     0.0000740
  C        1.2261220    -0.4021520    -0.0000880
  O        2.2745420    -1.0338450     0.0001200
units angstrom
no_reorient  #important for SAPT in psi4, default
symmetry c1  #important for SAPT in psi4, default
}

set PROPERTIES_ORIGIN ["COM"]
properties('MP2/aug-cc-pvtz', properties = ['dipole'])
--------------------------------------------------------------------------

    Molecular point group: c1
  Charge       = 0
  Multiplicity = 1
  Basis Set: AUG-CC-PVTZ
    Blend: AUG-CC-PVTZ
  Basis Set: (AUG-CC-PVTZ AUX)
    Blend: AUG-CC-PVTZ-JKFIT

    Orbital Energies [Eh]
    ---------------------

    Doubly Occupied:

       1A    -20.552323     2A    -20.546427     3A    -15.647477
       4A    -15.631349     5A    -11.424070     6A    -11.386723
       7A    -11.343567     8A    -11.261575     9A     -1.431404
      10A     -1.395736    11A     -1.306263    12A     -1.242135
      13A     -1.087328    14A     -0.927287    15A     -0.898893
      16A     -0.797887    17A     -0.759468    18A     -0.712378
      19A     -0.677239    20A     -0.664725    21A     -0.650148
      22A     -0.613692    23A     -0.601653    24A     -0.569459
      25A     -0.523858    26A     -0.485059    27A     -0.452446
      28A     -0.438170    29A     -0.373688

  @DF-RHF Final Energy:  -412.61461035806872

   => Energetics <=

    Nuclear Repulsion Energy =            354.8066349342913668
    One-Electron Energy =               -1266.0376395461707943
    Two-Electron Energy =                 498.6163942538106539
    Total Energy =                       -412.6146103580687168
  Basis Set: (AUG-CC-PVTZ AUX)
    Blend: AUG-CC-PVTZ-RI
    Molecular point group: c1

    Geometry (in Angstrom), charge = 0, multiplicity = 1:

       Center              X                  Y                   Z               Mass
    ------------   -----------------  -----------------  -----------------  -----------------
         N           -0.033510081940    -0.943785884772     0.024900243538    14.003074004430
         H           -0.046358081940    -1.960702884772     0.025026243538     1.007825032230
         C           -1.292201081940    -0.313242884772     0.024723243538    12.000000000000
         O           -2.323588081940    -0.978696884772     0.025186243538    15.994914619570
         C           -1.206023081940     1.141393115228     0.025003243538    12.000000000000
         H           -2.125913081940     1.710979115228     0.025187243538     1.007825032230
         C            0.003271918060     1.745150115228     0.025029243538    12.000000000000
         H            0.123166918060     2.823765115228     0.025156243538     1.007825032230
         N            1.174457818060     1.020980415228    -0.175008756462    14.003074004430
         H            2.076825918060     1.481404115228     0.025077243538     1.007825032230
         C            1.226326918060    -0.367555884772     0.024915243538    12.000000000000
         O            2.274746918060    -0.999248884772     0.025123243538    15.994914619570

  Basis Set: AUG-CC-PVTZ
    Blend: AUG-CC-PVTZ
  Basis Set: (AUG-CC-PVTZ AUX)
    Blend: AUG-CC-PVTZ-JKFIT
	 Reference Energy          =    -412.6146103580687168 [Eh]
	 Singles Energy            =      -0.0000000000000000 [Eh]
	 Same-Spin Energy          =      -0.4148224846426849 [Eh]
	 Opposite-Spin Energy      =      -1.2294531590373567 [Eh]
	 Correlation Energy        =      -1.6442756436800416 [Eh]
	 Total Energy              =    -414.2588860017487491 [Eh]

	 ================> DF-SCS-MP2 Energies <==================
	-----------------------------------------------------------
	 SCS Same-Spin Scale       =       0.3333333333333333 [-]
	 SCS Opposite-Spin Scale   =       1.2000000000000000 [-]
	 SCS Same-Spin Energy      =      -0.1382741615475616 [Eh]
	 SCS Opposite-Spin Energy  =      -1.4753437908448281 [Eh]
	 SCS Correlation Energy    =      -1.6136179523923897 [Eh]
	 SCS Total Energy          =    -414.2282283104611338 [Eh]
	-----------------------------------------------------------

  Dipole Moment: [D]
     X:     1.0752      Y:     4.0622      Z:     0.2395     Total:     4.2089

*** Psi4 exiting successfully. Buy a developer a beer!
