                               Psi4 1.3.2 release

  ==> Input File <==

--------------------------------------------------------------------------
#psi4
#
memory 32 gb

molecule  {
0 1
  N       -0.0337150    -0.9783820    -0.0001030
  H       -0.0465630    -1.9952990     0.0000230
  C       -1.2924060    -0.3478390    -0.0002800
  O       -2.3237930    -1.0132930     0.0001830
  C       -1.2062280     1.1067970     0.0000000
  H       -2.1261180     1.6763830     0.0001840
  C        0.0030438     1.7106132    -0.2999740
  H        0.1229620     2.7891690     0.0001530
  N        1.1742530     0.9863660    -0.0000120
  H        2.0766210     1.4468080     0.0000740
  C        1.2261220    -0.4021520    -0.0000880
  O        2.2745420    -1.0338450     0.0001200
units angstrom
no_reorient  #important for SAPT in psi4, default
symmetry c1  #important for SAPT in psi4, default
}

set PROPERTIES_ORIGIN ["COM"]
properties('MP2/aug-cc-pvtz', properties = ['dipole'])
--------------------------------------------------------------------------

    Molecular point group: c1
  Charge       = 0
  Multiplicity = 1
  Basis Set: AUG-CC-PVTZ
    Blend: AUG-CC-PVTZ
  Basis Set: (AUG-CC-PVTZ AUX)
    Blend: AUG-CC-PVTZ-JKFIT

    Orbital Energies [Eh]
    ---------------------

    Doubly Occupied:

       1A    -20.549158     2A    -20.547793     3A    -15.642990
       4A    -15.631648     5A    -11.420440     6A    -11.388699
       7A    -11.350788     8A    -11.273884     9A     -1.429807
      10A     -1.397214    11A     -1.302576    12A     -1.240905
      13A     -1.084198    14A     -0.926374    15A     -0.899375
      16A     -0.801220    17A     -0.755772    18A     -0.699199
      19A     -0.676738    20A     -0.663446    21A     -0.648602
      22A     -0.611264    23A     -0.599665    24A     -0.568062
      25A     -0.520493    26A     -0.481836    27A     -0.453748
      28A     -0.438095    29A     -0.368971

  @DF-RHF Final Energy:  -412.59041881287953

   => Energetics <=

    Nuclear Repulsion Energy =            354.3090668139639092
    One-Electron Energy =               -1265.0530499877454531
    Two-Electron Energy =                 498.1535643609020099
    Total Energy =                       -412.5904188128795340
  Basis Set: (AUG-CC-PVTZ AUX)
    Blend: AUG-CC-PVTZ-RI
    Molecular point group: c1

    Geometry (in Angstrom), charge = 0, multiplicity = 1:

       Center              X                  Y                   Z               Mass
    ------------   -----------------  -----------------  -----------------  -----------------
         N           -0.033507609331    -0.943789938640     0.032035873519    14.003074004430
         H           -0.046355609331    -1.960706938640     0.032161873519     1.007825032230
         C           -1.292198609331    -0.313246938640     0.031858873519    12.000000000000
         O           -2.323585609331    -0.978700938640     0.032321873519    15.994914619570
         C           -1.206020609331     1.141389061360     0.032138873519    12.000000000000
         H           -2.125910609331     1.710975061360     0.032322873519     1.007825032230
         C            0.003251190669     1.745205261360    -0.267835126481    12.000000000000
         H            0.123169390669     2.823761061360     0.032291873519     1.007825032230
         N            1.174460390669     1.020958061360     0.032126873519    14.003074004430
         H            2.076828390669     1.481400061360     0.032212873519     1.007825032230
         C            1.226329390669    -0.367559938640     0.032050873519    12.000000000000
         O            2.274749390669    -0.999252938640     0.032258873519    15.994914619570

  Basis Set: AUG-CC-PVTZ
    Blend: AUG-CC-PVTZ
  Basis Set: (AUG-CC-PVTZ AUX)
    Blend: AUG-CC-PVTZ-JKFIT
	 Reference Energy          =    -412.5904188128795340 [Eh]
	 Singles Energy            =      -0.0000000000000000 [Eh]
	 Same-Spin Energy          =      -0.4163221498647815 [Eh]
	 Opposite-Spin Energy      =      -1.2335316636256168 [Eh]
	 Correlation Energy        =      -1.6498538134903984 [Eh]
	 Total Energy              =    -414.2402726263699151 [Eh]

	 ================> DF-SCS-MP2 Energies <==================
	-----------------------------------------------------------
	 SCS Same-Spin Scale       =       0.3333333333333333 [-]
	 SCS Opposite-Spin Scale   =       1.2000000000000000 [-]
	 SCS Same-Spin Energy      =      -0.1387740499549271 [Eh]
	 SCS Opposite-Spin Energy  =      -1.4802379963507402 [Eh]
	 SCS Correlation Energy    =      -1.6190120463056674 [Eh]
	 SCS Total Energy          =    -414.2094308591852041 [Eh]
	-----------------------------------------------------------

  Dipole Moment: [D]
     X:     0.8825      Y:     4.0231      Z:     0.0510     Total:     4.1190

*** Psi4 exiting successfully. Buy a developer a beer!
