                               Psi4 1.3.2 release

  ==> Input File <==

--------------------------------------------------------------------------
#psi4
#
memory 32 gb

molecule  {
0 1
  N       -0.0337150    -0.9783820    -0.0001030
  H       -0.0465630    -1.9952990     0.0000230
  C       -1.2924060    -0.3478390    -0.0002800
  O       -2.3237930    -1.0132930     0.0001830
  C       -1.2062342     1.1067960    -0.0500000
  H       -2.1261180     1.6763830     0.0001840
  C        0.0030670     1.7105540     0.0000260
  H        0.1229620     2.7891690     0.0001530
  N        1.1742530     0.9863660    -0.0000120
  H        2.0766210     1.4468080     0.0000740
  C        1.2261220    -0.4021520    -0.0000880
  O        2.2745420    -1.0338450     0.0001200
units angstrom
no_reorient  #important for SAPT in psi4, default
symmetry c1  #important for SAPT in psi4, default
}

set PROPERTIES_ORIGIN ["COM"]
properties('MP2/aug-cc-pvtz', properties = ['dipole'])
--------------------------------------------------------------------------

    Molecular point group: c1
  Charge       = 0
  Multiplicity = 1
  Basis Set: AUG-CC-PVTZ
    Blend: AUG-CC-PVTZ
  Basis Set: (AUG-CC-PVTZ AUX)
    Blend: AUG-CC-PVTZ-JKFIT

    Orbital Energies [Eh]
    ---------------------

    Doubly Occupied:

       1A    -20.549631     2A    -20.544161     3A    -15.647407
       4A    -15.630774     5A    -11.423211     6A    -11.385362
       7A    -11.344884     8A    -11.259945     9A     -1.431793
      10A     -1.394100    11A     -1.310766    12A     -1.243699
      13A     -1.088217    14A     -0.932216    15A     -0.901035
      16A     -0.804808    17A     -0.762904    18A     -0.713528
      19A     -0.676959    20A     -0.666754    21A     -0.652308
      22A     -0.614540    23A     -0.600458    24A     -0.568851
      25A     -0.524947    26A     -0.484372    27A     -0.450669
      28A     -0.437426    29A     -0.370548

  @DF-RHF Final Energy:  -412.62040103211461

   => Energetics <=

    Nuclear Repulsion Energy =            355.3423894558927714
    One-Electron Energy =               -1267.0930358538007567
    Two-Electron Energy =                 499.1302453657933711
    Total Energy =                       -412.6204010321146143
  Basis Set: (AUG-CC-PVTZ AUX)
    Blend: AUG-CC-PVTZ-RI
    Molecular point group: c1

    Geometry (in Angstrom), charge = 0, multiplicity = 1:

       Center              X                  Y                   Z               Mass
    ------------   -----------------  -----------------  -----------------  -----------------
         N           -0.033509430316    -0.943783490210     0.005256681252    14.003074004430
         H           -0.046357430316    -1.960700490210     0.005382681252     1.007825032230
         C           -1.292200430316    -0.313240490210     0.005079681252    12.000000000000
         O           -2.323587430316    -0.978694490210     0.005542681252    15.994914619570
         C           -1.206028630316     1.141394509790    -0.044640318748    12.000000000000
         H           -2.125912430316     1.710981509790     0.005543681252     1.007825032230
         C            0.003272569684     1.745152509790     0.005385681252    12.000000000000
         H            0.123167569684     2.823767509790     0.005512681252     1.007825032230
         N            1.174458569684     1.020964509790     0.005347681252    14.003074004430
         H            2.076826569684     1.481406509790     0.005433681252     1.007825032230
         C            1.226327569684    -0.367553490210     0.005271681252    12.000000000000
         O            2.274747569684    -0.999246490210     0.005479681252    15.994914619570

  Basis Set: AUG-CC-PVTZ
    Blend: AUG-CC-PVTZ
  Basis Set: (AUG-CC-PVTZ AUX)
    Blend: AUG-CC-PVTZ-JKFIT
	 Reference Energy          =    -412.6204010321146143 [Eh]
	 Singles Energy            =      -0.0000000000000000 [Eh]
	 Same-Spin Energy          =      -0.4147500926940142 [Eh]
	 Opposite-Spin Energy      =      -1.2283984620965256 [Eh]
	 Correlation Energy        =      -1.6431485547905398 [Eh]
	 Total Energy              =    -414.2635495869051283 [Eh]

	 ================> DF-SCS-MP2 Energies <==================
	-----------------------------------------------------------
	 SCS Same-Spin Scale       =       0.3333333333333333 [-]
	 SCS Opposite-Spin Scale   =       1.2000000000000000 [-]
	 SCS Same-Spin Energy      =      -0.1382500308980047 [Eh]
	 SCS Opposite-Spin Energy  =      -1.4740781545158306 [Eh]
	 SCS Correlation Energy    =      -1.6123281854138354 [Eh]
	 SCS Total Energy          =    -414.2327292175284583 [Eh]
	-----------------------------------------------------------

  Dipole Moment: [D]
     X:     1.1761      Y:     4.1892      Z:     0.0433     Total:     4.3514

*** Psi4 exiting successfully. Buy a developer a beer!
