                               Psi4 1.3.2 release

  ==> Input File <==

--------------------------------------------------------------------------
#psi4
#
memory 32 gb

molecule  {
0 1
  N       -0.0337150    -0.9783820    -0.0001030
  H       -0.0465630    -1.9952990     0.0000230
  C       -1.2924060    -0.3478390    -0.0002800
  O       -2.3237930    -1.0132930     0.0001830
  C       -1.2062405     1.1067949    -0.1000000
  H       -2.1261180     1.6763830     0.0001840
  C        0.0030670     1.7105540     0.0000260
  H        0.1229620     2.7891690     0.0001530
  N        1.1742530     0.9863660    -0.0000120
  H        2.0766210     1.4468080     0.0000740
  C        1.2261220    -0.4021520    -0.0000880
  O        2.2745420    -1.0338450     0.0001200
units angstrom
no_reorient  #important for SAPT in psi4, default
symmetry c1  #important for SAPT in psi4, default
}

set PROPERTIES_ORIGIN ["COM"]
properties('MP2/aug-cc-pvtz', properties = ['dipole'])
--------------------------------------------------------------------------

    Molecular point group: c1
  Charge       = 0
  Multiplicity = 1
  Basis Set: AUG-CC-PVTZ
    Blend: AUG-CC-PVTZ
  Basis Set: (AUG-CC-PVTZ AUX)
    Blend: AUG-CC-PVTZ-JKFIT

    Orbital Energies [Eh]
    ---------------------

    Doubly Occupied:

       1A    -20.549881     2A    -20.544192     3A    -15.647763
       4A    -15.630784     5A    -11.423404     6A    -11.385505
       7A    -11.345726     8A    -11.260474     9A     -1.431952
      10A     -1.394081    11A     -1.310947    12A     -1.243787
      13A     -1.087548    14A     -0.932085    15A     -0.900925
      16A     -0.804530    17A     -0.762325    18A     -0.713719
      19A     -0.677006    20A     -0.667009    21A     -0.651728
      22A     -0.614121    23A     -0.599426    24A     -0.568562
      25A     -0.524792    26A     -0.484446    27A     -0.450504
      28A     -0.437464    29A     -0.370576

  @DF-RHF Final Energy:  -412.61855782260790

   => Energetics <=

    Nuclear Repulsion Energy =            355.2558284600369802
    One-Electron Energy =               -1266.9182502377962010
    Two-Electron Energy =                 499.0438639551512665
    Total Energy =                       -412.6185578226078974
  Basis Set: (AUG-CC-PVTZ AUX)
    Blend: AUG-CC-PVTZ-RI
    Molecular point group: c1

    Geometry (in Angstrom), charge = 0, multiplicity = 1:

       Center              X                  Y                   Z               Mass
    ------------   -----------------  -----------------  -----------------  -----------------
         N           -0.033508755480    -0.943783372382     0.010612519706    14.003074004430
         H           -0.046356755480    -1.960700372382     0.010738519706     1.007825032230
         C           -1.292199755480    -0.313240372382     0.010435519706    12.000000000000
         O           -2.323586755480    -0.978694372382     0.010898519706    15.994914619570
         C           -1.206034255480     1.141393527618    -0.089284480294    12.000000000000
         H           -2.125911755480     1.710981627618     0.010899519706     1.007825032230
         C            0.003273244520     1.745152627618     0.010741519706    12.000000000000
         H            0.123168244520     2.823767627618     0.010868519706     1.007825032230
         N            1.174459244520     1.020964627618     0.010703519706    14.003074004430
         H            2.076827244520     1.481406627618     0.010789519706     1.007825032230
         C            1.226328244520    -0.367553372382     0.010627519706    12.000000000000
         O            2.274748244520    -0.999246372382     0.010835519706    15.994914619570

  Basis Set: AUG-CC-PVTZ
    Blend: AUG-CC-PVTZ
  Basis Set: (AUG-CC-PVTZ AUX)
    Blend: AUG-CC-PVTZ-JKFIT
	 Reference Energy          =    -412.6185578226078974 [Eh]
	 Singles Energy            =      -0.0000000000000000 [Eh]
	 Same-Spin Energy          =      -0.4148356847162206 [Eh]
	 Opposite-Spin Energy      =      -1.2285930237915648 [Eh]
	 Correlation Energy        =      -1.6434287085077854 [Eh]
	 Total Energy              =    -414.2619865311156673 [Eh]

	 ================> DF-SCS-MP2 Energies <==================
	-----------------------------------------------------------
	 SCS Same-Spin Scale       =       0.3333333333333333 [-]
	 SCS Opposite-Spin Scale   =       1.2000000000000000 [-]
	 SCS Same-Spin Energy      =      -0.1382785615720735 [Eh]
	 SCS Opposite-Spin Energy  =      -1.4743116285498776 [Eh]
	 SCS Correlation Energy    =      -1.6125901901219510 [Eh]
	 SCS Total Energy          =    -414.2311480127298751 [Eh]
	-----------------------------------------------------------

  Dipole Moment: [D]
     X:     1.1899      Y:     4.1787      Z:     0.0873     Total:     4.3457

*** Psi4 exiting successfully. Buy a developer a beer!
