                               Psi4 1.3.2 release

  ==> Input File <==

--------------------------------------------------------------------------
#psi4
#
memory 32 gb

molecule  {
0 1
  N       -0.0337150    -0.9783820    -0.0001030
  H       -0.0465630    -1.9952990     0.0000230
  C       -1.2924060    -0.3478390    -0.0002800
  O       -2.3237930    -1.0132930     0.0001830
  C       -1.2062280     1.1067970     0.0000000
  H       -2.1261180     1.6763830     0.0001840
  C        0.0030670     1.7105540     0.0000260
  H        0.1229620     2.7891690     0.0001530
  N        1.1742530     0.9863660    -0.0000120
  H        2.0766210     1.4468080     0.0000740
  C        1.2261367    -0.4021777    -0.2000880
  O        2.2745420    -1.0338450     0.0001200
units angstrom
no_reorient  #important for SAPT in psi4, default
symmetry c1  #important for SAPT in psi4, default
}

set PROPERTIES_ORIGIN ["COM"]
properties('MP2/aug-cc-pvtz', properties = ['dipole'])
--------------------------------------------------------------------------

    Molecular point group: c1
  Charge       = 0
  Multiplicity = 1
  Basis Set: AUG-CC-PVTZ
    Blend: AUG-CC-PVTZ
  Basis Set: (AUG-CC-PVTZ AUX)
    Blend: AUG-CC-PVTZ-JKFIT

    Orbital Energies [Eh]
    ---------------------

    Doubly Occupied:

       1A    -20.552921     2A    -20.543920     3A    -15.647848
       4A    -15.631555     5A    -11.428903     6A    -11.384442
       7A    -11.343620     8A    -11.259668     9A     -1.425765
      10A     -1.392400    11A     -1.305393    12A     -1.240123
      13A     -1.086751    14A     -0.929333    15A     -0.898092
      16A     -0.803654    17A     -0.758790    18A     -0.712684
      19A     -0.676019    20A     -0.662322    21A     -0.649313
      22A     -0.613952    23A     -0.600129    24A     -0.566737
      25A     -0.521900    26A     -0.482438    27A     -0.450953
      28A     -0.434453    29A     -0.369652

  @DF-RHF Final Energy:  -412.60071825179625

   => Energetics <=

    Nuclear Repulsion Energy =            354.6767398828037017
    One-Electron Energy =               -1265.8074594443439764
    Two-Electron Energy =                 498.5300013097439660
    Total Energy =                       -412.6007182517962519
  Basis Set: (AUG-CC-PVTZ AUX)
    Blend: AUG-CC-PVTZ-RI
    Molecular point group: c1

    Geometry (in Angstrom), charge = 0, multiplicity = 1:

       Center              X                  Y                   Z               Mass
    ------------   -----------------  -----------------  -----------------  -----------------
         N           -0.033511669056    -0.943780844426     0.021324196612    14.003074004430
         H           -0.046359669056    -1.960697844426     0.021450196612     1.007825032230
         C           -1.292202669056    -0.313237844426     0.021147196612    12.000000000000
         O           -2.323589669056    -0.978691844426     0.021610196612    15.994914619570
         C           -1.206024669056     1.141398155574     0.021427196612    12.000000000000
         H           -2.125914669056     1.710984155574     0.021611196612     1.007825032230
         C            0.003270330944     1.745155155574     0.021453196612    12.000000000000
         H            0.123165330944     2.823770155574     0.021580196612     1.007825032230
         N            1.174456330944     1.020967155574     0.021415196612    14.003074004430
         H            2.076824330944     1.481409155574     0.021501196612     1.007825032230
         C            1.226340030944    -0.367576544426    -0.178660803388    12.000000000000
         O            2.274745330944    -0.999243844426     0.021547196612    15.994914619570

  Basis Set: AUG-CC-PVTZ
    Blend: AUG-CC-PVTZ
  Basis Set: (AUG-CC-PVTZ AUX)
    Blend: AUG-CC-PVTZ-JKFIT
	 Reference Energy          =    -412.6007182517962519 [Eh]
	 Singles Energy            =      -0.0000000000000000 [Eh]
	 Same-Spin Energy          =      -0.4159811942613170 [Eh]
	 Opposite-Spin Energy      =      -1.2314898615078116 [Eh]
	 Correlation Energy        =      -1.6474710557691286 [Eh]
	 Total Energy              =    -414.2481893075653829 [Eh]

	 ================> DF-SCS-MP2 Energies <==================
	-----------------------------------------------------------
	 SCS Same-Spin Scale       =       0.3333333333333333 [-]
	 SCS Opposite-Spin Scale   =       1.2000000000000000 [-]
	 SCS Same-Spin Energy      =      -0.1386603980871057 [Eh]
	 SCS Opposite-Spin Energy  =      -1.4777878338093740 [Eh]
	 SCS Correlation Energy    =      -1.6164482318964797 [Eh]
	 SCS Total Energy          =    -414.2171664836927221 [Eh]
	-----------------------------------------------------------

  Dipole Moment: [D]
     X:     1.1963      Y:     4.1668      Z:    -0.2938     Total:     4.3450

*** Psi4 exiting successfully. Buy a developer a beer!
