                               Psi4 1.3.2 release

  ==> Input File <==

--------------------------------------------------------------------------
#psi4
#
memory 32 gb

molecule  {
0 1
  N       -0.0337150    -0.9783820    -0.0001030
  H       -0.0465630    -1.9952990     0.0000230
  C       -1.2924060    -0.3478390    -0.0002800
  O       -2.3237930    -1.0132930     0.0001830
  C       -1.2062280     1.1067970     0.0000000
  H       -2.1261180     1.6763830     0.0001840
  C        0.0030670     1.7105540     0.0000260
  H        0.1229620     2.7891690     0.0001530
  N        1.1742530     0.9863660    -0.0000120
  H        2.0766210     1.4468080     0.0000740
  C        1.2261317    -0.4021302    -0.3000880
  O        2.2745420    -1.0338450     0.0001200
units angstrom
no_reorient  #important for SAPT in psi4, default
symmetry c1  #important for SAPT in psi4, default
}

set PROPERTIES_ORIGIN ["COM"]
properties('MP2/aug-cc-pvtz', properties = ['dipole'])
--------------------------------------------------------------------------

    Molecular point group: c1
  Charge       = 0
  Multiplicity = 1
  Basis Set: AUG-CC-PVTZ
    Blend: AUG-CC-PVTZ
  Basis Set: (AUG-CC-PVTZ AUX)
    Blend: AUG-CC-PVTZ-JKFIT

    Orbital Energies [Eh]
    ---------------------

    Doubly Occupied:

       1A    -20.557127     2A    -20.543650     3A    -15.648429
       4A    -15.632374     5A    -11.435343     6A    -11.383396
       7A    -11.342443     8A    -11.259589     9A     -1.419018
      10A     -1.389884    11A     -1.299185    12A     -1.235898
      13A     -1.084743    14A     -0.925860    15A     -0.894513
      16A     -0.802132    17A     -0.753595    18A     -0.711710
      19A     -0.674677    20A     -0.657424    21A     -0.645240
      22A     -0.612903    23A     -0.599219    24A     -0.564148
      25A     -0.518342    26A     -0.480390    27A     -0.450925
      28A     -0.431255    29A     -0.368579

  @DF-RHF Final Energy:  -412.57526302023365

   => Energetics <=

    Nuclear Repulsion Energy =            353.8389145790894759
    One-Electron Energy =               -1264.1843743268727849
    Two-Electron Energy =                 497.7701967275496031
    Total Energy =                       -412.5752630202336491
  Basis Set: (AUG-CC-PVTZ AUX)
    Blend: AUG-CC-PVTZ-RI
    Molecular point group: c1

    Geometry (in Angstrom), charge = 0, multiplicity = 1:

       Center              X                  Y                   Z               Mass
    ------------   -----------------  -----------------  -----------------  -----------------
         N           -0.033511133472    -0.943785932472     0.032035873519    14.003074004430
         H           -0.046359133472    -1.960702932472     0.032161873519     1.007825032230
         C           -1.292202133472    -0.313242932472     0.031858873519    12.000000000000
         O           -2.323589133472    -0.978696932472     0.032321873519    15.994914619570
         C           -1.206024133472     1.141393067528     0.032138873519    12.000000000000
         H           -2.125914133472     1.710979067528     0.032322873519     1.007825032230
         C            0.003270866528     1.745150067528     0.032164873519    12.000000000000
         H            0.123165866528     2.823765067528     0.032291873519     1.007825032230
         N            1.174456866528     1.020962067528     0.032126873519    14.003074004430
         H            2.076824866528     1.481404067528     0.032212873519     1.007825032230
         C            1.226335566528    -0.367534132472    -0.267949126481    12.000000000000
         O            2.274745866528    -0.999248932472     0.032258873519    15.994914619570

  Basis Set: AUG-CC-PVTZ
    Blend: AUG-CC-PVTZ
  Basis Set: (AUG-CC-PVTZ AUX)
    Blend: AUG-CC-PVTZ-JKFIT
	 Reference Energy          =    -412.5752630202336491 [Eh]
	 Singles Energy            =      -0.0000000000000000 [Eh]
	 Same-Spin Energy          =      -0.4175336940595971 [Eh]
	 Opposite-Spin Energy      =      -1.2357131023035781 [Eh]
	 Correlation Energy        =      -1.6532467963631752 [Eh]
	 Total Energy              =    -414.2285098165968407 [Eh]

	 ================> DF-SCS-MP2 Energies <==================
	-----------------------------------------------------------
	 SCS Same-Spin Scale       =       0.3333333333333333 [-]
	 SCS Opposite-Spin Scale   =       1.2000000000000000 [-]
	 SCS Same-Spin Energy      =      -0.1391778980198657 [Eh]
	 SCS Opposite-Spin Energy  =      -1.4828557227642938 [Eh]
	 SCS Correlation Energy    =      -1.6220336207841595 [Eh]
	 SCS Total Energy          =    -414.1972966410178287 [Eh]
	-----------------------------------------------------------

  Dipole Moment: [D]
     X:     1.2261      Y:     4.1369      Z:    -0.4174     Total:     4.3349

*** Psi4 exiting successfully. Buy a developer a beer!
