                               Psi4 1.3.2 release

  ==> Input File <==

--------------------------------------------------------------------------
#psi4
#
memory 32 gb

molecule  {
0 1
  N       -0.0337150    -0.9783820    -0.0001030
  H       -0.0465630    -1.9952990     0.0000230
  C       -1.2924060    -0.3478390    -0.0002800
  O       -2.3237930    -1.0132930     0.0001830
  C       -1.2062280     1.1067970     0.0000000
  H       -2.1261180     1.6763830     0.0001840
  C        0.0030670     1.7105540     0.0000260
  H        0.1229620     2.7891690     0.0001530
  N        1.1742530     0.9863660    -0.0000120
  H        2.0766210     1.4468080     0.0000740
  C        1.2261285    -0.4021375    -0.2000880
  O        2.2745420    -1.0338450     0.0001200
units angstrom
no_reorient  #important for SAPT in psi4, default
symmetry c1  #important for SAPT in psi4, default
}

set PROPERTIES_ORIGIN ["COM"]
properties('MP2/aug-cc-pvtz', properties = ['dipole'])
--------------------------------------------------------------------------

    Molecular point group: c1
  Charge       = 0
  Multiplicity = 1
  Basis Set: AUG-CC-PVTZ
    Blend: AUG-CC-PVTZ
  Basis Set: (AUG-CC-PVTZ AUX)
    Blend: AUG-CC-PVTZ-JKFIT

    Orbital Energies [Eh]
    ---------------------

    Doubly Occupied:

       1A    -20.552913     2A    -20.543920     3A    -15.647854
       4A    -15.631555     5A    -11.428902     6A    -11.384442
       7A    -11.343622     8A    -11.259673     9A     -1.425756
      10A     -1.392396    11A     -1.305395    12A     -1.240122
      13A     -1.086756    14A     -0.929341    15A     -0.898091
      16A     -0.803659    17A     -0.758794    18A     -0.712687
      19A     -0.676018    20A     -0.662322    21A     -0.649308
      22A     -0.613952    23A     -0.600131    24A     -0.566738
      25A     -0.521895    26A     -0.482434    27A     -0.450951
      28A     -0.434449    29A     -0.369657

  @DF-RHF Final Energy:  -412.60071648713574

   => Energetics <=

    Nuclear Repulsion Energy =            354.6768749090193751
    One-Electron Energy =               -1265.8077174401328193
    Two-Electron Energy =                 498.5301260439777025
    Total Energy =                       -412.6007164871357418
  Basis Set: (AUG-CC-PVTZ AUX)
    Blend: AUG-CC-PVTZ-RI
    Molecular point group: c1

    Geometry (in Angstrom), charge = 0, multiplicity = 1:

       Center              X                  Y                   Z               Mass
    ------------   -----------------  -----------------  -----------------  -----------------
         N           -0.033510790699    -0.943785150520     0.021324196612    14.003074004430
         H           -0.046358790699    -1.960702150520     0.021450196612     1.007825032230
         C           -1.292201790699    -0.313242150520     0.021147196612    12.000000000000
         O           -2.323588790699    -0.978696150520     0.021610196612    15.994914619570
         C           -1.206023790699     1.141393849480     0.021427196612    12.000000000000
         H           -2.125913790699     1.710979849480     0.021611196612     1.007825032230
         C            0.003271209301     1.745150849480     0.021453196612    12.000000000000
         H            0.123166209301     2.823765849480     0.021580196612     1.007825032230
         N            1.174457209301     1.020962849480     0.021415196612    14.003074004430
         H            2.076825209301     1.481404849480     0.021501196612     1.007825032230
         C            1.226332709301    -0.367540650520    -0.178660803388    12.000000000000
         O            2.274746209301    -0.999248150520     0.021547196612    15.994914619570

  Basis Set: AUG-CC-PVTZ
    Blend: AUG-CC-PVTZ
  Basis Set: (AUG-CC-PVTZ AUX)
    Blend: AUG-CC-PVTZ-JKFIT
	 Reference Energy          =    -412.6007164871357418 [Eh]
	 Singles Energy            =      -0.0000000000000000 [Eh]
	 Same-Spin Energy          =      -0.4159815306168337 [Eh]
	 Opposite-Spin Energy      =      -1.2314905544333379 [Eh]
	 Correlation Energy        =      -1.6474720850501716 [Eh]
	 Total Energy              =    -414.2481885721859385 [Eh]

	 ================> DF-SCS-MP2 Energies <==================
	-----------------------------------------------------------
	 SCS Same-Spin Scale       =       0.3333333333333333 [-]
	 SCS Opposite-Spin Scale   =       1.2000000000000000 [-]
	 SCS Same-Spin Energy      =      -0.1386605102056112 [Eh]
	 SCS Opposite-Spin Energy  =      -1.4777886653200054 [Eh]
	 SCS Correlation Energy    =      -1.6164491755256167 [Eh]
	 SCS Total Energy          =    -414.2171656626613867 [Eh]
	-----------------------------------------------------------

  Dipole Moment: [D]
     X:     1.1962      Y:     4.1671      Z:    -0.2938     Total:     4.3453

*** Psi4 exiting successfully. Buy a developer a beer!
