                               Psi4 1.3.2 release

  ==> Input File <==

--------------------------------------------------------------------------
#psi4
#
memory 32 gb

molecule  {
0 1
  N       -0.0337150    -0.9783820    -0.0001030
  H       -0.0465630    -1.9952990     0.0000230
  C       -1.2924060    -0.3478390    -0.0002800
  O       -2.3237930    -1.0132930     0.0001830
  C       -1.2062529     1.1067929    -0.2000000
  H       -2.1261180     1.6763830     0.0001840
  C        0.0030670     1.7105540     0.0000260
  H        0.1229620     2.7891690     0.0001530
  N        1.1742530     0.9863660    -0.0000120
  H        2.0766210     1.4468080     0.0000740
  C        1.2261220    -0.4021520    -0.0000880
  O        2.2745420    -1.0338450     0.0001200
units angstrom
no_reorient  #important for SAPT in psi4, default
symmetry c1  #important for SAPT in psi4, default
}

set PROPERTIES_ORIGIN ["COM"]
properties('MP2/aug-cc-pvtz', properties = ['dipole'])
--------------------------------------------------------------------------

    Molecular point group: c1
  Charge       = 0
  Multiplicity = 1
  Basis Set: AUG-CC-PVTZ
    Blend: AUG-CC-PVTZ
  Basis Set: (AUG-CC-PVTZ AUX)
    Blend: AUG-CC-PVTZ-JKFIT

    Orbital Energies [Eh]
    ---------------------

    Doubly Occupied:

       1A    -20.550885     2A    -20.544337     3A    -15.649193
       4A    -15.630836     5A    -11.424173     6A    -11.386056
       7A    -11.349029     8A    -11.262571     9A     -1.432600
      10A     -1.394015    11A     -1.311681    12A     -1.244143
      13A     -1.084874    14A     -0.931619    15A     -0.900504
      16A     -0.803532    17A     -0.760103    18A     -0.714471
      19A     -0.677197    20A     -0.667753    21A     -0.649997
      22A     -0.612673    23A     -0.594887    24A     -0.567412
      25A     -0.524195    26A     -0.484762    27A     -0.449820
      28A     -0.437617    29A     -0.370735

  @DF-RHF Final Energy:  -412.61105994128712

   => Energetics <=

    Nuclear Repulsion Energy =            354.9139218851279907
    One-Electron Energy =               -1266.2266228049168149
    Two-Electron Energy =                 498.7016409785016435
    Total Energy =                       -412.6110599412871238
  Basis Set: (AUG-CC-PVTZ AUX)
    Blend: AUG-CC-PVTZ-RI
    Molecular point group: c1

    Geometry (in Angstrom), charge = 0, multiplicity = 1:

       Center              X                  Y                   Z               Mass
    ------------   -----------------  -----------------  -----------------  -----------------
         N           -0.033507427232    -0.943783158148     0.021324196612    14.003074004430
         H           -0.046355427232    -1.960700158148     0.021450196612     1.007825032230
         C           -1.292198427232    -0.313240158148     0.021147196612    12.000000000000
         O           -2.323585427232    -0.978694158148     0.021610196612    15.994914619570
         C           -1.206045327232     1.141391741852    -0.178572803388    12.000000000000
         H           -2.125910427232     1.710981841852     0.021611196612     1.007825032230
         C            0.003274572768     1.745152841852     0.021453196612    12.000000000000
         H            0.123169572768     2.823767841852     0.021580196612     1.007825032230
         N            1.174460572768     1.020964841852     0.021415196612    14.003074004430
         H            2.076828572768     1.481406841852     0.021501196612     1.007825032230
         C            1.226329572768    -0.367553158148     0.021339196612    12.000000000000
         O            2.274749572768    -0.999246158148     0.021547196612    15.994914619570

  Basis Set: AUG-CC-PVTZ
    Blend: AUG-CC-PVTZ
  Basis Set: (AUG-CC-PVTZ AUX)
    Blend: AUG-CC-PVTZ-JKFIT
	 Reference Energy          =    -412.6110599412871238 [Eh]
	 Singles Energy            =      -0.0000000000000000 [Eh]
	 Same-Spin Energy          =      -0.4151812825622270 [Eh]
	 Opposite-Spin Energy      =      -1.2295439865442626 [Eh]
	 Correlation Energy        =      -1.6447252691064895 [Eh]
	 Total Energy              =    -414.2557852103936398 [Eh]

	 ================> DF-SCS-MP2 Energies <==================
	-----------------------------------------------------------
	 SCS Same-Spin Scale       =       0.3333333333333333 [-]
	 SCS Opposite-Spin Scale   =       1.2000000000000000 [-]
	 SCS Same-Spin Energy      =      -0.1383937608540756 [Eh]
	 SCS Opposite-Spin Energy  =      -1.4754527838531151 [Eh]
	 SCS Correlation Energy    =      -1.6138465447071908 [Eh]
	 SCS Total Energy          =    -414.2249064859943246 [Eh]
	-----------------------------------------------------------

  Dipole Moment: [D]
     X:     1.2441      Y:     4.1367      Z:     0.1775     Total:     4.3234

*** Psi4 exiting successfully. Buy a developer a beer!
