                               Psi4 1.3.2 release

  ==> Input File <==

--------------------------------------------------------------------------
#psi4
#
memory 32 gb

molecule  {
0 1
  N       -0.0337150    -0.9783820    -0.0001030
  H       -0.0465630    -1.9952990     0.0000230
  C       -1.2924060    -0.3478390    -0.0002800
  O       -2.3237930    -1.0132930     0.0001830
  C       -1.2062280     1.1067970     0.0000000
  H       -2.1261180     1.6763830     0.0001840
  C        0.0030670     1.7105540     0.0000260
  H        0.1229620     2.7891690     0.0001530
  N        1.1742530     0.9863660    -0.0000120
  H        2.0766210     1.4468080     0.0000740
  C        1.2261220    -0.4021520    -0.0000880
  O        2.2745516    -1.0338463    -0.0998800
units angstrom
no_reorient  #important for SAPT in psi4, default
symmetry c1  #important for SAPT in psi4, default
}

set PROPERTIES_ORIGIN ["COM"]
properties('MP2/aug-cc-pvtz', properties = ['dipole'])
--------------------------------------------------------------------------

    Molecular point group: c1
  Charge       = 0
  Multiplicity = 1
  Basis Set: AUG-CC-PVTZ
    Blend: AUG-CC-PVTZ
  Basis Set: (AUG-CC-PVTZ AUX)
    Blend: AUG-CC-PVTZ-JKFIT

    Orbital Energies [Eh]
    ---------------------

    Doubly Occupied:

       1A    -20.549413     2A    -20.544346     3A    -15.647686
       4A    -15.631170     5A    -11.423837     6A    -11.385544
       7A    -11.344811     8A    -11.260014     9A     -1.430162
      10A     -1.393828    11A     -1.310210    12A     -1.243857
      13A     -1.088659    14A     -0.932455    15A     -0.901334
      16A     -0.805179    17A     -0.763059    18A     -0.713642
      19A     -0.676859    20A     -0.666409    21A     -0.651680
      22A     -0.614682    23A     -0.600780    24A     -0.568858
      25A     -0.524555    26A     -0.483844    27A     -0.450847
      28A     -0.437165    29A     -0.370652

  @DF-RHF Final Energy:  -412.61973555073968

   => Energetics <=

    Nuclear Repulsion Energy =            355.2662077147087416
    One-Electron Energy =               -1266.9408153248582494
    Two-Electron Energy =                 499.0548720594097745
    Total Energy =                       -412.6197355507396765
  Basis Set: (AUG-CC-PVTZ AUX)
    Blend: AUG-CC-PVTZ-RI
    Molecular point group: c1

    Geometry (in Angstrom), charge = 0, multiplicity = 1:

       Center              X                  Y                   Z               Mass
    ------------   -----------------  -----------------  -----------------  -----------------
         N           -0.033511465098    -0.943783411717     0.014178539262    14.003074004430
         H           -0.046359465098    -1.960700411717     0.014304539262     1.007825032230
         C           -1.292202465098    -0.313240411717     0.014001539262    12.000000000000
         O           -2.323589465098    -0.978694411717     0.014464539262    15.994914619570
         C           -1.206024465098     1.141395588283     0.014281539262    12.000000000000
         H           -2.125914465098     1.710981588283     0.014465539262     1.007825032230
         C            0.003270534902     1.745152588283     0.014307539262    12.000000000000
         H            0.123165534902     2.823767588283     0.014434539262     1.007825032230
         N            1.174456534902     1.020964588283     0.014269539262    14.003074004430
         H            2.076824534902     1.481406588283     0.014355539262     1.007825032230
         C            1.226325534902    -0.367553411717     0.014193539262    12.000000000000
         O            2.274755134902    -0.999247711717    -0.085598460738    15.994914619570

  Basis Set: AUG-CC-PVTZ
    Blend: AUG-CC-PVTZ
  Basis Set: (AUG-CC-PVTZ AUX)
    Blend: AUG-CC-PVTZ-JKFIT
	 Reference Energy          =    -412.6197355507396765 [Eh]
	 Singles Energy            =      -0.0000000000000000 [Eh]
	 Same-Spin Energy          =      -0.4148548282339405 [Eh]
	 Opposite-Spin Energy      =      -1.2286381045828207 [Eh]
	 Correlation Energy        =      -1.6434929328167613 [Eh]
	 Total Energy              =    -414.2632284835564178 [Eh]

	 ================> DF-SCS-MP2 Energies <==================
	-----------------------------------------------------------
	 SCS Same-Spin Scale       =       0.3333333333333333 [-]
	 SCS Opposite-Spin Scale   =       1.2000000000000000 [-]
	 SCS Same-Spin Energy      =      -0.1382849427446468 [Eh]
	 SCS Opposite-Spin Energy  =      -1.4743657254993849 [Eh]
	 SCS Correlation Energy    =      -1.6126506682440318 [Eh]
	 SCS Total Energy          =    -414.2323862189837200 [Eh]
	-----------------------------------------------------------

  Dipole Moment: [D]
     X:     1.1541      Y:     4.2028      Z:     0.1822     Total:     4.3621

*** Psi4 exiting successfully. Buy a developer a beer!
