                               Psi4 1.3.2 release

  ==> Input File <==

--------------------------------------------------------------------------
#psi4
#
memory 32 gb

molecule  {
0 1
  N       -0.0337150    -0.9783820    -0.0001030
  H       -0.0465630    -1.9952990     0.0000230
  C       -1.2924060    -0.3478390    -0.0002800
  O       -2.3237930    -1.0132930     0.0001830
  C       -1.2062280     1.1067970     0.0000000
  H       -2.1261180     1.6763830     0.0001840
  C        0.0030477     1.7106033    -0.2499740
  H        0.1229620     2.7891690     0.0001530
  N        1.1742530     0.9863660    -0.0000120
  H        2.0766210     1.4468080     0.0000740
  C        1.2261220    -0.4021520    -0.0000880
  O        2.2745420    -1.0338450     0.0001200
units angstrom
no_reorient  #important for SAPT in psi4, default
symmetry c1  #important for SAPT in psi4, default
}

set PROPERTIES_ORIGIN ["COM"]
properties('MP2/aug-cc-pvtz', properties = ['dipole'])
--------------------------------------------------------------------------

    Molecular point group: c1
  Charge       = 0
  Multiplicity = 1
  Basis Set: AUG-CC-PVTZ
    Blend: AUG-CC-PVTZ
  Basis Set: (AUG-CC-PVTZ AUX)
    Blend: AUG-CC-PVTZ-JKFIT

    Orbital Energies [Eh]
    ---------------------

    Doubly Occupied:

       1A    -20.548307     2A    -20.547591     3A    -15.644342
       4A    -15.631359     5A    -11.421243     6A    -11.387627
       7A    -11.349055     8A    -11.269593     9A     -1.430329
      10A     -1.396260    11A     -1.304913    12A     -1.241815
      13A     -1.085427    14A     -0.928059    15A     -0.899883
      16A     -0.802074    17A     -0.757998    18A     -0.703261
      19A     -0.676721    20A     -0.664305    21A     -0.649658
      22A     -0.612439    23A     -0.600314    24A     -0.568317
      25A     -0.521784    26A     -0.482586    27A     -0.452838
      28A     -0.437870    29A     -0.369380

  @DF-RHF Final Energy:  -412.59982092605946

   => Energetics <=

    Nuclear Repulsion Energy =            354.6265050192339459
    One-Electron Energy =               -1265.6819524378106507
    Two-Electron Energy =                 498.4556264925172400
    Total Energy =                       -412.5998209260594649
  Basis Set: (AUG-CC-PVTZ AUX)
    Blend: AUG-CC-PVTZ-RI
    Molecular point group: c1

    Geometry (in Angstrom), charge = 0, multiplicity = 1:

       Center              X                  Y                   Z               Mass
    ------------   -----------------  -----------------  -----------------  -----------------
         N           -0.033508027086    -0.943788878184     0.026680035066    14.003074004430
         H           -0.046356027086    -1.960705878184     0.026806035066     1.007825032230
         C           -1.292199027086    -0.313245878184     0.026503035066    12.000000000000
         O           -2.323586027086    -0.978699878184     0.026966035066    15.994914619570
         C           -1.206021027086     1.141390121816     0.026783035066    12.000000000000
         H           -2.125911027086     1.710976121816     0.026967035066     1.007825032230
         C            0.003254672914     1.745196421816    -0.223190964934    12.000000000000
         H            0.123168972914     2.823762121816     0.026936035066     1.007825032230
         N            1.174459972914     1.020959121816     0.026771035066    14.003074004430
         H            2.076827972914     1.481401121816     0.026857035066     1.007825032230
         C            1.226328972914    -0.367558878184     0.026695035066    12.000000000000
         O            2.274748972914    -0.999251878184     0.026903035066    15.994914619570

  Basis Set: AUG-CC-PVTZ
    Blend: AUG-CC-PVTZ
  Basis Set: (AUG-CC-PVTZ AUX)
    Blend: AUG-CC-PVTZ-JKFIT
	 Reference Energy          =    -412.5998209260594649 [Eh]
	 Singles Energy            =      -0.0000000000000000 [Eh]
	 Same-Spin Energy          =      -0.4158433831762024 [Eh]
	 Opposite-Spin Energy      =      -1.2318682635913167 [Eh]
	 Correlation Energy        =      -1.6477116467675192 [Eh]
	 Total Energy              =    -414.2475325728269695 [Eh]

	 ================> DF-SCS-MP2 Energies <==================
	-----------------------------------------------------------
	 SCS Same-Spin Scale       =       0.3333333333333333 [-]
	 SCS Opposite-Spin Scale   =       1.2000000000000000 [-]
	 SCS Same-Spin Energy      =      -0.1386144610587341 [Eh]
	 SCS Opposite-Spin Energy  =      -1.4782419163095801 [Eh]
	 SCS Correlation Energy    =      -1.6168563773683142 [Eh]
	 SCS Total Energy          =    -414.2166773034277867 [Eh]
	-----------------------------------------------------------

  Dipole Moment: [D]
     X:     0.9669      Y:     4.0735      Z:     0.0348     Total:     4.1868

*** Psi4 exiting successfully. Buy a developer a beer!
