                               Psi4 1.3.2 release

  ==> Input File <==

--------------------------------------------------------------------------
#psi4
#
memory 32 gb

molecule  {
0 1
  N       -0.0337150    -0.9783820    -0.0001030
  H       -0.0465630    -1.9952990     0.0000230
  C       -1.2924060    -0.3478390    -0.0002800
  O       -2.3237930    -1.0132930     0.0001830
  C       -1.2062280     1.1067970     0.0000000
  H       -2.1261180     1.6763830     0.0001840
  C        0.0030670     1.7105540     0.0000260
  H        0.1229620     2.7891690     0.0001530
  N        1.1742530     0.9863751    -0.1000120
  H        2.0766210     1.4468080     0.0000740
  C        1.2261220    -0.4021520    -0.0000880
  O        2.2745420    -1.0338450     0.0001200
units angstrom
no_reorient  #important for SAPT in psi4, default
symmetry c1  #important for SAPT in psi4, default
}

set PROPERTIES_ORIGIN ["COM"]
properties('MP2/aug-cc-pvtz', properties = ['dipole'])
--------------------------------------------------------------------------

    Molecular point group: c1
  Charge       = 0
  Multiplicity = 1
  Basis Set: AUG-CC-PVTZ
    Blend: AUG-CC-PVTZ
  Basis Set: (AUG-CC-PVTZ AUX)
    Blend: AUG-CC-PVTZ-JKFIT

    Orbital Energies [Eh]
    ---------------------

    Doubly Occupied:

       1A    -20.550261     2A    -20.544741     3A    -15.647285
       4A    -15.630917     5A    -11.423385     6A    -11.385679
       7A    -11.344331     8A    -11.260228     9A     -1.431640
      10A     -1.394528    11A     -1.309568    12A     -1.243317
      13A     -1.088144    14A     -0.930945    15A     -0.900485
      16A     -0.803055    17A     -0.762192    18A     -0.713205
      19A     -0.677126    20A     -0.665960    21A     -0.652001
      22A     -0.614498    23A     -0.601019    24A     -0.569078
      25A     -0.524704    26A     -0.484543    27A     -0.451171
      28A     -0.437608    29A     -0.371350

  @DF-RHF Final Energy:  -412.61948956000396

   => Energetics <=

    Nuclear Repulsion Energy =            355.2286111589075972
    One-Electron Energy =               -1266.8702699570717414
    Two-Electron Energy =                 499.0221692381601883
    Total Energy =                       -412.6194895600039558
  Basis Set: (AUG-CC-PVTZ AUX)
    Blend: AUG-CC-PVTZ-RI
    Molecular point group: c1

    Geometry (in Angstrom), charge = 0, multiplicity = 1:

       Center              X                  Y                   Z               Mass
    ------------   -----------------  -----------------  -----------------  -----------------
         N           -0.033510094440    -0.943784734800     0.012400543169    14.003074004430
         H           -0.046358094440    -1.960701734800     0.012526543169     1.007825032230
         C           -1.292201094440    -0.313241734800     0.012223543169    12.000000000000
         O           -2.323588094440    -0.978695734800     0.012686543169    15.994914619570
         C           -1.206023094440     1.141394265200     0.012503543169    12.000000000000
         H           -2.125913094440     1.710980265200     0.012687543169     1.007825032230
         C            0.003271905560     1.745151265200     0.012529543169    12.000000000000
         H            0.123166905560     2.823766265200     0.012656543169     1.007825032230
         N            1.174457905560     1.020972365200    -0.087508456831    14.003074004430
         H            2.076825905560     1.481405265200     0.012577543169     1.007825032230
         C            1.226326905560    -0.367554734800     0.012415543169    12.000000000000
         O            2.274746905560    -0.999247734800     0.012623543169    15.994914619570

  Basis Set: AUG-CC-PVTZ
    Blend: AUG-CC-PVTZ
  Basis Set: (AUG-CC-PVTZ AUX)
    Blend: AUG-CC-PVTZ-JKFIT
	 Reference Energy          =    -412.6194895600039558 [Eh]
	 Singles Energy            =      -0.0000000000000000 [Eh]
	 Same-Spin Energy          =      -0.4147415222105996 [Eh]
	 Opposite-Spin Energy      =      -1.2285814328394524 [Eh]
	 Correlation Energy        =      -1.6433229550500519 [Eh]
	 Total Energy              =    -414.2628125150540086 [Eh]

	 ================> DF-SCS-MP2 Energies <==================
	-----------------------------------------------------------
	 SCS Same-Spin Scale       =       0.3333333333333333 [-]
	 SCS Opposite-Spin Scale   =       1.2000000000000000 [-]
	 SCS Same-Spin Energy      =      -0.1382471740701998 [Eh]
	 SCS Opposite-Spin Energy  =      -1.4742977194073428 [Eh]
	 SCS Correlation Energy    =      -1.6125448934775426 [Eh]
	 SCS Total Energy          =    -414.2320344534815035 [Eh]
	-----------------------------------------------------------

  Dipole Moment: [D]
     X:     1.1466      Y:     4.1590      Z:     0.1174     Total:     4.3158

*** Psi4 exiting successfully. Buy a developer a beer!
