                               Psi4 1.3.2 release

  ==> Input File <==

--------------------------------------------------------------------------
#psi4
#
memory 32 gb

molecule  {
0 1
  N       -0.0337150    -0.9783820    -0.0001030
  H       -0.0465630    -1.9952990     0.0000230
  C       -1.2924060    -0.3478390    -0.0002800
  O       -2.3237930    -1.0132930     0.0001830
  C       -1.2062654     1.1067908    -0.3000000
  H       -2.1261180     1.6763830     0.0001840
  C        0.0030670     1.7105540     0.0000260
  H        0.1229620     2.7891690     0.0001530
  N        1.1742530     0.9863660    -0.0000120
  H        2.0766210     1.4468080     0.0000740
  C        1.2261220    -0.4021520    -0.0000880
  O        2.2745420    -1.0338450     0.0001200
units angstrom
no_reorient  #important for SAPT in psi4, default
symmetry c1  #important for SAPT in psi4, default
}

set PROPERTIES_ORIGIN ["COM"]
properties('MP2/aug-cc-pvtz', properties = ['dipole'])
--------------------------------------------------------------------------

    Molecular point group: c1
  Charge       = 0
  Multiplicity = 1
  Basis Set: AUG-CC-PVTZ
    Blend: AUG-CC-PVTZ
  Basis Set: (AUG-CC-PVTZ AUX)
    Blend: AUG-CC-PVTZ-JKFIT

    Orbital Energies [Eh]
    ---------------------

    Doubly Occupied:

       1A    -20.552552     2A    -20.544648     3A    -15.651578
       4A    -15.630957     5A    -11.425454     6A    -11.386897
       7A    -11.354304     8A    -11.265972     9A     -1.433705
      10A     -1.393937    11A     -1.312928    12A     -1.244742
      13A     -1.080430    14A     -0.931000    15A     -0.899875
      16A     -0.802210    17A     -0.756734    18A     -0.715663
      19A     -0.677506    20A     -0.668492    21A     -0.648422
      22A     -0.610772    23A     -0.586503    24A     -0.565461
      25A     -0.523253    26A     -0.485345    27A     -0.448577
      28A     -0.437867    29A     -0.371152

  @DF-RHF Final Energy:  -412.59819306324022

   => Energetics <=

    Nuclear Repulsion Energy =            354.3587275620826631
    One-Electron Energy =               -1265.0999703201027842
    Two-Electron Energy =                 498.1430496947799043
    Total Energy =                       -412.5981930632402168
  Basis Set: (AUG-CC-PVTZ AUX)
    Blend: AUG-CC-PVTZ-RI
    Molecular point group: c1

    Geometry (in Angstrom), charge = 0, multiplicity = 1:

       Center              X                  Y                   Z               Mass
    ------------   -----------------  -----------------  -----------------  -----------------
         N           -0.033506088272    -0.943782933203     0.032035873519    14.003074004430
         H           -0.046354088272    -1.960699933203     0.032161873519     1.007825032230
         C           -1.292197088272    -0.313239933203     0.031858873519    12.000000000000
         O           -2.323584088272    -0.978693933203     0.032321873519    15.994914619570
         C           -1.206056488272     1.141389866797    -0.267861126481    12.000000000000
         H           -2.125909088272     1.710982066797     0.032322873519     1.007825032230
         C            0.003275911728     1.745153066797     0.032164873519    12.000000000000
         H            0.123170911728     2.823768066797     0.032291873519     1.007825032230
         N            1.174461911728     1.020965066797     0.032126873519    14.003074004430
         H            2.076829911728     1.481407066797     0.032212873519     1.007825032230
         C            1.226330911728    -0.367552933203     0.032050873519    12.000000000000
         O            2.274750911728    -0.999245933203     0.032258873519    15.994914619570

  Basis Set: AUG-CC-PVTZ
    Blend: AUG-CC-PVTZ
  Basis Set: (AUG-CC-PVTZ AUX)
    Blend: AUG-CC-PVTZ-JKFIT
	 Reference Energy          =    -412.5981930632402168 [Eh]
	 Singles Energy            =      -0.0000000000000000 [Eh]
	 Same-Spin Energy          =      -0.4157518720650081 [Eh]
	 Opposite-Spin Energy      =      -1.2312673438725135 [Eh]
	 Correlation Energy        =      -1.6470192159375214 [Eh]
	 Total Energy              =    -414.2452122791777356 [Eh]

	 ================> DF-SCS-MP2 Energies <==================
	-----------------------------------------------------------
	 SCS Same-Spin Scale       =       0.3333333333333333 [-]
	 SCS Opposite-Spin Scale   =       1.2000000000000000 [-]
	 SCS Same-Spin Energy      =      -0.1385839573550027 [Eh]
	 SCS Opposite-Spin Energy  =      -1.4775208126470161 [Eh]
	 SCS Correlation Energy    =      -1.6161047700020188 [Eh]
	 SCS Total Energy          =    -414.2142978332422558 [Eh]
	-----------------------------------------------------------

  Dipole Moment: [D]
     X:     1.3309      Y:     4.0668      Z:     0.2718     Total:     4.2877

*** Psi4 exiting successfully. Buy a developer a beer!
