                               Psi4 1.3.2 release

  ==> Input File <==

--------------------------------------------------------------------------
#psi4
#
memory 32 gb

molecule  {
0 1
  N       -0.0337150    -0.9783820    -0.0001030
  H       -0.0465630    -1.9952990     0.0000230
  C       -1.2924060    -0.3478390    -0.0002800
  O       -2.3237930    -1.0132930     0.0001830
  C       -1.2062280     1.1067970     0.0000000
  H       -2.1261180     1.6763830     0.0001840
  C        0.0030670     1.7105540     0.0000260
  H        0.1229620     2.7891690     0.0001530
  N        1.1742529     0.9863797    -0.1500120
  H        2.0766210     1.4468080     0.0000740
  C        1.2261220    -0.4021520    -0.0000880
  O        2.2745420    -1.0338450     0.0001200
units angstrom
no_reorient  #important for SAPT in psi4, default
symmetry c1  #important for SAPT in psi4, default
}

set PROPERTIES_ORIGIN ["COM"]
properties('MP2/aug-cc-pvtz', properties = ['dipole'])
--------------------------------------------------------------------------

    Molecular point group: c1
  Charge       = 0
  Multiplicity = 1
  Basis Set: AUG-CC-PVTZ
    Blend: AUG-CC-PVTZ
  Basis Set: (AUG-CC-PVTZ AUX)
    Blend: AUG-CC-PVTZ-JKFIT

    Orbital Energies [Eh]
    ---------------------

    Doubly Occupied:

       1A    -20.551134     2A    -20.545458     3A    -15.647331
       4A    -15.631099     5A    -11.423676     6A    -11.386123
       7A    -11.344004     8A    -11.260796     9A     -1.431531
      10A     -1.395041    11A     -1.308171    12A     -1.242848
      13A     -1.087792    14A     -0.929369    15A     -0.899794
      16A     -0.800832    17A     -0.761057    18A     -0.712868
      19A     -0.677238    20A     -0.665315    21A     -0.651272
      22A     -0.614206    23A     -0.601293    24A     -0.569238
      25A     -0.524344    26A     -0.484771    27A     -0.451714
      28A     -0.437846    29A     -0.372340

  @DF-RHF Final Energy:  -412.61751214949862

   => Energetics <=

    Nuclear Repulsion Energy =            355.0516952001818822
    One-Electron Energy =               -1266.5214066521066343
    Two-Electron Energy =                 498.8521993024260723
    Total Energy =                       -412.6175121494986229
  Basis Set: (AUG-CC-PVTZ AUX)
    Blend: AUG-CC-PVTZ-RI
    Molecular point group: c1

    Geometry (in Angstrom), charge = 0, multiplicity = 1:

       Center              X                  Y                   Z               Mass
    ------------   -----------------  -----------------  -----------------  -----------------
         N           -0.033510081940    -0.943785309786     0.018650393354    14.003074004430
         H           -0.046358081940    -1.960702309786     0.018776393354     1.007825032230
         C           -1.292201081940    -0.313242309786     0.018473393354    12.000000000000
         O           -2.323588081940    -0.978696309786     0.018936393354    15.994914619570
         C           -1.206023081940     1.141393690214     0.018753393354    12.000000000000
         H           -2.125913081940     1.710979690214     0.018937393354     1.007825032230
         C            0.003271918060     1.745150690214     0.018779393354    12.000000000000
         H            0.123166918060     2.823765690214     0.018906393354     1.007825032230
         N            1.174457818060     1.020976390214    -0.131258606646    14.003074004430
         H            2.076825918060     1.481404690214     0.018827393354     1.007825032230
         C            1.226326918060    -0.367555309786     0.018665393354    12.000000000000
         O            2.274746918060    -0.999248309786     0.018873393354    15.994914619570

  Basis Set: AUG-CC-PVTZ
    Blend: AUG-CC-PVTZ
  Basis Set: (AUG-CC-PVTZ AUX)
    Blend: AUG-CC-PVTZ-JKFIT
	 Reference Energy          =    -412.6175121494986229 [Eh]
	 Singles Energy            =      -0.0000000000000000 [Eh]
	 Same-Spin Energy          =      -0.4147717799845636 [Eh]
	 Opposite-Spin Energy      =      -1.2289249155363275 [Eh]
	 Correlation Energy        =      -1.6436966955208911 [Eh]
	 Total Energy              =    -414.2612088450194960 [Eh]

	 ================> DF-SCS-MP2 Energies <==================
	-----------------------------------------------------------
	 SCS Same-Spin Scale       =       0.3333333333333333 [-]
	 SCS Opposite-Spin Scale   =       1.2000000000000000 [-]
	 SCS Same-Spin Energy      =      -0.1382572599948545 [Eh]
	 SCS Opposite-Spin Energy  =      -1.4747098986435929 [Eh]
	 SCS Correlation Energy    =      -1.6129671586384475 [Eh]
	 SCS Total Energy          =    -414.2304793081370917 [Eh]
	-----------------------------------------------------------

  Dipole Moment: [D]
     X:     1.1164      Y:     4.1180      Z:     0.1778     Total:     4.2703

*** Psi4 exiting successfully. Buy a developer a beer!
