                               Psi4 1.3.2 release

  ==> Input File <==

--------------------------------------------------------------------------
#psi4
#
memory 32 gb

molecule  {
0 1
  N       -0.0337150    -0.9783820    -0.0001030
  H       -0.0465630    -1.9952990     0.0000230
  C       -1.2924060    -0.3478390    -0.0002800
  O       -2.3237930    -1.0132930     0.0001830
  C       -1.2062280     1.1067970     0.0000000
  H       -2.1261180     1.6763830     0.0001840
  C        0.0030593     1.7105737    -0.0999740
  H        0.1229620     2.7891690     0.0001530
  N        1.1742530     0.9863660    -0.0000120
  H        2.0766210     1.4468080     0.0000740
  C        1.2261220    -0.4021520    -0.0000880
  O        2.2745420    -1.0338450     0.0001200
units angstrom
no_reorient  #important for SAPT in psi4, default
symmetry c1  #important for SAPT in psi4, default
}

set PROPERTIES_ORIGIN ["COM"]
properties('MP2/aug-cc-pvtz', properties = ['dipole'])
--------------------------------------------------------------------------

    Molecular point group: c1
  Charge       = 0
  Multiplicity = 1
  Basis Set: AUG-CC-PVTZ
    Blend: AUG-CC-PVTZ
  Basis Set: (AUG-CC-PVTZ AUX)
    Blend: AUG-CC-PVTZ-JKFIT

    Orbital Energies [Eh]
    ---------------------

    Doubly Occupied:

       1A    -20.549340     2A    -20.544688     3A    -15.646828
       4A    -15.630857     5A    -11.422833     6A    -11.385670
       7A    -11.345362     8A    -11.261344     9A     -1.431491
      10A     -1.394447    11A     -1.309733    12A     -1.243389
      13A     -1.087937    14A     -0.931547    15A     -0.900878
      16A     -0.804350    17A     -0.762286    18A     -0.711741
      19A     -0.676883    20A     -0.666239    21A     -0.652027
      22A     -0.614376    23A     -0.600788    24A     -0.568838
      25A     -0.524455    26A     -0.484059    27A     -0.451062
      28A     -0.437480    29A     -0.370331

  @DF-RHF Final Energy:  -412.61764275634971

   => Energetics <=

    Nuclear Repulsion Energy =            355.2497627724036420
    One-Electron Energy =               -1266.9122867468474851
    Two-Electron Energy =                 499.0448812180941331
    Total Energy =                       -412.6176427563497100
  Basis Set: (AUG-CC-PVTZ AUX)
    Blend: AUG-CC-PVTZ-RI
    Molecular point group: c1

    Geometry (in Angstrom), charge = 0, multiplicity = 1:

       Center              X                  Y                   Z               Mass
    ------------   -----------------  -----------------  -----------------  -----------------
         N           -0.033509269641    -0.943785707527     0.010612519706    14.003074004430
         H           -0.046357269641    -1.960702707527     0.010738519706     1.007825032230
         C           -1.292200269641    -0.313242707527     0.010435519706    12.000000000000
         O           -2.323587269641    -0.978696707527     0.010898519706    15.994914619570
         C           -1.206022269641     1.141393292473     0.010715519706    12.000000000000
         H           -2.125912269641     1.710979292473     0.010899519706     1.007825032230
         C            0.003265030359     1.745169992473    -0.089258480294    12.000000000000
         H            0.123167730359     2.823765292473     0.010868519706     1.007825032230
         N            1.174458730359     1.020962292473     0.010703519706    14.003074004430
         H            2.076826730359     1.481404292473     0.010789519706     1.007825032230
         C            1.226327730359    -0.367555707527     0.010627519706    12.000000000000
         O            2.274747730359    -0.999248707527     0.010835519706    15.994914619570

  Basis Set: AUG-CC-PVTZ
    Blend: AUG-CC-PVTZ
  Basis Set: (AUG-CC-PVTZ AUX)
    Blend: AUG-CC-PVTZ-JKFIT
	 Reference Energy          =    -412.6176427563497100 [Eh]
	 Singles Energy            =      -0.0000000000000000 [Eh]
	 Same-Spin Energy          =      -0.4149017506728966 [Eh]
	 Opposite-Spin Energy      =      -1.2288140293272498 [Eh]
	 Correlation Energy        =      -1.6437157800001465 [Eh]
	 Total Energy              =    -414.2613585363498601 [Eh]

	 ================> DF-SCS-MP2 Energies <==================
	-----------------------------------------------------------
	 SCS Same-Spin Scale       =       0.3333333333333333 [-]
	 SCS Opposite-Spin Scale   =       1.2000000000000000 [-]
	 SCS Same-Spin Energy      =      -0.1383005835576322 [Eh]
	 SCS Opposite-Spin Energy  =      -1.4745768351926998 [Eh]
	 SCS Correlation Energy    =      -1.6128774187503319 [Eh]
	 SCS Total Energy          =    -414.2305201751000254 [Eh]
	-----------------------------------------------------------

  Dipole Moment: [D]
     X:     1.1376      Y:     4.1733      Z:     0.0066     Total:     4.3256

*** Psi4 exiting successfully. Buy a developer a beer!
