                               Psi4 1.3.2 release

  ==> Input File <==

--------------------------------------------------------------------------
#psi4
#
memory 32 gb

molecule  {
0 1
  N       -0.0337150    -0.9783820    -0.0001030
  H       -0.0465630    -1.9952990     0.0000230
  C       -1.2924060    -0.3478390    -0.0002800
  O       -2.3237930    -1.0132930     0.0001830
  C       -1.2062280     1.1067970     0.0000000
  H       -2.1261180     1.6763830     0.0001840
  C        0.0030670     1.7105540     0.0000260
  H        0.1229620     2.7891690     0.0001530
  N        1.1742530     0.9863660    -0.0000120
  H        2.0766210     1.4468080     0.0000740
  C        1.2261220    -0.4021520    -0.0000880
  O        2.2745613    -1.0338476    -0.1998800
units angstrom
no_reorient  #important for SAPT in psi4, default
symmetry c1  #important for SAPT in psi4, default
}

set PROPERTIES_ORIGIN ["COM"]
properties('MP2/aug-cc-pvtz', properties = ['dipole'])
--------------------------------------------------------------------------

    Molecular point group: c1
  Charge       = 0
  Multiplicity = 1
  Basis Set: AUG-CC-PVTZ
    Blend: AUG-CC-PVTZ
  Basis Set: (AUG-CC-PVTZ AUX)
    Blend: AUG-CC-PVTZ-JKFIT

    Orbital Energies [Eh]
    ---------------------

    Doubly Occupied:

       1A    -20.549008     2A    -20.544918     3A    -15.648866
       4A    -15.632353     5A    -11.425845     6A    -11.386219
       7A    -11.345427     8A    -11.260745     9A     -1.425940
      10A     -1.392773    11A     -1.308572    12A     -1.244399
      13A     -1.089305    14A     -0.933038    15A     -0.902108
      16A     -0.805993    17A     -0.762967    18A     -0.714181
      19A     -0.676702    20A     -0.665746    21A     -0.649152
      22A     -0.614637    23A     -0.600702    24A     -0.568643
      25A     -0.523216    26A     -0.482362    27A     -0.451175
      28A     -0.436409    29A     -0.370978

  @DF-RHF Final Energy:  -412.61574483349227

   => Energetics <=

    Nuclear Repulsion Energy =            354.9550916454726917
    One-Electron Energy =               -1266.3169208278441147
    Two-Electron Energy =                 498.7460843488790943
    Total Energy =                       -412.6157448334922719
  Basis Set: (AUG-CC-PVTZ AUX)
    Blend: AUG-CC-PVTZ-RI
    Molecular point group: c1

    Geometry (in Angstrom), charge = 0, multiplicity = 1:

       Center              X                  Y                   Z               Mass
    ------------   -----------------  -----------------  -----------------  -----------------
         N           -0.033512850035    -0.943783226107     0.028456235725    14.003074004430
         H           -0.046360850035    -1.960700226107     0.028582235725     1.007825032230
         C           -1.292203850035    -0.313240226107     0.028279235725    12.000000000000
         O           -2.323590850035    -0.978694226107     0.028742235725    15.994914619570
         C           -1.206025850035     1.141395773893     0.028559235725    12.000000000000
         H           -2.125915850035     1.710981773893     0.028743235725     1.007825032230
         C            0.003269149965     1.745152773893     0.028585235725    12.000000000000
         H            0.123164149965     2.823767773893     0.028712235725     1.007825032230
         N            1.174455149965     1.020964773893     0.028547235725    14.003074004430
         H            2.076823149965     1.481406773893     0.028633235725     1.007825032230
         C            1.226324149965    -0.367553226107     0.028471235725    12.000000000000
         O            2.274763449965    -0.999248826107    -0.171320764275    15.994914619570

  Basis Set: AUG-CC-PVTZ
    Blend: AUG-CC-PVTZ
  Basis Set: (AUG-CC-PVTZ AUX)
    Blend: AUG-CC-PVTZ-JKFIT
	 Reference Energy          =    -412.6157448334922719 [Eh]
	 Singles Energy            =      -0.0000000000000000 [Eh]
	 Same-Spin Energy          =      -0.4152484341062663 [Eh]
	 Opposite-Spin Energy      =      -1.2295207772510532 [Eh]
	 Correlation Energy        =      -1.6447692113573196 [Eh]
	 Total Energy              =    -414.2605140448495717 [Eh]

	 ================> DF-SCS-MP2 Energies <==================
	-----------------------------------------------------------
	 SCS Same-Spin Scale       =       0.3333333333333333 [-]
	 SCS Opposite-Spin Scale   =       1.2000000000000000 [-]
	 SCS Same-Spin Energy      =      -0.1384161447020888 [Eh]
	 SCS Opposite-Spin Energy  =      -1.4754249327012638 [Eh]
	 SCS Correlation Energy    =      -1.6138410774033527 [Eh]
	 SCS Total Energy          =    -414.2295859108956506 [Eh]
	-----------------------------------------------------------

  Dipole Moment: [D]
     X:     1.1028      Y:     4.2326      Z:     0.3661     Total:     4.3892

*** Psi4 exiting successfully. Buy a developer a beer!
