                               Psi4 1.3.2 release

  ==> Input File <==

--------------------------------------------------------------------------
#psi4
#
memory 32 gb

molecule  {
0 1
  N       -0.0337150    -0.9783820    -0.0001030
  H       -0.0465630    -1.9952990     0.0000230
  C       -1.2924060    -0.3478390    -0.0002800
  O       -2.3237930    -1.0132930     0.0001830
  C       -1.2062280     1.1067970     0.0000000
  H       -2.1261180     1.6763830     0.0001840
  C        0.0030670     1.7105540     0.0000260
  H        0.1229620     2.7891690     0.0001530
  N        1.1742530     0.9863660    -0.0000120
  H        2.0766210     1.4468080     0.0000740
  C        1.2261220    -0.4021520    -0.0000880
  O        2.2745468    -1.0338456    -0.0498800
units angstrom
no_reorient  #important for SAPT in psi4, default
symmetry c1  #important for SAPT in psi4, default
}

set PROPERTIES_ORIGIN ["COM"]
properties('MP2/aug-cc-pvtz', properties = ['dipole'])
--------------------------------------------------------------------------

    Molecular point group: c1
  Charge       = 0
  Multiplicity = 1
  Basis Set: AUG-CC-PVTZ
    Blend: AUG-CC-PVTZ
  Basis Set: (AUG-CC-PVTZ AUX)
    Blend: AUG-CC-PVTZ-JKFIT

    Orbital Energies [Eh]
    ---------------------

    Doubly Occupied:

       1A    -20.549514     2A    -20.544201     3A    -15.647387
       4A    -15.630870     5A    -11.423320     6A    -11.385372
       7A    -11.344654     8A    -11.259829     9A     -1.431338
      10A     -1.394041    11A     -1.310584    12A     -1.243717
      13A     -1.088495    14A     -0.932309    15A     -0.901138
      16A     -0.804973    17A     -0.763088    18A     -0.713508
      19A     -0.676920    20A     -0.666595    21A     -0.652310
      22A     -0.614686    23A     -0.600789    24A     -0.568924
      25A     -0.524888    26A     -0.484221    27A     -0.450755
      28A     -0.437351    29A     -0.370568

  @DF-RHF Final Energy:  -412.62069525968116

   => Energetics <=

    Nuclear Repulsion Energy =            355.3450262425957931
    One-Electron Energy =               -1267.0987493562920463
    Two-Electron Energy =                 499.1330278540150402
    Total Energy =                       -412.6206952596811561
  Basis Set: (AUG-CC-PVTZ AUX)
    Blend: AUG-CC-PVTZ-RI
    Molecular point group: c1

    Geometry (in Angstrom), charge = 0, multiplicity = 1:

       Center              X                  Y                   Z               Mass
    ------------   -----------------  -----------------  -----------------  -----------------
         N           -0.033510779769    -0.943783511661     0.007039691031    14.003074004430
         H           -0.046358779769    -1.960700511661     0.007165691031     1.007825032230
         C           -1.292201779769    -0.313240511661     0.006862691031    12.000000000000
         O           -2.323588779769    -0.978694511661     0.007325691031    15.994914619570
         C           -1.206023779769     1.141395488339     0.007142691031    12.000000000000
         H           -2.125913779769     1.710981488339     0.007326691031     1.007825032230
         C            0.003271220231     1.745152488339     0.007168691031    12.000000000000
         H            0.123166220231     2.823767488339     0.007295691031     1.007825032230
         N            1.174457220231     1.020964488339     0.007130691031    14.003074004430
         H            2.076825220231     1.481406488339     0.007216691031     1.007825032230
         C            1.226326220231    -0.367553511661     0.007054691031    12.000000000000
         O            2.274751020231    -0.999247111661    -0.042737308969    15.994914619570

  Basis Set: AUG-CC-PVTZ
    Blend: AUG-CC-PVTZ
  Basis Set: (AUG-CC-PVTZ AUX)
    Blend: AUG-CC-PVTZ-JKFIT
	 Reference Energy          =    -412.6206952596811561 [Eh]
	 Singles Energy            =      -0.0000000000000000 [Eh]
	 Same-Spin Energy          =      -0.4147550900584542 [Eh]
	 Opposite-Spin Energy      =      -1.2284171507042743 [Eh]
	 Correlation Energy        =      -1.6431722407627285 [Eh]
	 Total Energy              =    -414.2638675004438937 [Eh]

	 ================> DF-SCS-MP2 Energies <==================
	-----------------------------------------------------------
	 SCS Same-Spin Scale       =       0.3333333333333333 [-]
	 SCS Opposite-Spin Scale   =       1.2000000000000000 [-]
	 SCS Same-Spin Energy      =      -0.1382516966861514 [Eh]
	 SCS Opposite-Spin Energy  =      -1.4741005808451291 [Eh]
	 SCS Correlation Energy    =      -1.6123522775312804 [Eh]
	 SCS Total Energy          =    -414.2330475372124283 [Eh]
	-----------------------------------------------------------

  Dipole Moment: [D]
     X:     1.1671      Y:     4.1952      Z:     0.0908     Total:     4.3554

*** Psi4 exiting successfully. Buy a developer a beer!
