                               Psi4 1.3.2 release

  ==> Input File <==

--------------------------------------------------------------------------
#psi4
#
memory 32 gb

molecule  {
0 1
  N       -0.0337150    -0.9783820    -0.0001030
  H       -0.0465630    -1.9952990     0.0000230
  C       -1.2924060    -0.3478390    -0.0002800
  O       -2.3237930    -1.0132930     0.0001830
  C       -1.2062280     1.1067970     0.0000000
  H       -2.1261180     1.6763830     0.0001840
  C        0.0030670     1.7105540     0.0000260
  H        0.1229620     2.7891690     0.0001530
  N        1.1742530     0.9863660    -0.0000120
  H        2.0766210     1.4468080     0.0000740
  C        1.2261293    -0.4021648    -0.1000880
  O        2.2745420    -1.0338450     0.0001200
units angstrom
no_reorient  #important for SAPT in psi4, default
symmetry c1  #important for SAPT in psi4, default
}

set PROPERTIES_ORIGIN ["COM"]
properties('MP2/aug-cc-pvtz', properties = ['dipole'])
--------------------------------------------------------------------------

    Molecular point group: c1
  Charge       = 0
  Multiplicity = 1
  Basis Set: AUG-CC-PVTZ
    Blend: AUG-CC-PVTZ
  Basis Set: (AUG-CC-PVTZ AUX)
    Blend: AUG-CC-PVTZ-JKFIT

    Orbital Energies [Eh]
    ---------------------

    Doubly Occupied:

       1A    -20.550393     2A    -20.544092     3A    -15.647436
       4A    -15.630979     5A    -11.424640     6A    -11.385093
       7A    -11.344352     8A    -11.259740     9A     -1.430203
      10A     -1.393699    11A     -1.309347    12A     -1.242769
      13A     -1.088010    14A     -0.931515    15A     -0.900318
      16A     -0.804588    17A     -0.762009    18A     -0.713269
      19A     -0.676728    20A     -0.665531    21A     -0.651723
      22A     -0.614511    23A     -0.600630    24A     -0.568382
      25A     -0.524202    26A     -0.483845    27A     -0.450812
      28A     -0.436629    29A     -0.370315

  @DF-RHF Final Energy:  -412.61594664061613

   => Energetics <=

    Nuclear Repulsion Energy =            355.1954408808480252
    One-Electron Energy =               -1266.8112550833247951
    Two-Electron Energy =                 498.9998675618605830
    Total Energy =                       -412.6159466406161300
  Basis Set: (AUG-CC-PVTZ AUX)
    Blend: AUG-CC-PVTZ-RI
    Molecular point group: c1

    Geometry (in Angstrom), charge = 0, multiplicity = 1:

       Center              X                  Y                   Z               Mass
    ------------   -----------------  -----------------  -----------------  -----------------
         N           -0.033510876392    -0.943782226232     0.010612519706    14.003074004430
         H           -0.046358876392    -1.960699226232     0.010738519706     1.007825032230
         C           -1.292201876392    -0.313239226232     0.010435519706    12.000000000000
         O           -2.323588876392    -0.978693226232     0.010898519706    15.994914619570
         C           -1.206023876392     1.141396773768     0.010715519706    12.000000000000
         H           -2.125913876392     1.710982773768     0.010899519706     1.007825032230
         C            0.003271123608     1.745153773768     0.010741519706    12.000000000000
         H            0.123166123608     2.823768773768     0.010868519706     1.007825032230
         N            1.174457123608     1.020965773768     0.010703519706    14.003074004430
         H            2.076825123608     1.481407773768     0.010789519706     1.007825032230
         C            1.226333423608    -0.367565026232    -0.089372480294    12.000000000000
         O            2.274746123608    -0.999245226232     0.010835519706    15.994914619570

  Basis Set: AUG-CC-PVTZ
    Blend: AUG-CC-PVTZ
  Basis Set: (AUG-CC-PVTZ AUX)
    Blend: AUG-CC-PVTZ-JKFIT
	 Reference Energy          =    -412.6159466406161300 [Eh]
	 Singles Energy            =      -0.0000000000000000 [Eh]
	 Same-Spin Energy          =      -0.4150373970983710 [Eh]
	 Opposite-Spin Energy      =      -1.2290812516387932 [Eh]
	 Correlation Energy        =      -1.6441186487371642 [Eh]
	 Total Energy              =    -414.2600652893532924 [Eh]

	 ================> DF-SCS-MP2 Energies <==================
	-----------------------------------------------------------
	 SCS Same-Spin Scale       =       0.3333333333333333 [-]
	 SCS Opposite-Spin Scale   =       1.2000000000000000 [-]
	 SCS Same-Spin Energy      =      -0.1383457990327903 [Eh]
	 SCS Opposite-Spin Energy  =      -1.4748975019665518 [Eh]
	 SCS Correlation Energy    =      -1.6132433009993421 [Eh]
	 SCS Total Energy          =    -414.2291899416154592 [Eh]
	-----------------------------------------------------------

  Dipole Moment: [D]
     X:     1.1778      Y:     4.1860      Z:    -0.1520     Total:     4.3512

*** Psi4 exiting successfully. Buy a developer a beer!
