                               Psi4 1.3.2 release

  ==> Input File <==

--------------------------------------------------------------------------
#psi4
#
memory 32 gb

molecule  {
0 1
  N       -0.0337150    -0.9783820    -0.0001030
  H       -0.0465630    -1.9952990     0.0000230
  C       -1.2924060    -0.3478390    -0.0002800
  O       -2.3237930    -1.0132930     0.0001830
  C       -1.2062280     1.1067970     0.0000000
  H       -2.1261180     1.6763830     0.0001840
  C        0.0030670     1.7105540     0.0000260
  H        0.1229620     2.7891690     0.0001530
  N        1.1742529     0.9863934    -0.3000120
  H        2.0766210     1.4468080     0.0000740
  C        1.2261220    -0.4021520    -0.0000880
  O        2.2745420    -1.0338450     0.0001200
units angstrom
no_reorient  #important for SAPT in psi4, default
symmetry c1  #important for SAPT in psi4, default
}

set PROPERTIES_ORIGIN ["COM"]
properties('MP2/aug-cc-pvtz', properties = ['dipole'])
--------------------------------------------------------------------------

    Molecular point group: c1
  Charge       = 0
  Multiplicity = 1
  Basis Set: AUG-CC-PVTZ
    Blend: AUG-CC-PVTZ
  Basis Set: (AUG-CC-PVTZ AUX)
    Blend: AUG-CC-PVTZ-JKFIT

    Orbital Energies [Eh]
    ---------------------

    Doubly Occupied:

       1A    -20.555514     2A    -20.548982     3A    -15.648369
       4A    -15.632035     5A    -11.425140     6A    -11.388305
       7A    -11.342438     8A    -11.263689     9A     -1.431173
      10A     -1.397573    11A     -1.301168    12A     -1.239720
      13A     -1.086153    14A     -0.922093    15A     -0.896627
      16A     -0.790550    17A     -0.754935    18A     -0.710908
      19A     -0.676629    20A     -0.664121    21A     -0.646815
      22A     -0.611504    23A     -0.602527    24A     -0.570059
      25A     -0.522581    26A     -0.485681    27A     -0.454357
      28A     -0.439029    29A     -0.377286

  @DF-RHF Final Energy:  -412.60553875322466

   => Energetics <=

    Nuclear Repulsion Energy =            354.1225836964027849
    One-Electron Energy =               -1264.6843212603250777
    Two-Electron Energy =                 497.9561988106976287
    Total Energy =                       -412.6055387532246641
  Basis Set: (AUG-CC-PVTZ AUX)
    Blend: AUG-CC-PVTZ-RI
    Molecular point group: c1

    Geometry (in Angstrom), charge = 0, multiplicity = 1:

       Center              X                  Y                   Z               Mass
    ------------   -----------------  -----------------  -----------------  -----------------
         N           -0.033510081940    -0.943787022245     0.037399943908    14.003074004430
         H           -0.046358081940    -1.960704022245     0.037525943908     1.007825032230
         C           -1.292201081940    -0.313244022245     0.037222943908    12.000000000000
         O           -2.323588081940    -0.978698022245     0.037685943908    15.994914619570
         C           -1.206023081940     1.141391977755     0.037502943908    12.000000000000
         H           -2.125913081940     1.710977977755     0.037686943908     1.007825032230
         C            0.003271918060     1.745148977755     0.037528943908    12.000000000000
         H            0.123166918060     2.823763977755     0.037655943908     1.007825032230
         N            1.174457818060     1.020988377755    -0.262509056092    14.003074004430
         H            2.076825918060     1.481402977755     0.037576943908     1.007825032230
         C            1.226326918060    -0.367557022245     0.037414943908    12.000000000000
         O            2.274746918060    -0.999250022245     0.037622943908    15.994914619570

  Basis Set: AUG-CC-PVTZ
    Blend: AUG-CC-PVTZ
  Basis Set: (AUG-CC-PVTZ AUX)
    Blend: AUG-CC-PVTZ-JKFIT
	 Reference Energy          =    -412.6055387532246641 [Eh]
	 Singles Energy            =      -0.0000000000000000 [Eh]
	 Same-Spin Energy          =      -0.4150147469787527 [Eh]
	 Opposite-Spin Energy      =      -1.2311130932899099 [Eh]
	 Correlation Energy        =      -1.6461278402686625 [Eh]
	 Total Energy              =    -414.2516665934933258 [Eh]

	 ================> DF-SCS-MP2 Energies <==================
	-----------------------------------------------------------
	 SCS Same-Spin Scale       =       0.3333333333333333 [-]
	 SCS Opposite-Spin Scale   =       1.2000000000000000 [-]
	 SCS Same-Spin Energy      =      -0.1383382489929176 [Eh]
	 SCS Opposite-Spin Energy  =      -1.4773357119478918 [Eh]
	 SCS Correlation Energy    =      -1.6156739609408093 [Eh]
	 SCS Total Energy          =    -414.2212127141654605 [Eh]
	-----------------------------------------------------------

  Dipole Moment: [D]
     X:     0.9653      Y:     3.9133      Z:     0.3668     Total:     4.0472

*** Psi4 exiting successfully. Buy a developer a beer!
