                               Psi4 1.3.2 release

  ==> Input File <==

--------------------------------------------------------------------------
#psi4
#
memory 32 gb

molecule  {
0 1
  N       -0.0337150    -0.9783820    -0.0001030
  H       -0.0465630    -1.9952990     0.0000230
  C       -1.2924060    -0.3478390    -0.0002800
  O       -2.3237930    -1.0132930     0.0001830
  C       -1.2062280     1.1067970     0.0000000
  H       -2.1261180     1.6763830     0.0001840
  C        0.0030670     1.7105540     0.0000260
  H        0.1229620     2.7891690     0.0001530
  N        1.1742530     0.9863660    -0.0000120
  H        2.0766210     1.4468080     0.0000740
  C        1.2261220    -0.4021520    -0.0000880
  O        2.2745709    -1.0338489    -0.2998800
units angstrom
no_reorient  #important for SAPT in psi4, default
symmetry c1  #important for SAPT in psi4, default
}

set PROPERTIES_ORIGIN ["COM"]
properties('MP2/aug-cc-pvtz', properties = ['dipole'])
--------------------------------------------------------------------------

    Molecular point group: c1
  Charge       = 0
  Multiplicity = 1
  Basis Set: AUG-CC-PVTZ
    Blend: AUG-CC-PVTZ
  Basis Set: (AUG-CC-PVTZ AUX)
    Blend: AUG-CC-PVTZ-JKFIT

    Orbital Energies [Eh]
    ---------------------

    Doubly Occupied:

       1A    -20.548334     2A    -20.545841     3A    -15.650769
       4A    -15.634265     5A    -11.428970     6A    -11.387303
       7A    -11.346415     8A    -11.261938     9A     -1.420634
      10A     -1.390287    11A     -1.305341    12A     -1.245234
      13A     -1.090352    14A     -0.934007    15A     -0.903360
      16A     -0.807308    17A     -0.762895    18A     -0.715085
      19A     -0.676692    20A     -0.664841    21A     -0.645095
      22A     -0.614433    23A     -0.600377    24A     -0.568428
      25A     -0.520998    26A     -0.480003    27A     -0.451577
      28A     -0.435118    29A     -0.371494

  @DF-RHF Final Energy:  -412.60864133264499

   => Energetics <=

    Nuclear Repulsion Energy =            354.4510005945672901
    One-Electron Energy =               -1265.3044986967088334
    Two-Electron Energy =                 498.2448567694965504
    Total Energy =                       -412.6086413326449929
  Basis Set: (AUG-CC-PVTZ AUX)
    Blend: AUG-CC-PVTZ-RI
    Molecular point group: c1

    Geometry (in Angstrom), charge = 0, multiplicity = 1:

       Center              X                  Y                   Z               Mass
    ------------   -----------------  -----------------  -----------------  -----------------
         N           -0.033514220694    -0.943783040497     0.042733932188    14.003074004430
         H           -0.046362220694    -1.960700040497     0.042859932188     1.007825032230
         C           -1.292205220694    -0.313240040497     0.042556932188    12.000000000000
         O           -2.323592220694    -0.978694040497     0.043019932188    15.994914619570
         C           -1.206027220694     1.141395959503     0.042836932188    12.000000000000
         H           -2.125917220694     1.710981959503     0.043020932188     1.007825032230
         C            0.003267779306     1.745152959503     0.042862932188    12.000000000000
         H            0.123162779306     2.823767959503     0.042989932188     1.007825032230
         N            1.174453779306     1.020964959503     0.042824932188    14.003074004430
         H            2.076821779306     1.481406959503     0.042910932188     1.007825032230
         C            1.226322779306    -0.367553040497     0.042748932188    12.000000000000
         O            2.274771679306    -0.999249940497    -0.257043067812    15.994914619570

  Basis Set: AUG-CC-PVTZ
    Blend: AUG-CC-PVTZ
  Basis Set: (AUG-CC-PVTZ AUX)
    Blend: AUG-CC-PVTZ-JKFIT
	 Reference Energy          =    -412.6086413326449929 [Eh]
	 Singles Energy            =      -0.0000000000000000 [Eh]
	 Same-Spin Energy          =      -0.4158824288729255 [Eh]
	 Opposite-Spin Energy      =      -1.2309762001616307 [Eh]
	 Correlation Energy        =      -1.6468586290345562 [Eh]
	 Total Energy              =    -414.2554999616795612 [Eh]

	 ================> DF-SCS-MP2 Energies <==================
	-----------------------------------------------------------
	 SCS Same-Spin Scale       =       0.3333333333333333 [-]
	 SCS Opposite-Spin Scale   =       1.2000000000000000 [-]
	 SCS Same-Spin Energy      =      -0.1386274762909752 [Eh]
	 SCS Opposite-Spin Energy  =      -1.4771714401939569 [Eh]
	 SCS Correlation Energy    =      -1.6157989164849320 [Eh]
	 SCS Total Energy          =    -414.2244402491299411 [Eh]
	-----------------------------------------------------------

  Dipole Moment: [D]
     X:     1.0202      Y:     4.2809      Z:     0.5520     Total:     4.4352

*** Psi4 exiting successfully. Buy a developer a beer!
