                               Psi4 1.3.2 release

  ==> Input File <==

--------------------------------------------------------------------------
#psi4
#
memory 32 gb

molecule  {
0 1
  N       -0.0337150    -0.9783820    -0.0001030
  H       -0.0465630    -1.9952990     0.0000230
  C       -1.2924060    -0.3478390    -0.0002800
  O       -2.3237930    -1.0132930     0.0001830
  C       -1.2062591     1.1067918    -0.2500000
  H       -2.1261180     1.6763830     0.0001840
  C        0.0030670     1.7105540     0.0000260
  H        0.1229620     2.7891690     0.0001530
  N        1.1742530     0.9863660    -0.0000120
  H        2.0766210     1.4468080     0.0000740
  C        1.2261220    -0.4021520    -0.0000880
  O        2.2745420    -1.0338450     0.0001200
units angstrom
no_reorient  #important for SAPT in psi4, default
symmetry c1  #important for SAPT in psi4, default
}

set PROPERTIES_ORIGIN ["COM"]
properties('MP2/aug-cc-pvtz', properties = ['dipole'])
--------------------------------------------------------------------------

    Molecular point group: c1
  Charge       = 0
  Multiplicity = 1
  Basis Set: AUG-CC-PVTZ
    Blend: AUG-CC-PVTZ
  Basis Set: (AUG-CC-PVTZ AUX)
    Blend: AUG-CC-PVTZ-JKFIT

    Orbital Energies [Eh]
    ---------------------

    Doubly Occupied:

       1A    -20.551636     2A    -20.544468     3A    -15.650267
       4A    -15.630886     5A    -11.424751     6A    -11.386446
       7A    -11.351439     8A    -11.264116     9A     -1.433094
      10A     -1.393976    11A     -1.312239    12A     -1.244413
      13A     -1.082871    14A     -0.931320    15A     -0.900209
      16A     -0.802890    17A     -0.758535    18A     -0.715018
      19A     -0.677337    20A     -0.668136    21A     -0.649136
      22A     -0.611761    23A     -0.591187    24A     -0.566546
      25A     -0.523766    26A     -0.485017    27A     -0.449277
      28A     -0.437731    29A     -0.370899

  @DF-RHF Final Energy:  -412.60532099367128

   => Energetics <=

    Nuclear Repulsion Energy =            354.6618750338174095
    One-Electron Energy =               -1265.7156557379273636
    Two-Electron Energy =                 498.4484597104386694
    Total Energy =                       -412.6053209936712847
  Basis Set: (AUG-CC-PVTZ AUX)
    Blend: AUG-CC-PVTZ-RI
    Molecular point group: c1

    Geometry (in Angstrom), charge = 0, multiplicity = 1:

       Center              X                  Y                   Z               Mass
    ------------   -----------------  -----------------  -----------------  -----------------
         N           -0.033506763108    -0.943783040320     0.026680035066    14.003074004430
         H           -0.046354763108    -1.960700040320     0.026806035066     1.007825032230
         C           -1.292197763108    -0.313240040320     0.026503035066    12.000000000000
         O           -2.323584763108    -0.978694040320     0.026966035066    15.994914619570
         C           -1.206050863108     1.141390759680    -0.223216964934    12.000000000000
         H           -2.125909763108     1.710981959680     0.026967035066     1.007825032230
         C            0.003275236892     1.745152959680     0.026809035066    12.000000000000
         H            0.123170236892     2.823767959680     0.026936035066     1.007825032230
         N            1.174461236892     1.020964959680     0.026771035066    14.003074004430
         H            2.076829236892     1.481406959680     0.026857035066     1.007825032230
         C            1.226330236892    -0.367553040320     0.026695035066    12.000000000000
         O            2.274750236892    -0.999246040320     0.026903035066    15.994914619570

  Basis Set: AUG-CC-PVTZ
    Blend: AUG-CC-PVTZ
  Basis Set: (AUG-CC-PVTZ AUX)
    Blend: AUG-CC-PVTZ-JKFIT
	 Reference Energy          =    -412.6053209936712847 [Eh]
	 Singles Energy            =      -0.0000000000000000 [Eh]
	 Same-Spin Energy          =      -0.4154396471041042 [Eh]
	 Opposite-Spin Energy      =      -1.2303134382383005 [Eh]
	 Correlation Energy        =      -1.6457530853424047 [Eh]
	 Total Energy              =    -414.2510740790136765 [Eh]

	 ================> DF-SCS-MP2 Energies <==================
	-----------------------------------------------------------
	 SCS Same-Spin Scale       =       0.3333333333333333 [-]
	 SCS Opposite-Spin Scale   =       1.2000000000000000 [-]
	 SCS Same-Spin Energy      =      -0.1384798823680347 [Eh]
	 SCS Opposite-Spin Energy  =      -1.4763761258859607 [Eh]
	 SCS Correlation Energy    =      -1.6148560082539953 [Eh]
	 SCS Total Energy          =    -414.2201770019252649 [Eh]
	-----------------------------------------------------------

  Dipole Moment: [D]
     X:     1.2837      Y:     4.1052      Z:     0.2241     Total:     4.3071

*** Psi4 exiting successfully. Buy a developer a beer!
