                               Psi4 1.3.2 release

  ==> Input File <==

--------------------------------------------------------------------------
#psi4
#
memory 32 gb

molecule  {
0 1
  N       -0.0337150    -0.9783820    -0.0001030
  H       -0.0465630    -1.9952990     0.0000230
  C       -1.2924060    -0.3478390    -0.0002800
  O       -2.3237930    -1.0132930     0.0001830
  C       -1.2062280     1.1067970     0.0000000
  H       -2.1261180     1.6763830     0.0001840
  C        0.0030631     1.7105639    -0.0499740
  H        0.1229620     2.7891690     0.0001530
  N        1.1742530     0.9863660    -0.0000120
  H        2.0766210     1.4468080     0.0000740
  C        1.2261220    -0.4021520    -0.0000880
  O        2.2745420    -1.0338450     0.0001200
units angstrom
no_reorient  #important for SAPT in psi4, default
symmetry c1  #important for SAPT in psi4, default
}

set PROPERTIES_ORIGIN ["COM"]
properties('MP2/aug-cc-pvtz', properties = ['dipole'])
--------------------------------------------------------------------------

    Molecular point group: c1
  Charge       = 0
  Multiplicity = 1
  Basis Set: AUG-CC-PVTZ
    Blend: AUG-CC-PVTZ
  Basis Set: (AUG-CC-PVTZ AUX)
    Blend: AUG-CC-PVTZ-JKFIT

    Orbital Energies [Eh]
    ---------------------

    Doubly Occupied:

       1A    -20.549495     2A    -20.544286     3A    -15.647173
       4A    -15.630792     5A    -11.423068     6A    -11.385403
       7A    -11.344793     8A    -11.260162     9A     -1.431676
      10A     -1.394192    11A     -1.310460    12A     -1.243600
      13A     -1.088314    14A     -0.932080    15A     -0.901024
      16A     -0.804761    17A     -0.762895    18A     -0.713030
      19A     -0.676927    20A     -0.666552    21A     -0.652395
      22A     -0.614611    23A     -0.600792    24A     -0.568919
      25A     -0.524861    26A     -0.484274    27A     -0.450808
      28A     -0.437429    29A     -0.370487

  @DF-RHF Final Energy:  -412.62016904175982

   => Energetics <=

    Nuclear Repulsion Energy =            355.3407961901279464
    One-Electron Energy =               -1267.0914124675121002
    Two-Electron Energy =                 499.1304472356242741
    Total Energy =                       -412.6201690417598229
  Basis Set: (AUG-CC-PVTZ AUX)
    Blend: AUG-CC-PVTZ-RI
    Molecular point group: c1

    Geometry (in Angstrom), charge = 0, multiplicity = 1:

       Center              X                  Y                   Z               Mass
    ------------   -----------------  -----------------  -----------------  -----------------
         N           -0.033509676684    -0.943784657783     0.005256681252    14.003074004430
         H           -0.046357676684    -1.960701657783     0.005382681252     1.007825032230
         C           -1.292200676684    -0.313241657783     0.005079681252    12.000000000000
         O           -2.323587676684    -0.978695657783     0.005542681252    15.994914619570
         C           -1.206022676684     1.141394342217     0.005359681252    12.000000000000
         H           -2.125912676684     1.710980342217     0.005543681252     1.007825032230
         C            0.003268423316     1.745161242217    -0.044614318748    12.000000000000
         H            0.123167323316     2.823766342217     0.005512681252     1.007825032230
         N            1.174458323316     1.020963342217     0.005347681252    14.003074004430
         H            2.076826323316     1.481405342217     0.005433681252     1.007825032230
         C            1.226327323316    -0.367554657783     0.005271681252    12.000000000000
         O            2.274747323316    -0.999247657783     0.005479681252    15.994914619570

  Basis Set: AUG-CC-PVTZ
    Blend: AUG-CC-PVTZ
  Basis Set: (AUG-CC-PVTZ AUX)
    Blend: AUG-CC-PVTZ-JKFIT
	 Reference Energy          =    -412.6201690417598229 [Eh]
	 Singles Energy            =      -0.0000000000000000 [Eh]
	 Same-Spin Energy          =      -0.4147665380813824 [Eh]
	 Opposite-Spin Energy      =      -1.2284497738377795 [Eh]
	 Correlation Energy        =      -1.6432163119191618 [Eh]
	 Total Energy              =    -414.2633853536789843 [Eh]

	 ================> DF-SCS-MP2 Energies <==================
	-----------------------------------------------------------
	 SCS Same-Spin Scale       =       0.3333333333333333 [-]
	 SCS Opposite-Spin Scale   =       1.2000000000000000 [-]
	 SCS Same-Spin Energy      =      -0.1382555126937941 [Eh]
	 SCS Opposite-Spin Energy  =      -1.4741397286053355 [Eh]
	 SCS Correlation Energy    =      -1.6123952412991296 [Eh]
	 SCS Total Energy          =    -414.2325642830589345 [Eh]
	-----------------------------------------------------------

  Dipole Moment: [D]
     X:     1.1629      Y:     4.1878      Z:     0.0025     Total:     4.3463

*** Psi4 exiting successfully. Buy a developer a beer!
