                               Psi4 1.3.2 release

  ==> Input File <==

--------------------------------------------------------------------------
#psi4
#
memory 32 gb

molecule  {
0 1
  N       -0.0337150    -0.9783820    -0.0001030
  H       -0.0465630    -1.9952990     0.0000230
  C       -1.2924060    -0.3478390    -0.0002800
  O       -2.3237930    -1.0132930     0.0001830
  C       -1.2062280     1.1067970     0.0000000
  H       -2.1261180     1.6763830     0.0001840
  C        0.0030670     1.7105540     0.0000260
  H        0.1229620     2.7891690     0.0001530
  N        1.1742530     0.9863660    -0.0000120
  H        2.0766210     1.4468080     0.0000740
  C        1.2261220    -0.4021520    -0.0000880
  O        2.2745661    -1.0338482    -0.2498800
units angstrom
no_reorient  #important for SAPT in psi4, default
symmetry c1  #important for SAPT in psi4, default
}

set PROPERTIES_ORIGIN ["COM"]
properties('MP2/aug-cc-pvtz', properties = ['dipole'])
--------------------------------------------------------------------------

    Molecular point group: c1
  Charge       = 0
  Multiplicity = 1
  Basis Set: AUG-CC-PVTZ
    Blend: AUG-CC-PVTZ
  Basis Set: (AUG-CC-PVTZ AUX)
    Blend: AUG-CC-PVTZ-JKFIT

    Orbital Energies [Eh]
    ---------------------

    Doubly Occupied:

       1A    -20.548704     2A    -20.545338     3A    -15.649732
       4A    -15.633222     5A    -11.427285     6A    -11.386713
       7A    -11.345878     8A    -11.261285     9A     -1.423289
      10A     -1.391763    11A     -1.307195    12A     -1.244786
      13A     -1.089781    14A     -0.933475    15A     -0.902677
      16A     -0.806591    17A     -0.762923    18A     -0.714588
      19A     -0.676664    20A     -0.665314    21A     -0.647288
      22A     -0.614566    23A     -0.600590    24A     -0.568526
      25A     -0.522213    26A     -0.481282    27A     -0.451378
      28A     -0.435833    29A     -0.371215

  @DF-RHF Final Energy:  -412.61261127934284

   => Energetics <=

    Nuclear Repulsion Energy =            354.7260713976790498
    One-Electron Energy =               -1265.8571798348252742
    Two-Electron Energy =                 498.5184971578033242
    Total Energy =                       -412.6126112793428433
  Basis Set: (AUG-CC-PVTZ AUX)
    Blend: AUG-CC-PVTZ-RI
    Molecular point group: c1

    Geometry (in Angstrom), charge = 0, multiplicity = 1:

       Center              X                  Y                   Z               Mass
    ------------   -----------------  -----------------  -----------------  -----------------
         N           -0.033513535364    -0.943783140441     0.035595083956    14.003074004430
         H           -0.046361535364    -1.960700140441     0.035721083956     1.007825032230
         C           -1.292204535364    -0.313240140441     0.035418083956    12.000000000000
         O           -2.323591535364    -0.978694140441     0.035881083956    15.994914619570
         C           -1.206026535364     1.141395859559     0.035698083956    12.000000000000
         H           -2.125916535364     1.710981859559     0.035882083956     1.007825032230
         C            0.003268464636     1.745152859559     0.035724083956    12.000000000000
         H            0.123163464636     2.823767859559     0.035851083956     1.007825032230
         N            1.174454464636     1.020964859559     0.035686083956    14.003074004430
         H            2.076822464636     1.481406859559     0.035772083956     1.007825032230
         C            1.226323464636    -0.367553140441     0.035610083956    12.000000000000
         O            2.274767564636    -0.999249340441    -0.214181916044    15.994914619570

  Basis Set: AUG-CC-PVTZ
    Blend: AUG-CC-PVTZ
  Basis Set: (AUG-CC-PVTZ AUX)
    Blend: AUG-CC-PVTZ-JKFIT
	 Reference Energy          =    -412.6126112793428433 [Eh]
	 Singles Energy            =      -0.0000000000000000 [Eh]
	 Same-Spin Energy          =      -0.4155373356259520 [Eh]
	 Opposite-Spin Energy      =      -1.2301789859731613 [Eh]
	 Correlation Energy        =      -1.6457163215991133 [Eh]
	 Total Energy              =    -414.2583276009419819 [Eh]

	 ================> DF-SCS-MP2 Energies <==================
	-----------------------------------------------------------
	 SCS Same-Spin Scale       =       0.3333333333333333 [-]
	 SCS Opposite-Spin Scale   =       1.2000000000000000 [-]
	 SCS Same-Spin Energy      =      -0.1385124452086506 [Eh]
	 SCS Opposite-Spin Energy  =      -1.4762147831677936 [Eh]
	 SCS Correlation Energy    =      -1.6147272283764442 [Eh]
	 SCS Total Energy          =    -414.2273385077193097 [Eh]
	-----------------------------------------------------------

  Dipole Moment: [D]
     X:     1.0652      Y:     4.2546      Z:     0.4587     Total:     4.4098

*** Psi4 exiting successfully. Buy a developer a beer!
