                               Psi4 1.3.2 release

  ==> Input File <==

--------------------------------------------------------------------------
#psi4
#
memory 32 gb

molecule  {
0 1
  N       -0.0337150    -0.9783820    -0.0001030
  H       -0.0465630    -1.9952990     0.0000230
  C       -1.2924060    -0.3478390    -0.0002800
  O       -2.3237930    -1.0132930     0.0001830
  C       -1.2062280     1.1067970     0.0000000
  H       -2.1261180     1.6763830     0.0001840
  C        0.0030515     1.7105935    -0.1999740
  H        0.1229620     2.7891690     0.0001530
  N        1.1742530     0.9863660    -0.0000120
  H        2.0766210     1.4468080     0.0000740
  C        1.2261220    -0.4021520    -0.0000880
  O        2.2745420    -1.0338450     0.0001200
units angstrom
no_reorient  #important for SAPT in psi4, default
symmetry c1  #important for SAPT in psi4, default
}

set PROPERTIES_ORIGIN ["COM"]
properties('MP2/aug-cc-pvtz', properties = ['dipole'])
--------------------------------------------------------------------------

    Molecular point group: c1
  Charge       = 0
  Multiplicity = 1
  Basis Set: AUG-CC-PVTZ
    Blend: AUG-CC-PVTZ
  Basis Set: (AUG-CC-PVTZ AUX)
    Blend: AUG-CC-PVTZ-JKFIT

    Orbital Energies [Eh]
    ---------------------

    Doubly Occupied:

       1A    -20.548741     2A    -20.546332     3A    -15.645424
       4A    -15.631135     5A    -11.421915     6A    -11.386773
       7A    -11.347535     8A    -11.266065     9A     -1.430800
      10A     -1.395479    11A     -1.306923    12A     -1.242514
      13A     -1.086477    14A     -0.929507    15A     -0.900305
      16A     -0.802933    17A     -0.759836    18A     -0.706779
      19A     -0.676760    20A     -0.665082    21A     -0.650624
      22A     -0.613329    23A     -0.600624    24A     -0.568532
      25A     -0.522894    26A     -0.483211    27A     -0.452081
      28A     -0.437696    29A     -0.369759

  @DF-RHF Final Energy:  -412.60748507833449

   => Energetics <=

    Nuclear Repulsion Energy =            354.8907619514989733
    One-Electron Energy =               -1266.2043602913656741
    Two-Electron Energy =                 498.7061132615322663
    Total Energy =                       -412.6074850783344914
  Basis Set: (AUG-CC-PVTZ AUX)
    Blend: AUG-CC-PVTZ-RI
    Molecular point group: c1

    Geometry (in Angstrom), charge = 0, multiplicity = 1:

       Center              X                  Y                   Z               Mass
    ------------   -----------------  -----------------  -----------------  -----------------
         N           -0.033508434130    -0.943787828439     0.021324196612    14.003074004430
         H           -0.046356434130    -1.960704828439     0.021450196612     1.007825032230
         C           -1.292199434130    -0.313244828439     0.021147196612    12.000000000000
         O           -2.323586434130    -0.978698828439     0.021610196612    15.994914619570
         C           -1.206021434130     1.141391171561     0.021427196612    12.000000000000
         H           -2.125911434130     1.710977171561     0.021611196612     1.007825032230
         C            0.003258065870     1.745187671561    -0.178546803388    12.000000000000
         H            0.123168565870     2.823763171561     0.021580196612     1.007825032230
         N            1.174459565870     1.020960171561     0.021415196612    14.003074004430
         H            2.076827565870     1.481402171561     0.021501196612     1.007825032230
         C            1.226328565870    -0.367557828439     0.021339196612    12.000000000000
         O            2.274748565870    -0.999250828439     0.021547196612    15.994914619570

  Basis Set: AUG-CC-PVTZ
    Blend: AUG-CC-PVTZ
  Basis Set: (AUG-CC-PVTZ AUX)
    Blend: AUG-CC-PVTZ-JKFIT
	 Reference Energy          =    -412.6074850783344914 [Eh]
	 Singles Energy            =      -0.0000000000000000 [Eh]
	 Same-Spin Energy          =      -0.4154432669564271 [Eh]
	 Opposite-Spin Energy      =      -1.2305167300266975 [Eh]
	 Correlation Energy        =      -1.6459599969831247 [Eh]
	 Total Energy              =    -414.2534450753176429 [Eh]

	 ================> DF-SCS-MP2 Energies <==================
	-----------------------------------------------------------
	 SCS Same-Spin Scale       =       0.3333333333333333 [-]
	 SCS Opposite-Spin Scale   =       1.2000000000000000 [-]
	 SCS Same-Spin Energy      =      -0.1384810889854757 [Eh]
	 SCS Opposite-Spin Energy  =      -1.4766200760320369 [Eh]
	 SCS Correlation Energy    =      -1.6151011650175127 [Eh]
	 SCS Total Energy          =    -414.2225862433519978 [Eh]
	-----------------------------------------------------------

  Dipole Moment: [D]
     X:     1.0386      Y:     4.1158      Z:     0.0221     Total:     4.2449

*** Psi4 exiting successfully. Buy a developer a beer!
