                               Psi4 1.3.2 release

  ==> Input File <==

--------------------------------------------------------------------------
#psi4
#
memory 32 gb

molecule  {
0 1
  N       -0.0337150    -0.9783820    -0.0001030
  H       -0.0465630    -1.9952990     0.0000230
  C       -1.2924060    -0.3478390    -0.0002800
  O       -2.3237930    -1.0132930     0.0001830
  C       -1.2062280     1.1067970     0.0000000
  H       -2.1261180     1.6763830     0.0001840
  C        0.0030670     1.7105540     0.0000260
  H        0.1229620     2.7891690     0.0001530
  N        1.1742530     0.9863660    -0.0000120
  H        2.0766210     1.4468080     0.0000740
  C        1.2261404    -0.4021841    -0.2500880
  O        2.2745420    -1.0338450     0.0001200
units angstrom
no_reorient  #important for SAPT in psi4, default
symmetry c1  #important for SAPT in psi4, default
}

set PROPERTIES_ORIGIN ["COM"]
properties('MP2/aug-cc-pvtz', properties = ['dipole'])
--------------------------------------------------------------------------

    Molecular point group: c1
  Charge       = 0
  Multiplicity = 1
  Basis Set: AUG-CC-PVTZ
    Blend: AUG-CC-PVTZ
  Basis Set: (AUG-CC-PVTZ AUX)
    Blend: AUG-CC-PVTZ-JKFIT

    Orbital Energies [Eh]
    ---------------------

    Doubly Occupied:

       1A    -20.554817     2A    -20.543796     3A    -15.648123
       4A    -15.631945     5A    -11.431902     6A    -11.383966
       7A    -11.343082     8A    -11.259625     9A     -1.422622
      10A     -1.391333    11A     -1.302540    12A     -1.238194
      13A     -1.085831    14A     -0.927742    15A     -0.896461
      16A     -0.802962    17A     -0.756421    18A     -0.712245
      19A     -0.675436    20A     -0.660056    21A     -0.647487
      22A     -0.613500    23A     -0.599731    24A     -0.565549
      25A     -0.520258    26A     -0.481474    27A     -0.450972
      28A     -0.432959    29A     -0.369163

  @DF-RHF Final Energy:  -412.58926797449556

   => Energetics <=

    Nuclear Repulsion Energy =            354.2956518425670538
    One-Electron Energy =               -1265.0694528210262888
    Two-Electron Energy =                 498.1845330039636792
    Total Energy =                       -412.5892679744955558
  Basis Set: (AUG-CC-PVTZ AUX)
    Blend: AUG-CC-PVTZ-RI
    Molecular point group: c1

    Geometry (in Angstrom), charge = 0, multiplicity = 1:

       Center              X                  Y                   Z               Mass
    ------------   -----------------  -----------------  -----------------  -----------------
         N           -0.033512065388    -0.943780158879     0.026680035066    14.003074004430
         H           -0.046360065388    -1.960697158879     0.026806035066     1.007825032230
         C           -1.292203065388    -0.313237158879     0.026503035066    12.000000000000
         O           -2.323590065388    -0.978691158879     0.026966035066    15.994914619570
         C           -1.206025065388     1.141398841121     0.026783035066    12.000000000000
         H           -2.125915065388     1.710984841121     0.026967035066     1.007825032230
         C            0.003269934612     1.745155841121     0.026809035066    12.000000000000
         H            0.123164934612     2.823770841121     0.026936035066     1.007825032230
         N            1.174455934612     1.020967841121     0.026771035066    14.003074004430
         H            2.076823934612     1.481409841121     0.026857035066     1.007825032230
         C            1.226343334612    -0.367582258879    -0.223304964934    12.000000000000
         O            2.274744934612    -0.999243158879     0.026903035066    15.994914619570

  Basis Set: AUG-CC-PVTZ
    Blend: AUG-CC-PVTZ
  Basis Set: (AUG-CC-PVTZ AUX)
    Blend: AUG-CC-PVTZ-JKFIT
	 Reference Energy          =    -412.5892679744955558 [Eh]
	 Singles Energy            =      -0.0000000000000000 [Eh]
	 Same-Spin Energy          =      -0.4166836832421655 [Eh]
	 Opposite-Spin Energy      =      -1.2333760994681047 [Eh]
	 Correlation Energy        =      -1.6500597827102701 [Eh]
	 Total Energy              =    -414.2393277572058423 [Eh]

	 ================> DF-SCS-MP2 Energies <==================
	-----------------------------------------------------------
	 SCS Same-Spin Scale       =       0.3333333333333333 [-]
	 SCS Opposite-Spin Scale   =       1.2000000000000000 [-]
	 SCS Same-Spin Energy      =      -0.1388945610807218 [Eh]
	 SCS Opposite-Spin Energy  =      -1.4800513193617255 [Eh]
	 SCS Correlation Energy    =      -1.6189458804424472 [Eh]
	 SCS Total Energy          =    -414.2082138549379806 [Eh]
	-----------------------------------------------------------

  Dipole Moment: [D]
     X:     1.2100      Y:     4.1529      Z:    -0.3583     Total:     4.3404

*** Psi4 exiting successfully. Buy a developer a beer!
