                               Psi4 1.3.2 release

  ==> Input File <==

--------------------------------------------------------------------------
#psi4
#
memory 32 gb

molecule  {
0 1
  N       -0.0337150    -0.9783820    -0.0001030
  H       -0.0465630    -1.9952990     0.0000230
  C       -1.2924060    -0.3478390    -0.0002800
  O       -2.3237930    -1.0132930     0.0001830
  C       -1.2062280     1.1067970     0.0000000
  H       -2.1261180     1.6763830     0.0001840
  C        0.0030670     1.7105540     0.0000260
  H        0.1229620     2.7891690     0.0001530
  N        1.1742530     0.9863660    -0.0000120
  H        2.0766210     1.4468080     0.0000740
  C        1.2261269    -0.4021411    -0.1500880
  O        2.2745420    -1.0338450     0.0001200
units angstrom
no_reorient  #important for SAPT in psi4, default
symmetry c1  #important for SAPT in psi4, default
}

set PROPERTIES_ORIGIN ["COM"]
properties('MP2/aug-cc-pvtz', properties = ['dipole'])
--------------------------------------------------------------------------

    Molecular point group: c1
  Charge       = 0
  Multiplicity = 1
  Basis Set: AUG-CC-PVTZ
    Blend: AUG-CC-PVTZ
  Basis Set: (AUG-CC-PVTZ AUX)
    Blend: AUG-CC-PVTZ-JKFIT

    Orbital Energies [Eh]
    ---------------------

    Doubly Occupied:

       1A    -20.551441     2A    -20.544020     3A    -15.647619
       4A    -15.631227     5A    -11.426454     6A    -11.384819
       7A    -11.344046     8A    -11.259712     9A     -1.428314
      10A     -1.393169    11A     -1.307680    12A     -1.241655
      13A     -1.087485    14A     -0.930603    15A     -0.899382
      16A     -0.804201    17A     -0.760663    18A     -0.713028
      19A     -0.676443    20A     -0.664165    21A     -0.650719
      22A     -0.614284    23A     -0.600427    24A     -0.567688
      25A     -0.523223    26A     -0.483238    27A     -0.450889
      28A     -0.435690    29A     -0.370041

  @DF-RHF Final Energy:  -412.60960782833712

   => Energetics <=

    Nuclear Repulsion Energy =            354.9779010120335556
    One-Electron Energy =               -1266.3903688855375549
    Two-Electron Energy =                 498.8028600451669377
    Total Energy =                       -412.6096078283371185
  Basis Set: (AUG-CC-PVTZ AUX)
    Blend: AUG-CC-PVTZ-RI
    Molecular point group: c1

    Geometry (in Angstrom), charge = 0, multiplicity = 1:

       Center              X                  Y                   Z               Mass
    ------------   -----------------  -----------------  -----------------  -----------------
         N           -0.033510619312    -0.943784764900     0.015968358159    14.003074004430
         H           -0.046358619312    -1.960701764900     0.016094358159     1.007825032230
         C           -1.292201619312    -0.313241764900     0.015791358159    12.000000000000
         O           -2.323588619312    -0.978695764900     0.016254358159    15.994914619570
         C           -1.206023619312     1.141394235100     0.016071358159    12.000000000000
         H           -2.125913619312     1.710980235100     0.016255358159     1.007825032230
         C            0.003271380688     1.745151235100     0.016097358159    12.000000000000
         H            0.123166380688     2.823766235100     0.016224358159     1.007825032230
         N            1.174457380688     1.020963235100     0.016059358159    14.003074004430
         H            2.076825380688     1.481405235100     0.016145358159     1.007825032230
         C            1.226331280688    -0.367543864900    -0.134016641841    12.000000000000
         O            2.274746380688    -0.999247764900     0.016191358159    15.994914619570

  Basis Set: AUG-CC-PVTZ
    Blend: AUG-CC-PVTZ
  Basis Set: (AUG-CC-PVTZ AUX)
    Blend: AUG-CC-PVTZ-JKFIT
	 Reference Energy          =    -412.6096078283371185 [Eh]
	 Singles Energy            =      -0.0000000000000000 [Eh]
	 Same-Spin Energy          =      -0.4154315762289820 [Eh]
	 Opposite-Spin Energy      =      -1.2300610615747998 [Eh]
	 Correlation Energy        =      -1.6454926378037817 [Eh]
	 Total Energy              =    -414.2551004661409024 [Eh]

	 ================> DF-SCS-MP2 Energies <==================
	-----------------------------------------------------------
	 SCS Same-Spin Scale       =       0.3333333333333333 [-]
	 SCS Opposite-Spin Scale   =       1.2000000000000000 [-]
	 SCS Same-Spin Energy      =      -0.1384771920763273 [Eh]
	 SCS Opposite-Spin Energy  =      -1.4760732738897597 [Eh]
	 SCS Correlation Energy    =      -1.6145504659660870 [Eh]
	 SCS Total Energy          =    -414.2241582943032085 [Eh]
	-----------------------------------------------------------

  Dipole Moment: [D]
     X:     1.1854      Y:     4.1781      Z:    -0.2246     Total:     4.3488

*** Psi4 exiting successfully. Buy a developer a beer!
