                               Psi4 1.3.2 release

  ==> Input File <==

--------------------------------------------------------------------------
#psi4
#
memory 32 gb

molecule  {
0 1
  N       -0.0337150    -0.9783820    -0.0001030
  H       -0.0465630    -1.9952990     0.0000230
  C       -1.2924060    -0.3478390    -0.0002800
  O       -2.3237930    -1.0132930     0.0001830
  C       -1.2062280     1.1067970     0.0000000
  H       -2.1261180     1.6763830     0.0001840
  C        0.0030670     1.7105540     0.0000260
  H        0.1229620     2.7891690     0.0001530
  N        1.1742530     0.9863660    -0.0000120
  H        2.0766210     1.4468080     0.0000740
  C        1.2261220    -0.4021520    -0.0000880
  O        2.2745564    -1.0338469    -0.1498800
units angstrom
no_reorient  #important for SAPT in psi4, default
symmetry c1  #important for SAPT in psi4, default
}

set PROPERTIES_ORIGIN ["COM"]
properties('MP2/aug-cc-pvtz', properties = ['dipole'])
--------------------------------------------------------------------------

    Molecular point group: c1
  Charge       = 0
  Multiplicity = 1
  Basis Set: AUG-CC-PVTZ
    Blend: AUG-CC-PVTZ
  Basis Set: (AUG-CC-PVTZ AUX)
    Blend: AUG-CC-PVTZ-JKFIT

    Orbital Energies [Eh]
    ---------------------

    Doubly Occupied:

       1A    -20.549244     2A    -20.544586     3A    -15.648181
       4A    -15.631666     5A    -11.424686     6A    -11.385827
       7A    -11.345070     8A    -11.260320     9A     -1.428308
      10A     -1.393429    11A     -1.309554    12A     -1.244086
      13A     -1.088930    14A     -0.932698    15A     -0.901659
      16A     -0.805521    17A     -0.763015    18A     -0.713866
      19A     -0.676777    20A     -0.666119    21A     -0.650625
      22A     -0.614670    23A     -0.600757    24A     -0.568760
      25A     -0.523997    26A     -0.483221    27A     -0.450991
      28A     -0.436852    29A     -0.370789

  @DF-RHF Final Energy:  -412.61810085633482

   => Energetics <=

    Nuclear Repulsion Energy =            355.1357668946191097
    One-Electron Energy =               -1266.6793306631341238
    Two-Electron Energy =                 498.9254629121801941
    Total Energy =                       -412.6181008563348200
  Basis Set: (AUG-CC-PVTZ AUX)
    Blend: AUG-CC-PVTZ-RI
    Molecular point group: c1

    Geometry (in Angstrom), charge = 0, multiplicity = 1:

       Center              X                  Y                   Z               Mass
    ------------   -----------------  -----------------  -----------------  -----------------
         N           -0.033512150428    -0.943783326051     0.021317387493    14.003074004430
         H           -0.046360150428    -1.960700326051     0.021443387493     1.007825032230
         C           -1.292203150428    -0.313240326051     0.021140387493    12.000000000000
         O           -2.323590150428    -0.978694326051     0.021603387493    15.994914619570
         C           -1.206025150428     1.141395673949     0.021420387493    12.000000000000
         H           -2.125915150428     1.710981673949     0.021604387493     1.007825032230
         C            0.003269849572     1.745152673949     0.021446387493    12.000000000000
         H            0.123164849572     2.823767673949     0.021573387493     1.007825032230
         N            1.174455849572     1.020964673949     0.021408387493    14.003074004430
         H            2.076823849572     1.481406673949     0.021494387493     1.007825032230
         C            1.226324849572    -0.367553326051     0.021332387493    12.000000000000
         O            2.274759249572    -0.999248226051    -0.128459612507    15.994914619570

  Basis Set: AUG-CC-PVTZ
    Blend: AUG-CC-PVTZ
  Basis Set: (AUG-CC-PVTZ AUX)
    Blend: AUG-CC-PVTZ-JKFIT
	 Reference Energy          =    -412.6181008563348200 [Eh]
	 Singles Energy            =      -0.0000000000000000 [Eh]
	 Same-Spin Energy          =      -0.4150199341539191 [Eh]
	 Opposite-Spin Energy      =      -1.2290063160200360 [Eh]
	 Correlation Energy        =      -1.6440262501739551 [Eh]
	 Total Energy              =    -414.2621271065087853 [Eh]

	 ================> DF-SCS-MP2 Energies <==================
	-----------------------------------------------------------
	 SCS Same-Spin Scale       =       0.3333333333333333 [-]
	 SCS Opposite-Spin Scale   =       1.2000000000000000 [-]
	 SCS Same-Spin Energy      =      -0.1383399780513064 [Eh]
	 SCS Opposite-Spin Energy  =      -1.4748075792240432 [Eh]
	 SCS Correlation Energy    =      -1.6131475572753495 [Eh]
	 SCS Total Energy          =    -414.2312484136101602 [Eh]
	-----------------------------------------------------------

  Dipole Moment: [D]
     X:     1.1326      Y:     4.2153      Z:     0.2739     Total:     4.3734

*** Psi4 exiting successfully. Buy a developer a beer!
