                               Psi4 1.3.2 release

  ==> Input File <==

--------------------------------------------------------------------------
#psi4
#
memory 32 gb

molecule  {
0 1
  N       -0.0337150    -0.9783820    -0.0001030
  H       -0.0465630    -1.9952990     0.0000230
  C       -1.2924060    -0.3478390    -0.0002800
  O       -2.3237930    -1.0132930     0.0001830
  C       -1.2062280     1.1067970     0.0000000
  H       -2.1261180     1.6763830     0.0001840
  C        0.0030670     1.7105540     0.0000260
  H        0.1229620     2.7891690     0.0001530
  N        1.1742530     0.9863660    -0.0000120
  H        2.0766210     1.4468080     0.0000740
  C        1.2261301    -0.4021338    -0.2500880
  O        2.2745420    -1.0338450     0.0001200
units angstrom
no_reorient  #important for SAPT in psi4, default
symmetry c1  #important for SAPT in psi4, default
}

set PROPERTIES_ORIGIN ["COM"]
properties('MP2/aug-cc-pvtz', properties = ['dipole'])
--------------------------------------------------------------------------

    Molecular point group: c1
  Charge       = 0
  Multiplicity = 1
  Basis Set: AUG-CC-PVTZ
    Blend: AUG-CC-PVTZ
  Basis Set: (AUG-CC-PVTZ AUX)
    Blend: AUG-CC-PVTZ-JKFIT

    Orbital Energies [Eh]
    ---------------------

    Doubly Occupied:

       1A    -20.554808     2A    -20.543796     3A    -15.648131
       4A    -15.631945     5A    -11.431900     6A    -11.383966
       7A    -11.343086     8A    -11.259631     9A     -1.422612
      10A     -1.391329    11A     -1.302543    12A     -1.238193
      13A     -1.085837    14A     -0.927752    15A     -0.896460
      16A     -0.802968    17A     -0.756426    18A     -0.712248
      19A     -0.675435    20A     -0.660056    21A     -0.647481
      22A     -0.613499    23A     -0.599733    24A     -0.565550
      25A     -0.520252    26A     -0.481469    27A     -0.450970
      28A     -0.432955    29A     -0.369168

  @DF-RHF Final Energy:  -412.58926549591990

   => Energetics <=

    Nuclear Repulsion Energy =            354.2958243947117580
    One-Electron Energy =               -1265.0697823737264116
    Two-Electron Energy =                 498.1846924830947501
    Total Energy =                       -412.5892654959199035
  Basis Set: (AUG-CC-PVTZ AUX)
    Blend: AUG-CC-PVTZ-RI
    Molecular point group: c1

    Geometry (in Angstrom), charge = 0, multiplicity = 1:

       Center              X                  Y                   Z               Mass
    ------------   -----------------  -----------------  -----------------  -----------------
         N           -0.033510962085    -0.943785546852     0.026680035066    14.003074004430
         H           -0.046358962085    -1.960702546852     0.026806035066     1.007825032230
         C           -1.292201962085    -0.313242546852     0.026503035066    12.000000000000
         O           -2.323588962085    -0.978696546852     0.026966035066    15.994914619570
         C           -1.206023962085     1.141393453148     0.026783035066    12.000000000000
         H           -2.125913962085     1.710979453148     0.026967035066     1.007825032230
         C            0.003271037915     1.745150453148     0.026809035066    12.000000000000
         H            0.123166037915     2.823765453148     0.026936035066     1.007825032230
         N            1.174457037915     1.020962453148     0.026771035066    14.003074004430
         H            2.076825037915     1.481404453148     0.026857035066     1.007825032230
         C            1.226334137915    -0.367537346852    -0.223304964934    12.000000000000
         O            2.274746037915    -0.999248546852     0.026903035066    15.994914619570

  Basis Set: AUG-CC-PVTZ
    Blend: AUG-CC-PVTZ
  Basis Set: (AUG-CC-PVTZ AUX)
    Blend: AUG-CC-PVTZ-JKFIT
	 Reference Energy          =    -412.5892654959199035 [Eh]
	 Singles Energy            =      -0.0000000000000000 [Eh]
	 Same-Spin Energy          =      -0.4166840891147603 [Eh]
	 Opposite-Spin Energy      =      -1.2333769472605454 [Eh]
	 Correlation Energy        =      -1.6500610363753057 [Eh]
	 Total Energy              =    -414.2393265322951947 [Eh]

	 ================> DF-SCS-MP2 Energies <==================
	-----------------------------------------------------------
	 SCS Same-Spin Scale       =       0.3333333333333333 [-]
	 SCS Opposite-Spin Scale   =       1.2000000000000000 [-]
	 SCS Same-Spin Energy      =      -0.1388946963715867 [Eh]
	 SCS Opposite-Spin Energy  =      -1.4800523367126543 [Eh]
	 SCS Correlation Energy    =      -1.6189470330842410 [Eh]
	 SCS Total Energy          =    -414.2082125290041290 [Eh]
	-----------------------------------------------------------

  Dipole Moment: [D]
     X:     1.2098      Y:     4.1532      Z:    -0.3583     Total:     4.3406

*** Psi4 exiting successfully. Buy a developer a beer!
