                               Psi4 1.3.2 release

  ==> Input File <==

--------------------------------------------------------------------------
#psi4
#
memory 32 gb

molecule  {
0 1
  N       -0.0337150    -0.9783820    -0.0001030
  H       -0.0465630    -1.9952990     0.0000230
  C       -1.2924060    -0.3478390    -0.0002800
  O       -2.3237930    -1.0132930     0.0001830
  C       -1.2062280     1.1067970     0.0000000
  H       -2.1261180     1.6763830     0.0001840
  C        0.0030670     1.7105540     0.0000260
  H        0.1229620     2.7891690     0.0001530
  N        1.1742529     0.9863888    -0.2500120
  H        2.0766210     1.4468080     0.0000740
  C        1.2261220    -0.4021520    -0.0000880
  O        2.2745420    -1.0338450     0.0001200
units angstrom
no_reorient  #important for SAPT in psi4, default
symmetry c1  #important for SAPT in psi4, default
}

set PROPERTIES_ORIGIN ["COM"]
properties('MP2/aug-cc-pvtz', properties = ['dipole'])
--------------------------------------------------------------------------

    Molecular point group: c1
  Charge       = 0
  Multiplicity = 1
  Basis Set: AUG-CC-PVTZ
    Blend: AUG-CC-PVTZ
  Basis Set: (AUG-CC-PVTZ AUX)
    Blend: AUG-CC-PVTZ-JKFIT

    Orbital Energies [Eh]
    ---------------------

    Doubly Occupied:

       1A    -20.553796     2A    -20.547615     3A    -15.647796
       4A    -15.631663     5A    -11.424561     6A    -11.387459
       7A    -11.343038     8A    -11.262546     9A     -1.431278
      10A     -1.396589    11A     -1.303901    12A     -1.241118
      13A     -1.086774    14A     -0.924815    15A     -0.897828
      16A     -0.794388    17A     -0.757424    18A     -0.711723
      19A     -0.677055    20A     -0.664316    21A     -0.648630
      22A     -0.612841    23A     -0.602075    24A     -0.569734
      25A     -0.523263    26A     -0.485374    27A     -0.453339
      28A     -0.438568    29A     -0.375353

  @DF-RHF Final Energy:  -412.61066444104307

   => Energetics <=

    Nuclear Repulsion Energy =            354.4959174652469756
    One-Electron Energy =               -1265.4234376523259016
    Two-Electron Energy =                 498.3168557460358556
    Total Energy =                       -412.6106644410430704
  Basis Set: (AUG-CC-PVTZ AUX)
    Blend: AUG-CC-PVTZ-RI
    Molecular point group: c1

    Geometry (in Angstrom), charge = 0, multiplicity = 1:

       Center              X                  Y                   Z               Mass
    ------------   -----------------  -----------------  -----------------  -----------------
         N           -0.033510081940    -0.943786447259     0.031150093723    14.003074004430
         H           -0.046358081940    -1.960703447259     0.031276093723     1.007825032230
         C           -1.292201081940    -0.313243447259     0.030973093723    12.000000000000
         O           -2.323588081940    -0.978697447259     0.031436093723    15.994914619570
         C           -1.206023081940     1.141392552741     0.031253093723    12.000000000000
         H           -2.125913081940     1.710978552741     0.031437093723     1.007825032230
         C            0.003271918060     1.745149552741     0.031279093723    12.000000000000
         H            0.123166918060     2.823764552741     0.031406093723     1.007825032230
         N            1.174457818060     1.020984352741    -0.218758906277    14.003074004430
         H            2.076825918060     1.481403552741     0.031327093723     1.007825032230
         C            1.226326918060    -0.367556447259     0.031165093723    12.000000000000
         O            2.274746918060    -0.999249447259     0.031373093723    15.994914619570

  Basis Set: AUG-CC-PVTZ
    Blend: AUG-CC-PVTZ
  Basis Set: (AUG-CC-PVTZ AUX)
    Blend: AUG-CC-PVTZ-JKFIT
	 Reference Energy          =    -412.6106644410430704 [Eh]
	 Singles Energy            =      -0.0000000000000000 [Eh]
	 Same-Spin Energy          =      -0.4149005251845991 [Eh]
	 Opposite-Spin Energy      =      -1.2301794417031324 [Eh]
	 Correlation Energy        =      -1.6450799668877316 [Eh]
	 Total Energy              =    -414.2557444079308198 [Eh]

	 ================> DF-SCS-MP2 Energies <==================
	-----------------------------------------------------------
	 SCS Same-Spin Scale       =       0.3333333333333333 [-]
	 SCS Opposite-Spin Scale   =       1.2000000000000000 [-]
	 SCS Same-Spin Energy      =      -0.1383001750615330 [Eh]
	 SCS Opposite-Spin Energy  =      -1.4762153300437588 [Eh]
	 SCS Correlation Energy    =      -1.6145155051052917 [Eh]
	 SCS Total Energy          =    -414.2251799461483870 [Eh]
	-----------------------------------------------------------

  Dipole Moment: [D]
     X:     1.0244      Y:     3.9934      Z:     0.3026     Total:     4.1338

*** Psi4 exiting successfully. Buy a developer a beer!
