                               Psi4 1.3.2 release

  ==> Input File <==

--------------------------------------------------------------------------
#psi4
#
memory 32 gb

molecule  {
0 1
  O       -2.5416370     0.0659770    -0.3927070
  N       -0.7122740    -1.2241950    -0.0249760
  C        1.8380290     0.7314390    -0.0343340
  C        1.7187040    -0.7521010    -0.3806110
  C        0.5749500     1.5632640    -0.2598230
  C        0.6466580    -1.4925250     0.4187290
  C       -0.6257670     1.1444980     0.6024810
  C       -1.4243018    -0.0561992     0.0100909
  H        2.6566510     1.1652070    -0.6217190
  H        2.1344690     0.8237010     1.0199600
  H        1.5025340    -0.8781880    -1.4483810
  H        2.6863370    -1.2343500    -0.1898600
  H        0.2863390     1.5300770    -1.3181450
  H        0.8108260     2.6104720    -0.0371320
  H        0.7923570    -2.5718330     0.3164690
  H        0.7525260    -1.2638240     1.4882170
  H       -1.3561390     1.9546950     0.6612310
  H       -0.2921570     0.9237120     1.6255030
  H       -1.2491170    -1.9758090    -0.4428220
units angstrom
no_reorient  #important for SAPT in psi4, default
symmetry c1  #important for SAPT in psi4, default
}

set PROPERTIES_ORIGIN ["COM"]
properties('MP2/aug-cc-pvtz', properties = ['dipole'])
--------------------------------------------------------------------------

    Molecular point group: c1
  Charge       = 0
  Multiplicity = 1
  Basis Set: AUG-CC-PVTZ
    Blend: AUG-CC-PVTZ
  Basis Set: (AUG-CC-PVTZ AUX)
    Blend: AUG-CC-PVTZ-JKFIT

    Orbital Energies [Eh]
    ---------------------

    Doubly Occupied:

       1A    -20.514703     2A    -15.575764     3A    -11.340334
       4A    -11.277329     5A    -11.233651     6A    -11.233104
       7A    -11.232944     8A    -11.231152     9A     -1.389069
      10A     -1.230531    11A     -1.090812    12A     -1.036989
      13A     -0.941052    14A     -0.884568    15A     -0.793001
      16A     -0.759425    17A     -0.689163    18A     -0.676699
      19A     -0.626819    20A     -0.610742    21A     -0.600747
      22A     -0.596866    23A     -0.570135    24A     -0.548371
      25A     -0.524359    26A     -0.515409    27A     -0.479417
      28A     -0.471811    29A     -0.467069    30A     -0.407368
      31A     -0.386122

  @DF-RHF Final Energy:  -363.07555409020722

   => Energetics <=

    Nuclear Repulsion Energy =            394.0337798364215587
    One-Electron Energy =               -1274.3476166717375690
    Two-Electron Energy =                 517.2382827451087906
    Total Energy =                       -363.0755540902072198
  Basis Set: (AUG-CC-PVTZ AUX)
    Blend: AUG-CC-PVTZ-RI
    Molecular point group: c1

    Geometry (in Angstrom), charge = 0, multiplicity = 1:

       Center              X                  Y                   Z               Mass
    ------------   -----------------  -----------------  -----------------  -----------------
         O           -2.461208961400     0.077776592380    -0.381289850707    15.994914619570
         N           -0.631845961400    -1.212395407620    -0.013558850707    14.003074004430
         C            1.918457038600     0.743238592380    -0.022916850707    12.000000000000
         C            1.799132038600    -0.740301407620    -0.369193850707    12.000000000000
         C            0.655378038600     1.575063592380    -0.248405850707    12.000000000000
         C            0.727086038600    -1.480725407620     0.430146149293    12.000000000000
         C           -0.545338961400     1.156297592380     0.613898149293    12.000000000000
         C           -1.343873761400    -0.044399607620     0.021508049293    12.000000000000
         H            2.737079038600     1.177006592380    -0.610301850707     1.007825032230
         H            2.214897038600     0.835500592380     1.031377149293     1.007825032230
         H            1.582962038600    -0.866388407620    -1.436963850707     1.007825032230
         H            2.766765038600    -1.222550407620    -0.178442850707     1.007825032230
         H            0.366767038600     1.541876592380    -1.306727850707     1.007825032230
         H            0.891254038600     2.622271592380    -0.025714850707     1.007825032230
         H            0.872785038600    -2.560033407620     0.327886149293     1.007825032230
         H            0.832954038600    -1.252024407620     1.499634149293     1.007825032230
         H           -1.275710961400     1.966494592380     0.672648149293     1.007825032230
         H           -0.211728961400     0.935511592380     1.636920149293     1.007825032230
         H           -1.168688961400    -1.964009407620    -0.431404850707     1.007825032230

  Basis Set: AUG-CC-PVTZ
    Blend: AUG-CC-PVTZ
  Basis Set: (AUG-CC-PVTZ AUX)
    Blend: AUG-CC-PVTZ-JKFIT
	 Reference Energy          =    -363.0755540902072198 [Eh]
	 Singles Energy            =      -0.0000000000000000 [Eh]
	 Same-Spin Energy          =      -0.3767534048162446 [Eh]
	 Opposite-Spin Energy      =      -1.2458396287647169 [Eh]
	 Correlation Energy        =      -1.6225930335809615 [Eh]
	 Total Energy              =    -364.6981471237882033 [Eh]

	 ================> DF-SCS-MP2 Energies <==================
	-----------------------------------------------------------
	 SCS Same-Spin Scale       =       0.3333333333333333 [-]
	 SCS Opposite-Spin Scale   =       1.2000000000000000 [-]
	 SCS Same-Spin Energy      =      -0.1255844682720815 [Eh]
	 SCS Opposite-Spin Energy  =      -1.4950075545176602 [Eh]
	 SCS Correlation Energy    =      -1.6205920227897417 [Eh]
	 SCS Total Energy          =    -364.6961461129969848 [Eh]
	-----------------------------------------------------------

  Dipole Moment: [D]
     X:     3.8124      Y:    -1.1017      Z:     0.8060     Total:     4.0494

*** Psi4 exiting successfully. Buy a developer a beer!
