                               Psi4 1.3.2 release

  ==> Input File <==

--------------------------------------------------------------------------
#psi4
#
memory 32 gb

molecule  {
0 1
  O       -2.5416370     0.0659770    -0.3927070
  N       -0.7122740    -1.2241950    -0.0249760
  C        1.8380290     0.7314390    -0.0343340
  C        1.7187040    -0.7521010    -0.3806110
  C        0.5749500     1.5632640    -0.2598230
  C        0.6466580    -1.4925250     0.4187290
  C       -0.6257670     1.1444980     0.6024810
  C       -1.3868420    -0.0349600     0.0307530
  H        2.6566510     1.1652070    -0.6217190
  H        2.1344690     0.8237010     1.0199600
  H        1.4631123    -0.9011818    -1.6431044
  H        2.6863370    -1.2343500    -0.1898600
  H        0.2863390     1.5300770    -1.3181450
  H        0.8108260     2.6104720    -0.0371320
  H        0.7923570    -2.5718330     0.3164690
  H        0.7525260    -1.2638240     1.4882170
  H       -1.3561390     1.9546950     0.6612310
  H       -0.2921570     0.9237120     1.6255030
  H       -1.2491170    -1.9758090    -0.4428220
units angstrom
no_reorient  #important for SAPT in psi4, default
symmetry c1  #important for SAPT in psi4, default
}

set PROPERTIES_ORIGIN ["COM"]
properties('MP2/aug-cc-pvtz', properties = ['dipole'])
--------------------------------------------------------------------------

    Molecular point group: c1
  Charge       = 0
  Multiplicity = 1
  Basis Set: AUG-CC-PVTZ
    Blend: AUG-CC-PVTZ
  Basis Set: (AUG-CC-PVTZ AUX)
    Blend: AUG-CC-PVTZ-JKFIT

    Orbital Energies [Eh]
    ---------------------

    Doubly Occupied:

       1A    -20.509255     2A    -15.578810     3A    -11.343292
       4A    -11.280142     5A    -11.257400     6A    -11.237222
       7A    -11.236510     8A    -11.235850     9A     -1.363615
      10A     -1.228434    11A     -1.093439    12A     -1.039842
      13A     -0.946710    14A     -0.885656    15A     -0.786232
      16A     -0.763930    17A     -0.685899    18A     -0.677672
      19A     -0.626351    20A     -0.609815    21A     -0.598989
      22A     -0.591311    23A     -0.571306    24A     -0.546204
      25A     -0.520334    26A     -0.504824    27A     -0.472466
      28A     -0.471722    29A     -0.464415    30A     -0.410859
      31A     -0.383623

  @DF-RHF Final Energy:  -363.05586501874126

   => Energetics <=

    Nuclear Repulsion Energy =            393.2502916342493222
    One-Electron Energy =               -1272.7680523187805193
    Two-Electron Energy =                 516.4618956657899389
    Total Energy =                       -363.0558650187412013
  Basis Set: (AUG-CC-PVTZ AUX)
    Blend: AUG-CC-PVTZ-RI
    Molecular point group: c1

    Geometry (in Angstrom), charge = 0, multiplicity = 1:

       Center              X                  Y                   Z               Mass
    ------------   -----------------  -----------------  -----------------  -----------------
         O           -2.464832702973     0.075727703574    -0.381747015769    15.994914619570
         N           -0.635469702973    -1.214444296426    -0.014016015769    14.003074004430
         C            1.914833297027     0.741189703574    -0.023374015769    12.000000000000
         C            1.795508297027    -0.742350296426    -0.369651015769    12.000000000000
         C            0.651754297027     1.573014703574    -0.248863015769    12.000000000000
         C            0.723462297027    -1.482774296426     0.429688984231    12.000000000000
         C           -0.548962702973     1.154248703574     0.613440984231    12.000000000000
         C           -1.310037702973    -0.025209296426     0.041712984231    12.000000000000
         H            2.733455297027     1.174957703574    -0.610759015769     1.007825032230
         H            2.211273297027     0.833451703574     1.030919984231     1.007825032230
         H            1.539916597027    -0.891431096426    -1.632144415769     1.007825032230
         H            2.763141297027    -1.224599296426    -0.178900015769     1.007825032230
         H            0.363143297027     1.539827703574    -1.307185015769     1.007825032230
         H            0.887630297027     2.620222703574    -0.026172015769     1.007825032230
         H            0.869161297027    -2.562082296426     0.327428984231     1.007825032230
         H            0.829330297027    -1.254073296426     1.499176984231     1.007825032230
         H           -1.279334702973     1.964445703574     0.672190984231     1.007825032230
         H           -0.215352702973     0.933462703574     1.636462984231     1.007825032230
         H           -1.172312702973    -1.966058296426    -0.431862015769     1.007825032230

  Basis Set: AUG-CC-PVTZ
    Blend: AUG-CC-PVTZ
  Basis Set: (AUG-CC-PVTZ AUX)
    Blend: AUG-CC-PVTZ-JKFIT
	 Reference Energy          =    -363.0558650187412582 [Eh]
	 Singles Energy            =      -0.0000000000000000 [Eh]
	 Same-Spin Energy          =      -0.3778127228033749 [Eh]
	 Opposite-Spin Energy      =      -1.2492948480540080 [Eh]
	 Correlation Energy        =      -1.6271075708573828 [Eh]
	 Total Energy              =    -364.6829725895986485 [Eh]

	 ================> DF-SCS-MP2 Energies <==================
	-----------------------------------------------------------
	 SCS Same-Spin Scale       =       0.3333333333333333 [-]
	 SCS Opposite-Spin Scale   =       1.2000000000000000 [-]
	 SCS Same-Spin Energy      =      -0.1259375742677916 [Eh]
	 SCS Opposite-Spin Energy  =      -1.4991538176648096 [Eh]
	 SCS Correlation Energy    =      -1.6250913919326013 [Eh]
	 SCS Total Energy          =    -364.6809564106738435 [Eh]
	-----------------------------------------------------------

  Dipole Moment: [D]
     X:     4.0715      Y:    -0.9932      Z:     1.0427     Total:     4.3187

*** Psi4 exiting successfully. Buy a developer a beer!
