                               Psi4 1.3.2 release

  ==> Input File <==

--------------------------------------------------------------------------
#psi4
#
memory 32 gb

molecule  {
0 1
  O       -2.5416370     0.0659770    -0.3927070
  N       -0.7122740    -1.2241950    -0.0249760
  C        1.8380290     0.7314390    -0.0343340
  C        1.7289792    -0.7755516    -0.3881073
  C        0.5749500     1.5632640    -0.2598230
  C        0.6466580    -1.4925250     0.4187290
  C       -0.6257670     1.1444980     0.6024810
  C       -1.3868420    -0.0349600     0.0307530
  H        2.6566510     1.1652070    -0.6217190
  H        2.1344690     0.8237010     1.0199600
  H        1.5025340    -0.8781880    -1.4483810
  H        2.6863370    -1.2343500    -0.1898600
  H        0.2863390     1.5300770    -1.3181450
  H        0.8108260     2.6104720    -0.0371320
  H        0.7923570    -2.5718330     0.3164690
  H        0.7525260    -1.2638240     1.4882170
  H       -1.3561390     1.9546950     0.6612310
  H       -0.2921570     0.9237120     1.6255030
  H       -1.2491170    -1.9758090    -0.4428220
units angstrom
no_reorient  #important for SAPT in psi4, default
symmetry c1  #important for SAPT in psi4, default
}

set PROPERTIES_ORIGIN ["COM"]
properties('MP2/aug-cc-pvtz', properties = ['dipole'])
--------------------------------------------------------------------------

    Molecular point group: c1
  Charge       = 0
  Multiplicity = 1
  Basis Set: AUG-CC-PVTZ
    Blend: AUG-CC-PVTZ
  Basis Set: (AUG-CC-PVTZ AUX)
    Blend: AUG-CC-PVTZ-JKFIT

    Orbital Energies [Eh]
    ---------------------

    Doubly Occupied:

       1A    -20.509121     2A    -15.578991     3A    -11.343062
       4A    -11.277120     5A    -11.236702     6A    -11.235871
       7A    -11.233872     8A    -11.233112     9A     -1.363500
      10A     -1.228125    11A     -1.091687    12A     -1.041962
      13A     -0.944681    14A     -0.888311    15A     -0.796662
      16A     -0.763847    17A     -0.688213    18A     -0.676211
      19A     -0.625823    20A     -0.611330    21A     -0.601250
      22A     -0.591543    23A     -0.571887    24A     -0.545175
      25A     -0.519569    26A     -0.517027    27A     -0.481999
      28A     -0.471651    29A     -0.464938    30A     -0.410630
      31A     -0.383288

  @DF-RHF Final Energy:  -363.07510633907293

   => Energetics <=

    Nuclear Repulsion Energy =            393.7277222618876067
    One-Electron Energy =               -1273.7513325939405604
    Two-Electron Energy =                 516.9485039929800223
    Total Energy =                       -363.0751063390729314
  Basis Set: (AUG-CC-PVTZ AUX)
    Blend: AUG-CC-PVTZ-RI
    Molecular point group: c1

    Geometry (in Angstrom), charge = 0, multiplicity = 1:

       Center              X                  Y                   Z               Mass
    ------------   -----------------  -----------------  -----------------  -----------------
         O           -2.466274396615     0.078011256744    -0.382686949418    15.994914619570
         N           -0.636911396615    -1.212160743256    -0.014955949418    14.003074004430
         C            1.913391603385     0.743473256744    -0.024313949418    12.000000000000
         C            1.804341803385    -0.763517343256    -0.378087249418    12.000000000000
         C            0.650312603385     1.575298256744    -0.249802949418    12.000000000000
         C            0.722020603385    -1.480490743256     0.428749050582    12.000000000000
         C           -0.550404396615     1.156532256744     0.612501050582    12.000000000000
         C           -1.311479396615    -0.022925743256     0.040773050582    12.000000000000
         H            2.732013603385     1.177241256744    -0.611698949418     1.007825032230
         H            2.209831603385     0.835735256744     1.029980050582     1.007825032230
         H            1.577896603385    -0.866153743256    -1.438360949418     1.007825032230
         H            2.761699603385    -1.222315743256    -0.179839949418     1.007825032230
         H            0.361701603385     1.542111256744    -1.308124949418     1.007825032230
         H            0.886188603385     2.622506256744    -0.027111949418     1.007825032230
         H            0.867719603385    -2.559798743256     0.326489050582     1.007825032230
         H            0.827888603385    -1.251789743256     1.498237050582     1.007825032230
         H           -1.280776396615     1.966729256744     0.671251050582     1.007825032230
         H           -0.216794396615     0.935746256744     1.635523050582     1.007825032230
         H           -1.173754396615    -1.963774743256    -0.432801949418     1.007825032230

  Basis Set: AUG-CC-PVTZ
    Blend: AUG-CC-PVTZ
  Basis Set: (AUG-CC-PVTZ AUX)
    Blend: AUG-CC-PVTZ-JKFIT
	 Reference Energy          =    -363.0751063390729314 [Eh]
	 Singles Energy            =      -0.0000000000000000 [Eh]
	 Same-Spin Energy          =      -0.3775725264707825 [Eh]
	 Opposite-Spin Energy      =      -1.2475277346945313 [Eh]
	 Correlation Energy        =      -1.6251002611653138 [Eh]
	 Total Energy              =    -364.7002066002382321 [Eh]

	 ================> DF-SCS-MP2 Energies <==================
	-----------------------------------------------------------
	 SCS Same-Spin Scale       =       0.3333333333333333 [-]
	 SCS Opposite-Spin Scale   =       1.2000000000000000 [-]
	 SCS Same-Spin Energy      =      -0.1258575088235942 [Eh]
	 SCS Opposite-Spin Energy  =      -1.4970332816334375 [Eh]
	 SCS Correlation Energy    =      -1.6228907904570318 [Eh]
	 SCS Total Energy          =    -364.6979971295299379 [Eh]
	-----------------------------------------------------------

  Dipole Moment: [D]
     X:     4.0732      Y:    -1.0414      Z:     0.8921     Total:     4.2978

*** Psi4 exiting successfully. Buy a developer a beer!
