                               Psi4 1.3.2 release

  ==> Input File <==

--------------------------------------------------------------------------
#psi4
#
memory 32 gb

molecule  {
0 1
  O       -2.5416370     0.0659770    -0.3927070
  N       -0.7122740    -1.2241950    -0.0249760
  C        1.8380290     0.7314390    -0.0343340
  C        1.7187040    -0.7521010    -0.3806110
  C        0.5749500     1.5632640    -0.2598230
  C        0.6466580    -1.4925250     0.4187290
  C       -0.6257670     1.1444980     0.6024810
  C       -1.3868420    -0.0349600     0.0307530
  H        2.6566510     1.1652070    -0.6217190
  H        2.1344690     0.8237010     1.0199600
  H        1.5025340    -0.8781880    -1.4483810
  H        2.6863370    -1.2343500    -0.1898600
  H        0.2863390     1.5300770    -1.3181450
  H        0.8108260     2.6104720    -0.0371320
  H        0.7923570    -2.5718330     0.3164690
  H        0.7525260    -1.2638240     1.4882170
  H       -1.3539927     1.9550320     0.6801723
  H       -0.2921570     0.9237120     1.6255030
  H       -1.2491170    -1.9758090    -0.4428220
units angstrom
no_reorient  #important for SAPT in psi4, default
symmetry c1  #important for SAPT in psi4, default
}

set PROPERTIES_ORIGIN ["COM"]
properties('MP2/aug-cc-pvtz', properties = ['dipole'])
--------------------------------------------------------------------------

    Molecular point group: c1
  Charge       = 0
  Multiplicity = 1
  Basis Set: AUG-CC-PVTZ
    Blend: AUG-CC-PVTZ
  Basis Set: (AUG-CC-PVTZ AUX)
    Blend: AUG-CC-PVTZ-JKFIT

    Orbital Energies [Eh]
    ---------------------

    Doubly Occupied:

       1A    -20.509024     2A    -15.578722     3A    -11.343123
       4A    -11.277316     5A    -11.236733     6A    -11.235984
       7A    -11.234373     8A    -11.233106     9A     -1.363412
      10A     -1.228281    11A     -1.093957    12A     -1.042140
      13A     -0.945413    14A     -0.888567    15A     -0.795463
      16A     -0.764376    17A     -0.687929    18A     -0.676662
      19A     -0.626388    20A     -0.611726    21A     -0.601479
      22A     -0.591985    23A     -0.570174    24A     -0.545253
      25A     -0.519047    26A     -0.515680    27A     -0.481207
      28A     -0.471053    29A     -0.469258    30A     -0.410537
      31A     -0.382759

  @DF-RHF Final Energy:  -363.07545959163161

   => Energetics <=

    Nuclear Repulsion Energy =            394.0695614546453953
    One-Electron Energy =               -1274.4277904926580050
    Two-Electron Energy =                 517.2827694463809394
    Total Energy =                       -363.0754595916316703
  Basis Set: (AUG-CC-PVTZ AUX)
    Blend: AUG-CC-PVTZ-RI
    Molecular point group: c1

    Geometry (in Angstrom), charge = 0, multiplicity = 1:

       Center              X                  Y                   Z               Mass
    ------------   -----------------  -----------------  -----------------  -----------------
         O           -2.465203164287     0.075519775388    -0.383651233089    15.994914619570
         N           -0.635840164287    -1.214652224612    -0.015920233089    14.003074004430
         C            1.914462835713     0.740981775388    -0.025278233089    12.000000000000
         C            1.795137835713    -0.742558224612    -0.371555233089    12.000000000000
         C            0.651383835713     1.572806775388    -0.250767233089    12.000000000000
         C            0.723091835713    -1.482982224612     0.427784766911    12.000000000000
         C           -0.549333164287     1.154040775388     0.611536766911    12.000000000000
         C           -1.310408164287    -0.025417224612     0.039808766911    12.000000000000
         H            2.733084835713     1.174749775388    -0.612663233089     1.007825032230
         H            2.210902835713     0.833243775388     1.029015766911     1.007825032230
         H            1.578967835713    -0.868645224612    -1.439325233089     1.007825032230
         H            2.762770835713    -1.224807224612    -0.180804233089     1.007825032230
         H            0.362772835713     1.539619775388    -1.309089233089     1.007825032230
         H            0.887259835713     2.620014775388    -0.028076233089     1.007825032230
         H            0.868790835713    -2.562290224612     0.325524766911     1.007825032230
         H            0.828959835713    -1.254281224612     1.497272766911     1.007825032230
         H           -1.277558864287     1.964574775388     0.689228066911     1.007825032230
         H           -0.215723164287     0.933254775388     1.634558766911     1.007825032230
         H           -1.172683164287    -1.966266224612    -0.433766233089     1.007825032230

  Basis Set: AUG-CC-PVTZ
    Blend: AUG-CC-PVTZ
  Basis Set: (AUG-CC-PVTZ AUX)
    Blend: AUG-CC-PVTZ-JKFIT
	 Reference Energy          =    -363.0754595916316134 [Eh]
	 Singles Energy            =      -0.0000000000000000 [Eh]
	 Same-Spin Energy          =      -0.3777181232646969 [Eh]
	 Opposite-Spin Energy      =      -1.2476551792533879 [Eh]
	 Correlation Energy        =      -1.6253733025180848 [Eh]
	 Total Energy              =    -364.7008328941496984 [Eh]

	 ================> DF-SCS-MP2 Energies <==================
	-----------------------------------------------------------
	 SCS Same-Spin Scale       =       0.3333333333333333 [-]
	 SCS Opposite-Spin Scale   =       1.2000000000000000 [-]
	 SCS Same-Spin Energy      =      -0.1259060410882323 [Eh]
	 SCS Opposite-Spin Energy  =      -1.4971862151040654 [Eh]
	 SCS Correlation Energy    =      -1.6230922561922976 [Eh]
	 SCS Total Energy          =    -364.6985518478239214 [Eh]
	-----------------------------------------------------------

  Dipole Moment: [D]
     X:     4.0730      Y:    -1.0346      Z:     0.9028     Total:     4.2982

*** Psi4 exiting successfully. Buy a developer a beer!
