                               Psi4 1.3.2 release

  ==> Input File <==

--------------------------------------------------------------------------
#psi4
#
memory 32 gb

molecule  {
0 1
  O       -2.5341189    -0.0592850    -0.4233639
  N       -0.7122740    -1.2241950    -0.0249760
  C        1.8380290     0.7314390    -0.0343340
  C        1.7187040    -0.7521010    -0.3806110
  C        0.5749500     1.5632640    -0.2598230
  C        0.6466580    -1.4925250     0.4187290
  C       -0.6257670     1.1444980     0.6024810
  C       -1.3868420    -0.0349600     0.0307530
  H        2.6566510     1.1652070    -0.6217190
  H        2.1344690     0.8237010     1.0199600
  H        1.5025340    -0.8781880    -1.4483810
  H        2.6863370    -1.2343500    -0.1898600
  H        0.2863390     1.5300770    -1.3181450
  H        0.8108260     2.6104720    -0.0371320
  H        0.7923570    -2.5718330     0.3164690
  H        0.7525260    -1.2638240     1.4882170
  H       -1.3561390     1.9546950     0.6612310
  H       -0.2921570     0.9237120     1.6255030
  H       -1.2491170    -1.9758090    -0.4428220
units angstrom
no_reorient  #important for SAPT in psi4, default
symmetry c1  #important for SAPT in psi4, default
}

set PROPERTIES_ORIGIN ["COM"]
properties('MP2/aug-cc-pvtz', properties = ['dipole'])
--------------------------------------------------------------------------

    Molecular point group: c1
  Charge       = 0
  Multiplicity = 1
  Basis Set: AUG-CC-PVTZ
    Blend: AUG-CC-PVTZ
  Basis Set: (AUG-CC-PVTZ AUX)
    Blend: AUG-CC-PVTZ-JKFIT

    Orbital Energies [Eh]
    ---------------------

    Doubly Occupied:

       1A    -20.507223     2A    -15.571752     3A    -11.343112
       4A    -11.273462     5A    -11.242712     6A    -11.239403
       7A    -11.234034     8A    -11.232993     9A     -1.365586
      10A     -1.220756    11A     -1.095121    12A     -1.043328
      13A     -0.945753    14A     -0.888199    15A     -0.795552
      16A     -0.762854    17A     -0.686652    18A     -0.676514
      19A     -0.625314    20A     -0.611667    21A     -0.602703
      22A     -0.591498    23A     -0.571423    24A     -0.544638
      25A     -0.520064    26A     -0.515457    27A     -0.481780
      28A     -0.472240    29A     -0.470342    30A     -0.412169
      31A     -0.376934

  @DF-RHF Final Energy:  -363.07219474179976

   => Energetics <=

    Nuclear Repulsion Energy =            394.2288483332155806
    One-Electron Energy =               -1274.7596190817525894
    Two-Electron Energy =                 517.4585760067371893
    Total Energy =                       -363.0721947417997626
  Basis Set: (AUG-CC-PVTZ AUX)
    Blend: AUG-CC-PVTZ-RI
    Molecular point group: c1

    Geometry (in Angstrom), charge = 0, multiplicity = 1:

       Center              X                  Y                   Z               Mass
    ------------   -----------------  -----------------  -----------------  -----------------
         O           -2.458729316400    -0.032021826515    -0.409803130382    15.994914619570
         N           -0.636884416400    -1.196931826515    -0.011415230382    14.003074004430
         C            1.913418583600     0.758702173485    -0.020773230382    12.000000000000
         C            1.794093583600    -0.724837826515    -0.367050230382    12.000000000000
         C            0.650339583600     1.590527173485    -0.246262230382    12.000000000000
         C            0.722047583600    -1.465261826515     0.432289769618    12.000000000000
         C           -0.550377416400     1.171761173485     0.616041769618    12.000000000000
         C           -1.311452416400    -0.007696826515     0.044313769618    12.000000000000
         H            2.732040583600     1.192470173485    -0.608158230382     1.007825032230
         H            2.209858583600     0.850964173485     1.033520769618     1.007825032230
         H            1.577923583600    -0.850924826515    -1.434820230382     1.007825032230
         H            2.761726583600    -1.207086826515    -0.176299230382     1.007825032230
         H            0.361728583600     1.557340173485    -1.304584230382     1.007825032230
         H            0.886215583600     2.637735173485    -0.023571230382     1.007825032230
         H            0.867746583600    -2.544569826515     0.330029769618     1.007825032230
         H            0.827915583600    -1.236560826515     1.501777769618     1.007825032230
         H           -1.280749416400     1.981958173485     0.674791769618     1.007825032230
         H           -0.216767416400     0.950975173485     1.639063769618     1.007825032230
         H           -1.173727416400    -1.948545826515    -0.429261230382     1.007825032230

  Basis Set: AUG-CC-PVTZ
    Blend: AUG-CC-PVTZ
  Basis Set: (AUG-CC-PVTZ AUX)
    Blend: AUG-CC-PVTZ-JKFIT
	 Reference Energy          =    -363.0721947417997626 [Eh]
	 Singles Energy            =      -0.0000000000000000 [Eh]
	 Same-Spin Energy          =      -0.3778691446612414 [Eh]
	 Opposite-Spin Energy      =      -1.2478359373867511 [Eh]
	 Correlation Energy        =      -1.6257050820479926 [Eh]
	 Total Energy              =    -364.6978998238477629 [Eh]

	 ================> DF-SCS-MP2 Energies <==================
	-----------------------------------------------------------
	 SCS Same-Spin Scale       =       0.3333333333333333 [-]
	 SCS Opposite-Spin Scale   =       1.2000000000000000 [-]
	 SCS Same-Spin Energy      =      -0.1259563815537471 [Eh]
	 SCS Opposite-Spin Energy  =      -1.4974031248641013 [Eh]
	 SCS Correlation Energy    =      -1.6233595064178485 [Eh]
	 SCS Total Energy          =    -364.6955542482176043 [Eh]
	-----------------------------------------------------------

  Dipole Moment: [D]
     X:     4.0640      Y:    -0.6796      Z:     0.9731     Total:     4.2338

*** Psi4 exiting successfully. Buy a developer a beer!
