                               Psi4 1.3.2 release

  ==> Input File <==

--------------------------------------------------------------------------
#psi4
#
memory 32 gb

molecule  {
0 1
  O       -2.5416370     0.0659770    -0.3927070
  N       -0.7122740    -1.2241950    -0.0249760
  C        1.8380290     0.7314390    -0.0343340
  C        1.7187040    -0.7521010    -0.3806110
  C        0.5749500     1.5632640    -0.2598230
  C        0.6466580    -1.4925250     0.4187290
  C       -0.6257670     1.1444980     0.6024810
  C       -1.3868420    -0.0349600     0.0307530
  H        2.6566510     1.1652070    -0.6217190
  H        2.1344690     0.8237010     1.0199600
  H        1.4049695    -0.8208099    -1.4292339
  H        2.6863370    -1.2343500    -0.1898600
  H        0.2863390     1.5300770    -1.3181450
  H        0.8108260     2.6104720    -0.0371320
  H        0.7923570    -2.5718330     0.3164690
  H        0.7525260    -1.2638240     1.4882170
  H       -1.3561390     1.9546950     0.6612310
  H       -0.2921570     0.9237120     1.6255030
  H       -1.2491170    -1.9758090    -0.4428220
units angstrom
no_reorient  #important for SAPT in psi4, default
symmetry c1  #important for SAPT in psi4, default
}

set PROPERTIES_ORIGIN ["COM"]
properties('MP2/aug-cc-pvtz', properties = ['dipole'])
--------------------------------------------------------------------------

    Molecular point group: c1
  Charge       = 0
  Multiplicity = 1
  Basis Set: AUG-CC-PVTZ
    Blend: AUG-CC-PVTZ
  Basis Set: (AUG-CC-PVTZ AUX)
    Blend: AUG-CC-PVTZ-JKFIT

    Orbital Energies [Eh]
    ---------------------

    Doubly Occupied:

       1A    -20.509342     2A    -15.579003     3A    -11.343297
       4A    -11.276711     5A    -11.236893     6A    -11.236131
       7A    -11.234547     8A    -11.232452     9A     -1.363742
      10A     -1.228683    11A     -1.094477    12A     -1.042513
      13A     -0.945425    14A     -0.888170    15A     -0.794444
      16A     -0.763992    17A     -0.690205    18A     -0.676968
      19A     -0.624886    20A     -0.612488    21A     -0.603172
      22A     -0.592552    23A     -0.570885    24A     -0.544665
      25A     -0.520068    26A     -0.515092    27A     -0.481453
      28A     -0.469975    29A     -0.468598    30A     -0.410849
      31A     -0.382943

  @DF-RHF Final Energy:  -363.07401332423558

   => Energetics <=

    Nuclear Repulsion Energy =            394.3129450141114489
    One-Electron Energy =               -1274.9046734500741422
    Two-Electron Energy =                 517.5177151117271706
    Total Energy =                       -363.0740133242355796
  Basis Set: (AUG-CC-PVTZ AUX)
    Blend: AUG-CC-PVTZ-RI
    Molecular point group: c1

    Geometry (in Angstrom), charge = 0, multiplicity = 1:

       Center              X                  Y                   Z               Mass
    ------------   -----------------  -----------------  -----------------  -----------------
         O           -2.464314524132     0.075011415090    -0.383653067214    15.994914619570
         N           -0.634951524132    -1.215160584910    -0.015922067214    14.003074004430
         C            1.915351475868     0.740473415090    -0.025280067214    12.000000000000
         C            1.796026475868    -0.743066584910    -0.371557067214    12.000000000000
         C            0.652272475868     1.572298415090    -0.250769067214    12.000000000000
         C            0.723980475868    -1.483490584910     0.427782932786    12.000000000000
         C           -0.548444524132     1.153532415090     0.611534932786    12.000000000000
         C           -1.309519524132    -0.025925584910     0.039806932786    12.000000000000
         H            2.733973475868     1.174241415090    -0.612665067214     1.007825032230
         H            2.211791475868     0.832735415090     1.029013932786     1.007825032230
         H            1.482291975868    -0.811775484910    -1.420179967214     1.007825032230
         H            2.763659475868    -1.225315584910    -0.180806067214     1.007825032230
         H            0.363661475868     1.539111415090    -1.309091067214     1.007825032230
         H            0.888148475868     2.619506415090    -0.028078067214     1.007825032230
         H            0.869679475868    -2.562798584910     0.325522932786     1.007825032230
         H            0.829848475868    -1.254789584910     1.497270932786     1.007825032230
         H           -1.278816524132     1.963729415090     0.670284932786     1.007825032230
         H           -0.214834524132     0.932746415090     1.634556932786     1.007825032230
         H           -1.171794524132    -1.966774584910    -0.433768067214     1.007825032230

  Basis Set: AUG-CC-PVTZ
    Blend: AUG-CC-PVTZ
  Basis Set: (AUG-CC-PVTZ AUX)
    Blend: AUG-CC-PVTZ-JKFIT
	 Reference Energy          =    -363.0740133242355796 [Eh]
	 Singles Energy            =      -0.0000000000000000 [Eh]
	 Same-Spin Energy          =      -0.3778980098546095 [Eh]
	 Opposite-Spin Energy      =      -1.2479630433068736 [Eh]
	 Correlation Energy        =      -1.6258610531614832 [Eh]
	 Total Energy              =    -364.6998743773970659 [Eh]

	 ================> DF-SCS-MP2 Energies <==================
	-----------------------------------------------------------
	 SCS Same-Spin Scale       =       0.3333333333333333 [-]
	 SCS Opposite-Spin Scale   =       1.2000000000000000 [-]
	 SCS Same-Spin Energy      =      -0.1259660032848698 [Eh]
	 SCS Opposite-Spin Energy  =      -1.4975556519682482 [Eh]
	 SCS Correlation Energy    =      -1.6235216552531182 [Eh]
	 SCS Total Energy          =    -364.6975349794886938 [Eh]
	-----------------------------------------------------------

  Dipole Moment: [D]
     X:     4.0450      Y:    -1.0193      Z:     0.9152     Total:     4.2707

*** Psi4 exiting successfully. Buy a developer a beer!
