                               Psi4 1.3.2 release

  ==> Input File <==

--------------------------------------------------------------------------
#psi4
#
memory 32 gb

molecule  {
0 1
  O       -2.5416370     0.0659770    -0.3927070
  N       -0.7087244    -1.1995173    -0.0201974
  C        1.8380290     0.7314390    -0.0343340
  C        1.7187040    -0.7521010    -0.3806110
  C        0.5749500     1.5632640    -0.2598230
  C        0.6466580    -1.4925250     0.4187290
  C       -0.6257670     1.1444980     0.6024810
  C       -1.3868420    -0.0349600     0.0307530
  H        2.6566510     1.1652070    -0.6217190
  H        2.1344690     0.8237010     1.0199600
  H        1.5025340    -0.8781880    -1.4483810
  H        2.6863370    -1.2343500    -0.1898600
  H        0.2863390     1.5300770    -1.3181450
  H        0.8108260     2.6104720    -0.0371320
  H        0.7923570    -2.5718330     0.3164690
  H        0.7525260    -1.2638240     1.4882170
  H       -1.3561390     1.9546950     0.6612310
  H       -0.2921570     0.9237120     1.6255030
  H       -1.2491170    -1.9758090    -0.4428220
units angstrom
no_reorient  #important for SAPT in psi4, default
symmetry c1  #important for SAPT in psi4, default
}

set PROPERTIES_ORIGIN ["COM"]
properties('MP2/aug-cc-pvtz', properties = ['dipole'])
--------------------------------------------------------------------------

    Molecular point group: c1
  Charge       = 0
  Multiplicity = 1
  Basis Set: AUG-CC-PVTZ
    Blend: AUG-CC-PVTZ
  Basis Set: (AUG-CC-PVTZ AUX)
    Blend: AUG-CC-PVTZ-JKFIT

    Orbital Energies [Eh]
    ---------------------

    Doubly Occupied:

       1A    -20.506144     2A    -15.581540     3A    -11.340329
       4A    -11.278866     5A    -11.236060     6A    -11.234914
       7A    -11.234508     8A    -11.233135     9A     -1.363189
      10A     -1.231150    11A     -1.093652    12A     -1.043453
      13A     -0.945372    14A     -0.890488    15A     -0.795468
      16A     -0.761888    17A     -0.689907    18A     -0.676135
      19A     -0.626138    20A     -0.611375    21A     -0.601949
      22A     -0.592798    23A     -0.570259    24A     -0.543075
      25A     -0.519872    26A     -0.514899    27A     -0.481286
      28A     -0.469887    29A     -0.469756    30A     -0.409335
      31A     -0.383240

  @DF-RHF Final Energy:  -363.07443104981667

   => Energetics <=

    Nuclear Repulsion Energy =            394.5568770530267670
    One-Electron Energy =               -1275.4024835425061610
    Two-Electron Energy =                 517.7711754396627839
    Total Energy =                       -363.0744310498166669
  Basis Set: (AUG-CC-PVTZ AUX)
    Blend: AUG-CC-PVTZ-RI
    Molecular point group: c1

    Geometry (in Angstrom), charge = 0, multiplicity = 1:

       Center              X                  Y                   Z               Mass
    ------------   -----------------  -----------------  -----------------  -----------------
         O           -2.465623579109     0.072466966618    -0.384074153626    15.994914619570
         N           -0.632710979109    -1.193027333382    -0.011564553626    14.003074004430
         C            1.914042420891     0.737928966618    -0.025701153626    12.000000000000
         C            1.794717420891    -0.745611033382    -0.371978153626    12.000000000000
         C            0.650963420891     1.569753966618    -0.251190153626    12.000000000000
         C            0.722671420891    -1.486035033382     0.427361846374    12.000000000000
         C           -0.549753579109     1.150987966618     0.611113846374    12.000000000000
         C           -1.310828579109    -0.028470033382     0.039385846374    12.000000000000
         H            2.732664420891     1.171696966618    -0.613086153626     1.007825032230
         H            2.210482420891     0.830190966618     1.028592846374     1.007825032230
         H            1.578547420891    -0.871698033382    -1.439748153626     1.007825032230
         H            2.762350420891    -1.227860033382    -0.181227153626     1.007825032230
         H            0.362352420891     1.536566966618    -1.309512153626     1.007825032230
         H            0.886839420891     2.616961966618    -0.028499153626     1.007825032230
         H            0.868370420891    -2.565343033382     0.325101846374     1.007825032230
         H            0.828539420891    -1.257334033382     1.496849846374     1.007825032230
         H           -1.280125579109     1.961184966618     0.669863846374     1.007825032230
         H           -0.216143579109     0.930201966618     1.634135846374     1.007825032230
         H           -1.173103579109    -1.969319033382    -0.434189153626     1.007825032230

  Basis Set: AUG-CC-PVTZ
    Blend: AUG-CC-PVTZ
  Basis Set: (AUG-CC-PVTZ AUX)
    Blend: AUG-CC-PVTZ-JKFIT
	 Reference Energy          =    -363.0744310498166669 [Eh]
	 Singles Energy            =      -0.0000000000000000 [Eh]
	 Same-Spin Energy          =      -0.3778997732423249 [Eh]
	 Opposite-Spin Energy      =      -1.2478557499759464 [Eh]
	 Correlation Energy        =      -1.6257555232182712 [Eh]
	 Total Energy              =    -364.7001865730349550 [Eh]

	 ================> DF-SCS-MP2 Energies <==================
	-----------------------------------------------------------
	 SCS Same-Spin Scale       =       0.3333333333333333 [-]
	 SCS Opposite-Spin Scale   =       1.2000000000000000 [-]
	 SCS Same-Spin Energy      =      -0.1259665910807750 [Eh]
	 SCS Opposite-Spin Energy  =      -1.4974268999711355 [Eh]
	 SCS Correlation Energy    =      -1.6233934910519106 [Eh]
	 SCS Total Energy          =    -364.6978245408685666 [Eh]
	-----------------------------------------------------------

  Dipole Moment: [D]
     X:     4.1447      Y:    -1.1383      Z:     0.9047     Total:     4.3923

*** Psi4 exiting successfully. Buy a developer a beer!
