                               Psi4 1.3.2 release

  ==> Input File <==

--------------------------------------------------------------------------
#psi4
#
memory 32 gb

molecule  {
0 1
  O       -2.5416370     0.0659770    -0.3927070
  N       -0.7122740    -1.2241950    -0.0249760
  C        1.8380290     0.7314390    -0.0343340
  C        1.7187040    -0.7521010    -0.3806110
  C        0.5749500     1.5632640    -0.2598230
  C        0.6466580    -1.4925250     0.4187290
  C       -0.6257670     1.1444980     0.6024810
  C       -1.3868420    -0.0349600     0.0307530
  H        2.6469950     1.1612663    -0.6377744
  H        2.1344690     0.8237010     1.0199600
  H        1.5025340    -0.8781880    -1.4483810
  H        2.6863370    -1.2343500    -0.1898600
  H        0.2863390     1.5300770    -1.3181450
  H        0.8108260     2.6104720    -0.0371320
  H        0.7923570    -2.5718330     0.3164690
  H        0.7525260    -1.2638240     1.4882170
  H       -1.3561390     1.9546950     0.6612310
  H       -0.2921570     0.9237120     1.6255030
  H       -1.2491170    -1.9758090    -0.4428220
units angstrom
no_reorient  #important for SAPT in psi4, default
symmetry c1  #important for SAPT in psi4, default
}

set PROPERTIES_ORIGIN ["COM"]
properties('MP2/aug-cc-pvtz', properties = ['dipole'])
--------------------------------------------------------------------------

    Molecular point group: c1
  Charge       = 0
  Multiplicity = 1
  Basis Set: AUG-CC-PVTZ
    Blend: AUG-CC-PVTZ
  Basis Set: (AUG-CC-PVTZ AUX)
    Blend: AUG-CC-PVTZ-JKFIT

    Orbital Energies [Eh]
    ---------------------

    Doubly Occupied:

       1A    -20.509046     2A    -15.578651     3A    -11.343019
       4A    -11.277273     5A    -11.236587     6A    -11.235896
       7A    -11.234289     8A    -11.233088     9A     -1.363439
      10A     -1.228244    11A     -1.094058    12A     -1.042173
      13A     -0.945419    14A     -0.888546    15A     -0.795085
      16A     -0.763983    17A     -0.687977    18A     -0.676910
      19A     -0.626391    20A     -0.611813    21A     -0.602002
      22A     -0.591681    23A     -0.570299    24A     -0.545183
      25A     -0.519560    26A     -0.515781    27A     -0.481320
      28A     -0.470406    29A     -0.469249    30A     -0.410560
      31A     -0.382718

  @DF-RHF Final Energy:  -363.07545280133405

   => Energetics <=

    Nuclear Repulsion Energy =            394.1019729245339249
    One-Electron Energy =               -1274.4935614458220243
    Two-Electron Energy =                 517.3161357199541044
    Total Energy =                       -363.0754528013339950
  Basis Set: (AUG-CC-PVTZ AUX)
    Blend: AUG-CC-PVTZ-RI
    Molecular point group: c1

    Geometry (in Angstrom), charge = 0, multiplicity = 1:

       Center              X                  Y                   Z               Mass
    ------------   -----------------  -----------------  -----------------  -----------------
         O           -2.465097980118     0.075557899002    -0.383339336354    15.994914619570
         N           -0.635734980118    -1.214614100998    -0.015608336354    14.003074004430
         C            1.914568019882     0.741019899002    -0.024966336354    12.000000000000
         C            1.795243019882    -0.742520100998    -0.371243336354    12.000000000000
         C            0.651489019882     1.572844899002    -0.250455336354    12.000000000000
         C            0.723197019882    -1.482944100998     0.428096663646    12.000000000000
         C           -0.549227980118     1.154078899002     0.611848663646    12.000000000000
         C           -1.310302980118    -0.025379100998     0.040120663646    12.000000000000
         H            2.723534019882     1.170847199002    -0.628406736354     1.007825032230
         H            2.211008019882     0.833281899002     1.029327663646     1.007825032230
         H            1.579073019882    -0.868607100998    -1.439013336354     1.007825032230
         H            2.762876019882    -1.224769100998    -0.180492336354     1.007825032230
         H            0.362878019882     1.539657899002    -1.308777336354     1.007825032230
         H            0.887365019882     2.620052899002    -0.027764336354     1.007825032230
         H            0.868896019882    -2.562252100998     0.325836663646     1.007825032230
         H            0.829065019882    -1.254243100998     1.497584663646     1.007825032230
         H           -1.279599980118     1.964275899002     0.670598663646     1.007825032230
         H           -0.215617980118     0.933292899002     1.634870663646     1.007825032230
         H           -1.172577980118    -1.966228100998    -0.433454336354     1.007825032230

  Basis Set: AUG-CC-PVTZ
    Blend: AUG-CC-PVTZ
  Basis Set: (AUG-CC-PVTZ AUX)
    Blend: AUG-CC-PVTZ-JKFIT
	 Reference Energy          =    -363.0754528013340519 [Eh]
	 Singles Energy            =      -0.0000000000000000 [Eh]
	 Same-Spin Energy          =      -0.3777256612477674 [Eh]
	 Opposite-Spin Energy      =      -1.2476766269905502 [Eh]
	 Correlation Energy        =      -1.6254022882383174 [Eh]
	 Total Energy              =    -364.7008550895723715 [Eh]

	 ================> DF-SCS-MP2 Energies <==================
	-----------------------------------------------------------
	 SCS Same-Spin Scale       =       0.3333333333333333 [-]
	 SCS Opposite-Spin Scale   =       1.2000000000000000 [-]
	 SCS Same-Spin Energy      =      -0.1259085537492558 [Eh]
	 SCS Opposite-Spin Energy  =      -1.4972119523886602 [Eh]
	 SCS Correlation Energy    =      -1.6231205061379159 [Eh]
	 SCS Total Energy          =    -364.6985733074719747 [Eh]
	-----------------------------------------------------------

  Dipole Moment: [D]
     X:     4.0702      Y:    -1.0371      Z:     0.8914     Total:     4.2938

*** Psi4 exiting successfully. Buy a developer a beer!
