                               Psi4 1.3.2 release

  ==> Input File <==

--------------------------------------------------------------------------
#psi4
#
memory 32 gb

molecule  {
0 1
  O       -2.5416370     0.0659770    -0.3927070
  N       -0.7122740    -1.2241950    -0.0249760
  C        1.8184163     0.7531242    -0.1369067
  C        1.7187040    -0.7521010    -0.3806110
  C        0.5749500     1.5632640    -0.2598230
  C        0.6466580    -1.4925250     0.4187290
  C       -0.6257670     1.1444980     0.6024810
  C       -1.3868420    -0.0349600     0.0307530
  H        2.6566510     1.1652070    -0.6217190
  H        2.1344690     0.8237010     1.0199600
  H        1.5025340    -0.8781880    -1.4483810
  H        2.6863370    -1.2343500    -0.1898600
  H        0.2863390     1.5300770    -1.3181450
  H        0.8108260     2.6104720    -0.0371320
  H        0.7923570    -2.5718330     0.3164690
  H        0.7525260    -1.2638240     1.4882170
  H       -1.3561390     1.9546950     0.6612310
  H       -0.2921570     0.9237120     1.6255030
  H       -1.2491170    -1.9758090    -0.4428220
units angstrom
no_reorient  #important for SAPT in psi4, default
symmetry c1  #important for SAPT in psi4, default
}

set PROPERTIES_ORIGIN ["COM"]
properties('MP2/aug-cc-pvtz', properties = ['dipole'])
--------------------------------------------------------------------------

    Molecular point group: c1
  Charge       = 0
  Multiplicity = 1
  Basis Set: AUG-CC-PVTZ
    Blend: AUG-CC-PVTZ
  Basis Set: (AUG-CC-PVTZ AUX)
    Blend: AUG-CC-PVTZ-JKFIT

    Orbital Energies [Eh]
    ---------------------

    Doubly Occupied:

       1A    -20.509796     2A    -15.579356     3A    -11.343912
       4A    -11.278757     5A    -11.238170     6A    -11.237699
       7A    -11.236086     8A    -11.235461     9A     -1.364183
      10A     -1.228979    11A     -1.098620    12A     -1.042825
      13A     -0.949788    14A     -0.891640    15A     -0.790400
      16A     -0.765681    17A     -0.688864    18A     -0.680018
      19A     -0.631249    20A     -0.610929    21A     -0.599937
      22A     -0.592495    23A     -0.573524    24A     -0.549189
      25A     -0.521972    26A     -0.514943    27A     -0.485675
      28A     -0.473846    29A     -0.449463    30A     -0.411672
      31A     -0.383715

  @DF-RHF Final Energy:  -363.06380233470770

   => Energetics <=

    Nuclear Repulsion Energy =            394.2893102014591591
    One-Electron Energy =               -1274.7885324009459964
    Two-Electron Energy =                 517.4354198647791918
    Total Energy =                       -363.0638023347077024
  Basis Set: (AUG-CC-PVTZ AUX)
    Blend: AUG-CC-PVTZ-RI
    Molecular point group: c1

    Geometry (in Angstrom), charge = 0, multiplicity = 1:

       Center              X                  Y                   Z               Mass
    ------------   -----------------  -----------------  -----------------  -----------------
         O           -2.463102819760     0.073221637580    -0.372597846145    15.994914619570
         N           -0.633739819760    -1.216950362420    -0.004866846145    14.003074004430
         C            1.896950480240     0.760368837580    -0.116797546145    12.000000000000
         C            1.797238180240    -0.744856362420    -0.360501846145    12.000000000000
         C            0.653484180240     1.570508637580    -0.239713846145    12.000000000000
         C            0.725192180240    -1.485280362420     0.438838153855    12.000000000000
         C           -0.547232819760     1.151742637580     0.622590153855    12.000000000000
         C           -1.308307819760    -0.027715362420     0.050862153855    12.000000000000
         H            2.735185180240     1.172451637580    -0.601609846145     1.007825032230
         H            2.213003180240     0.830945637580     1.040069153855     1.007825032230
         H            1.581068180240    -0.870943362420    -1.428271846145     1.007825032230
         H            2.764871180240    -1.227105362420    -0.169750846145     1.007825032230
         H            0.364873180240     1.537321637580    -1.298035846145     1.007825032230
         H            0.889360180240     2.617716637580    -0.017022846145     1.007825032230
         H            0.870891180240    -2.564588362420     0.336578153855     1.007825032230
         H            0.831060180240    -1.256579362420     1.508326153855     1.007825032230
         H           -1.277604819760     1.961939637580     0.681340153855     1.007825032230
         H           -0.213622819760     0.930956637580     1.645612153855     1.007825032230
         H           -1.170582819760    -1.968564362420    -0.422712846145     1.007825032230

  Basis Set: AUG-CC-PVTZ
    Blend: AUG-CC-PVTZ
  Basis Set: (AUG-CC-PVTZ AUX)
    Blend: AUG-CC-PVTZ-JKFIT
	 Reference Energy          =    -363.0638023347077024 [Eh]
	 Singles Energy            =      -0.0000000000000000 [Eh]
	 Same-Spin Energy          =      -0.3781990840539888 [Eh]
	 Opposite-Spin Energy      =      -1.2485530089617420 [Eh]
	 Correlation Energy        =      -1.6267520930157309 [Eh]
	 Total Energy              =    -364.6905544277234412 [Eh]

	 ================> DF-SCS-MP2 Energies <==================
	-----------------------------------------------------------
	 SCS Same-Spin Scale       =       0.3333333333333333 [-]
	 SCS Opposite-Spin Scale   =       1.2000000000000000 [-]
	 SCS Same-Spin Energy      =      -0.1260663613513296 [Eh]
	 SCS Opposite-Spin Energy  =      -1.4982636107540903 [Eh]
	 SCS Correlation Energy    =      -1.6243299721054199 [Eh]
	 SCS Total Energy          =    -364.6881323068131451 [Eh]
	-----------------------------------------------------------

  Dipole Moment: [D]
     X:     4.0282      Y:    -1.0418      Z:     0.8216     Total:     4.2411

*** Psi4 exiting successfully. Buy a developer a beer!
