                               Psi4 1.4a3.dev225

  ==> Input File <==

--------------------------------------------------------------------------
#psi4
#
memory 32 gb

molecule  {
0 1
  O       -2.5416370     0.0659770    -0.3927070
  N       -0.7122740    -1.2241950    -0.0249760
  C        1.8380290     0.7314390    -0.0343340
  C        1.7187040    -0.7521010    -0.3806110
  C        0.5336486     1.5904638    -0.2671963
  C        0.6466580    -1.4925250     0.4187290
  C       -0.6257670     1.1444980     0.6024810
  C       -1.3868420    -0.0349600     0.0307530
  H        2.6566510     1.1652070    -0.6217190
  H        2.1344690     0.8237010     1.0199600
  H        1.5025340    -0.8781880    -1.4483810
  H        2.6863370    -1.2343500    -0.1898600
  H        0.2863390     1.5300770    -1.3181450
  H        0.8108260     2.6104720    -0.0371320
  H        0.7923570    -2.5718330     0.3164690
  H        0.7525260    -1.2638240     1.4882170
  H       -1.3561390     1.9546950     0.6612310
  H       -0.2921570     0.9237120     1.6255030
  H       -1.2491170    -1.9758090    -0.4428220
units angstrom
no_reorient  #important for SAPT in psi4, default
symmetry c1  #important for SAPT in psi4, default
}

set PROPERTIES_ORIGIN ["COM"]
properties('MP2/aug-cc-pvtz', properties = ['dipole'])
--------------------------------------------------------------------------

    Molecular point group: c1
  Charge       = 0
  Multiplicity = 1
  Basis Set: AUG-CC-PVTZ
    Blend: AUG-CC-PVTZ
  Basis Set: (AUG-CC-PVTZ AUX)
    Blend: AUG-CC-PVTZ-JKFIT

    Orbital Energies [Eh]
    ---------------------

    Doubly Occupied:

       1A    -20.509326     2A    -15.578969     3A    -11.343482
       4A    -11.277134     5A    -11.235550     6A    -11.234955
       7A    -11.234490     8A    -11.233829     9A     -1.363741
      10A     -1.228335    11A     -1.090247    12A     -1.044103
      13A     -0.941988    14A     -0.889222    15A     -0.796368
      16A     -0.764718    17A     -0.687861    18A     -0.676840
      19A     -0.625306    20A     -0.612023    21A     -0.600137
      22A     -0.592858    23A     -0.569589    24A     -0.547251
      25A     -0.519684    26A     -0.518157    27A     -0.482979
      28A     -0.474187    29A     -0.459001    30A     -0.410950
      31A     -0.382828

  @DF-RHF Final Energy:  -363.07355788367926

   => Energetics <=

    Nuclear Repulsion Energy =            393.7659553646636255
    One-Electron Energy =               -1273.8268142205786262
    Two-Electron Energy =                 516.9873009722357438
    Total Energy =                       -363.0735578836793138
  Basis Set: (AUG-CC-PVTZ AUX)
    Blend: AUG-CC-PVTZ-RI
    Molecular point group: c1

    Geometry (in Angstrom), charge = 0, multiplicity = 1:

       Center              X                  Y                   Z               Mass
    ------------   -----------------  -----------------  -----------------  -----------------
         O           -2.460801307144     0.072636451678    -0.382700001655    15.994914619570
         N           -0.631438307144    -1.217535548322    -0.014969001655    14.003074004430
         C            1.918864692856     0.738098451678    -0.024327001655    12.000000000000
         C            1.799539692856    -0.745441548322    -0.370604001655    12.000000000000
         C            0.614484292856     1.597123251678    -0.257189301655    12.000000000000
         C            0.727493692856    -1.485865548322     0.428735998345    12.000000000000
         C           -0.544931307144     1.151157451678     0.612487998345    12.000000000000
         C           -1.306006307144    -0.028300548322     0.040759998345    12.000000000000
         H            2.737486692856     1.171866451678    -0.611712001655     1.007825032230
         H            2.215304692856     0.830360451678     1.029966998345     1.007825032230
         H            1.583369692856    -0.871528548322    -1.438374001655     1.007825032230
         H            2.767172692856    -1.227690548322    -0.179853001655     1.007825032230
         H            0.367174692856     1.536736451678    -1.308138001655     1.007825032230
         H            0.891661692856     2.617131451678    -0.027125001655     1.007825032230
         H            0.873192692856    -2.565173548322     0.326475998345     1.007825032230
         H            0.833361692856    -1.257164548322     1.498223998345     1.007825032230
         H           -1.275303307144     1.961354451678     0.671237998345     1.007825032230
         H           -0.211321307144     0.930371451678     1.635509998345     1.007825032230
         H           -1.168281307144    -1.969149548322    -0.432815001655     1.007825032230

  Basis Set: AUG-CC-PVTZ
    Blend: AUG-CC-PVTZ
  Basis Set: (AUG-CC-PVTZ AUX)
    Blend: AUG-CC-PVTZ-JKFIT
	 Reference Energy          =    -363.0735578836792570 [Eh]
	 Singles Energy            =      -0.0000000000000000 [Eh]
	 Same-Spin Energy          =      -0.3776111500368806 [Eh]
	 Opposite-Spin Energy      =      -1.2476760886023914 [Eh]
	 Correlation Energy        =      -1.6252872386392720 [Eh]
	 Total Energy              =    -364.6988451223185166 [Eh]

	 ================> DF-SCS-MP2 Energies <==================
	-----------------------------------------------------------
	 SCS Same-Spin Scale       =       0.3333333333333333 [-]
	 SCS Opposite-Spin Scale   =       1.2000000000000000 [-]
	 SCS Same-Spin Energy      =      -0.1258703833456269 [Eh]
	 SCS Opposite-Spin Energy  =      -1.4972113063228696 [Eh]
	 SCS Correlation Energy    =      -1.6230816896684965 [Eh]
	 SCS Total Energy          =    -364.6966395733477384 [Eh]
	-----------------------------------------------------------

  Dipole Moment: [D]
     X:     4.0473      Y:    -1.0365      Z:     0.8914     Total:     4.2720

*** Psi4 exiting successfully. Buy a developer a beer!
