                               Psi4 1.3.2 release

  ==> Input File <==

--------------------------------------------------------------------------
#psi4
#
memory 32 gb

molecule  {
0 1
  O       -2.5416370     0.0659770    -0.3927070
  N       -0.7122740    -1.2241950    -0.0249760
  C        1.8570604     0.7025262     0.0665517
  C        1.7187040    -0.7521010    -0.3806110
  C        0.5749500     1.5632640    -0.2598230
  C        0.6466580    -1.4925250     0.4187290
  C       -0.6257670     1.1444980     0.6024810
  C       -1.3868420    -0.0349600     0.0307530
  H        2.6566510     1.1652070    -0.6217190
  H        2.1344690     0.8237010     1.0199600
  H        1.5025340    -0.8781880    -1.4483810
  H        2.6863370    -1.2343500    -0.1898600
  H        0.2863390     1.5300770    -1.3181450
  H        0.8108260     2.6104720    -0.0371320
  H        0.7923570    -2.5718330     0.3164690
  H        0.7525260    -1.2638240     1.4882170
  H       -1.3561390     1.9546950     0.6612310
  H       -0.2921570     0.9237120     1.6255030
  H       -1.2491170    -1.9758090    -0.4428220
units angstrom
no_reorient  #important for SAPT in psi4, default
symmetry c1  #important for SAPT in psi4, default
}

set PROPERTIES_ORIGIN ["COM"]
properties('MP2/aug-cc-pvtz', properties = ['dipole'])
--------------------------------------------------------------------------

    Molecular point group: c1
  Charge       = 0
  Multiplicity = 1
  Basis Set: AUG-CC-PVTZ
    Blend: AUG-CC-PVTZ
  Basis Set: (AUG-CC-PVTZ AUX)
    Blend: AUG-CC-PVTZ-JKFIT

    Orbital Energies [Eh]
    ---------------------

    Doubly Occupied:

       1A    -20.508640     2A    -15.578353     3A    -11.342486
       4A    -11.276324     5A    -11.238411     6A    -11.234884
       7A    -11.234524     8A    -11.231989     9A     -1.363040
      10A     -1.227954    11A     -1.090536    12A     -1.042229
      13A     -0.942606    14A     -0.886012    15A     -0.805961
      16A     -0.763037    17A     -0.687359    18A     -0.673837
      19A     -0.623929    20A     -0.613935    21A     -0.605739
      22A     -0.591610    23A     -0.566077    24A     -0.542554
      25A     -0.521081    26A     -0.517238    27A     -0.501700
      28A     -0.462995    29A     -0.453908    30A     -0.409461
      31A     -0.381990

  @DF-RHF Final Energy:  -363.06227401321178

   => Energetics <=

    Nuclear Repulsion Energy =            393.8476011810258797
    One-Electron Energy =               -1273.9789560124966101
    Two-Electron Energy =                 517.0690808182589535
    Total Energy =                       -363.0622740132117769
  Basis Set: (AUG-CC-PVTZ AUX)
    Blend: AUG-CC-PVTZ-RI
    Molecular point group: c1

    Geometry (in Angstrom), charge = 0, multiplicity = 1:

       Center              X                  Y                   Z               Mass
    ------------   -----------------  -----------------  -----------------  -----------------
         O           -2.467203567325     0.078590882181    -0.394187986383    15.994914619570
         N           -0.637840567325    -1.211581117819    -0.026456986383    14.003074004430
         C            1.931493832675     0.715140082181     0.065070713617    12.000000000000
         C            1.793137432675    -0.739487117819    -0.382091986383    12.000000000000
         C            0.649383432675     1.575877882181    -0.261303986383    12.000000000000
         C            0.721091432675    -1.479911117819     0.417248013617    12.000000000000
         C           -0.551333567325     1.157111882181     0.601000013617    12.000000000000
         C           -1.312408567325    -0.022346117819     0.029272013617    12.000000000000
         H            2.731084432675     1.177820882181    -0.623199986383     1.007825032230
         H            2.208902432675     0.836314882181     1.018479013617     1.007825032230
         H            1.576967432675    -0.865574117819    -1.449861986383     1.007825032230
         H            2.760770432675    -1.221736117819    -0.191340986383     1.007825032230
         H            0.360772432675     1.542690882181    -1.319625986383     1.007825032230
         H            0.885259432675     2.623085882181    -0.038612986383     1.007825032230
         H            0.866790432675    -2.559219117819     0.314988013617     1.007825032230
         H            0.826959432675    -1.251210117819     1.486736013617     1.007825032230
         H           -1.281705567325     1.967308882181     0.659750013617     1.007825032230
         H           -0.217723567325     0.936325882181     1.624022013617     1.007825032230
         H           -1.174683567325    -1.963195117819    -0.444302986383     1.007825032230

  Basis Set: AUG-CC-PVTZ
    Blend: AUG-CC-PVTZ
  Basis Set: (AUG-CC-PVTZ AUX)
    Blend: AUG-CC-PVTZ-JKFIT
	 Reference Energy          =    -363.0622740132117769 [Eh]
	 Singles Energy            =      -0.0000000000000000 [Eh]
	 Same-Spin Energy          =      -0.3776838478212005 [Eh]
	 Opposite-Spin Energy      =      -1.2481177581129537 [Eh]
	 Correlation Energy        =      -1.6258016059341540 [Eh]
	 Total Energy              =    -364.6880756191459341 [Eh]

	 ================> DF-SCS-MP2 Energies <==================
	-----------------------------------------------------------
	 SCS Same-Spin Scale       =       0.3333333333333333 [-]
	 SCS Opposite-Spin Scale   =       1.2000000000000000 [-]
	 SCS Same-Spin Energy      =      -0.1258946159404001 [Eh]
	 SCS Opposite-Spin Energy  =      -1.4977413097355443 [Eh]
	 SCS Correlation Energy    =      -1.6236359256759445 [Eh]
	 SCS Total Energy          =    -364.6859099388877326 [Eh]
	-----------------------------------------------------------

  Dipole Moment: [D]
     X:     4.0762      Y:    -1.0480      Z:     0.9350     Total:     4.3113

*** Psi4 exiting successfully. Buy a developer a beer!
