                               Psi4 1.3.2 release

  ==> Input File <==

--------------------------------------------------------------------------
#psi4
#
memory 32 gb

molecule  {
0 1
  O       -2.5416370     0.0659770    -0.3927070
  N       -0.7122740    -1.2241950    -0.0249760
  C        1.8638180     0.7760665    -0.0204781
  C        1.7187040    -0.7521010    -0.3806110
  C        0.5749500     1.5632640    -0.2598230
  C        0.6466580    -1.4925250     0.4187290
  C       -0.6257670     1.1444980     0.6024810
  C       -1.3868420    -0.0349600     0.0307530
  H        2.6566510     1.1652070    -0.6217190
  H        2.1344690     0.8237010     1.0199600
  H        1.5025340    -0.8781880    -1.4483810
  H        2.6863370    -1.2343500    -0.1898600
  H        0.2863390     1.5300770    -1.3181450
  H        0.8108260     2.6104720    -0.0371320
  H        0.7923570    -2.5718330     0.3164690
  H        0.7525260    -1.2638240     1.4882170
  H       -1.3561390     1.9546950     0.6612310
  H       -0.2921570     0.9237120     1.6255030
  H       -1.2491170    -1.9758090    -0.4428220
units angstrom
no_reorient  #important for SAPT in psi4, default
symmetry c1  #important for SAPT in psi4, default
}

set PROPERTIES_ORIGIN ["COM"]
properties('MP2/aug-cc-pvtz', properties = ['dipole'])
--------------------------------------------------------------------------

    Molecular point group: c1
  Charge       = 0
  Multiplicity = 1
  Basis Set: AUG-CC-PVTZ
    Blend: AUG-CC-PVTZ
  Basis Set: (AUG-CC-PVTZ AUX)
    Blend: AUG-CC-PVTZ-JKFIT

    Orbital Energies [Eh]
    ---------------------

    Doubly Occupied:

       1A    -20.509024     2A    -15.578359     3A    -11.342959
       4A    -11.277278     5A    -11.236810     6A    -11.236000
       7A    -11.235251     8A    -11.231291     9A     -1.363382
      10A     -1.227683    11A     -1.090709    12A     -1.039207
      13A     -0.947218    14A     -0.885479    15A     -0.798972
      16A     -0.763712    17A     -0.686760    18A     -0.677437
      19A     -0.626537    20A     -0.609748    21A     -0.601012
      22A     -0.590821    23A     -0.572048    24A     -0.544779
      25A     -0.521896    26A     -0.515490    27A     -0.485717
      28A     -0.475917    29A     -0.456871    30A     -0.410813
      31A     -0.382674

  @DF-RHF Final Energy:  -363.07340196713750

   => Energetics <=

    Nuclear Repulsion Energy =            393.3743505393205169
    One-Electron Energy =               -1273.0517973676880956
    Two-Electron Energy =                 516.6040448612301361
    Total Energy =                       -363.0734019671374426
  Basis Set: (AUG-CC-PVTZ AUX)
    Blend: AUG-CC-PVTZ-RI
    Molecular point group: c1

    Geometry (in Angstrom), charge = 0, multiplicity = 1:

       Center              X                  Y                   Z               Mass
    ------------   -----------------  -----------------  -----------------  -----------------
         O           -2.467920655102     0.070787098262    -0.384952754086    15.994914619570
         N           -0.638557655102    -1.219384901738    -0.017221754086    14.003074004430
         C            1.937534344898     0.780876598262    -0.012723854086    12.000000000000
         C            1.792420344898    -0.747290901738    -0.372856754086    12.000000000000
         C            0.648666344898     1.568074098262    -0.252068754086    12.000000000000
         C            0.720374344898    -1.487714901738     0.426483245914    12.000000000000
         C           -0.552050655102     1.149308098262     0.610235245914    12.000000000000
         C           -1.313125655102    -0.030149901738     0.038507245914    12.000000000000
         H            2.730367344898     1.170017098262    -0.613964754086     1.007825032230
         H            2.208185344898     0.828511098262     1.027714245914     1.007825032230
         H            1.576250344898    -0.873377901738    -1.440626754086     1.007825032230
         H            2.760053344898    -1.229539901738    -0.182105754086     1.007825032230
         H            0.360055344898     1.534887098262    -1.310390754086     1.007825032230
         H            0.884542344898     2.615282098262    -0.029377754086     1.007825032230
         H            0.866073344898    -2.567022901738     0.324223245914     1.007825032230
         H            0.826242344898    -1.259013901738     1.495971245914     1.007825032230
         H           -1.282422655102     1.959505098262     0.668985245914     1.007825032230
         H           -0.218440655102     0.928522098262     1.633257245914     1.007825032230
         H           -1.175400655102    -1.970998901738    -0.435067754086     1.007825032230

  Basis Set: AUG-CC-PVTZ
    Blend: AUG-CC-PVTZ
  Basis Set: (AUG-CC-PVTZ AUX)
    Blend: AUG-CC-PVTZ-JKFIT
	 Reference Energy          =    -363.0734019671374995 [Eh]
	 Singles Energy            =      -0.0000000000000000 [Eh]
	 Same-Spin Energy          =      -0.3774726788247208 [Eh]
	 Opposite-Spin Energy      =      -1.2475000556496139 [Eh]
	 Correlation Energy        =      -1.6249727344743348 [Eh]
	 Total Energy              =    -364.6983747016118400 [Eh]

	 ================> DF-SCS-MP2 Energies <==================
	-----------------------------------------------------------
	 SCS Same-Spin Scale       =       0.3333333333333333 [-]
	 SCS Opposite-Spin Scale   =       1.2000000000000000 [-]
	 SCS Same-Spin Energy      =      -0.1258242262749069 [Eh]
	 SCS Opposite-Spin Energy  =      -1.4970000667795367 [Eh]
	 SCS Correlation Energy    =      -1.6228242930544436 [Eh]
	 SCS Total Energy          =    -364.6962262601919633 [Eh]
	-----------------------------------------------------------

  Dipole Moment: [D]
     X:     4.0802      Y:    -1.0193      Z:     0.9090     Total:     4.3027

*** Psi4 exiting successfully. Buy a developer a beer!
