                               Psi4 1.3.2 release

  ==> Input File <==

--------------------------------------------------------------------------
#psi4
#
memory 32 gb

molecule  {
0 1
  O       -2.5389179    -0.0180682    -0.4113938
  N       -0.7122740    -1.2241950    -0.0249760
  C        1.8380290     0.7314390    -0.0343340
  C        1.7187040    -0.7521010    -0.3806110
  C        0.5749500     1.5632640    -0.2598230
  C        0.6466580    -1.4925250     0.4187290
  C       -0.6257670     1.1444980     0.6024810
  C       -1.3868420    -0.0349600     0.0307530
  H        2.6566510     1.1652070    -0.6217190
  H        2.1344690     0.8237010     1.0199600
  H        1.5025340    -0.8781880    -1.4483810
  H        2.6863370    -1.2343500    -0.1898600
  H        0.2863390     1.5300770    -1.3181450
  H        0.8108260     2.6104720    -0.0371320
  H        0.7923570    -2.5718330     0.3164690
  H        0.7525260    -1.2638240     1.4882170
  H       -1.3561390     1.9546950     0.6612310
  H       -0.2921570     0.9237120     1.6255030
  H       -1.2491170    -1.9758090    -0.4428220
units angstrom
no_reorient  #important for SAPT in psi4, default
symmetry c1  #important for SAPT in psi4, default
}

set PROPERTIES_ORIGIN ["COM"]
properties('MP2/aug-cc-pvtz', properties = ['dipole'])
--------------------------------------------------------------------------

    Molecular point group: c1
  Charge       = 0
  Multiplicity = 1
  Basis Set: AUG-CC-PVTZ
    Blend: AUG-CC-PVTZ
  Basis Set: (AUG-CC-PVTZ AUX)
    Blend: AUG-CC-PVTZ-JKFIT

    Orbital Energies [Eh]
    ---------------------

    Doubly Occupied:

       1A    -20.507900     2A    -15.574105     3A    -11.343057
       4A    -11.274825     5A    -11.240563     6A    -11.238439
       7A    -11.233932     8A    -11.233298     9A     -1.364722
      10A     -1.223355    11A     -1.094759    12A     -1.043011
      13A     -0.945682    14A     -0.888364    15A     -0.795553
      16A     -0.763241    17A     -0.687028    18A     -0.676697
      19A     -0.625639    20A     -0.611742    21A     -0.602442
      22A     -0.591654    23A     -0.571038    24A     -0.544763
      25A     -0.519841    26A     -0.515603    27A     -0.481636
      28A     -0.471728    29A     -0.470094    30A     -0.411962
      31A     -0.378953

  @DF-RHF Final Energy:  -363.07402198978639

   => Energetics <=

    Nuclear Repulsion Energy =            394.1531905027754306
    One-Electron Energy =               -1274.6031743009436923
    Two-Electron Energy =                 517.3759618083818168
    Total Energy =                       -363.0740219897863881
  Basis Set: (AUG-CC-PVTZ AUX)
    Blend: AUG-CC-PVTZ-RI
    Molecular point group: c1

    Geometry (in Angstrom), charge = 0, multiplicity = 1:

       Center              X                  Y                   Z               Mass
    ------------   -----------------  -----------------  -----------------  -----------------
         O           -2.462849532913     0.003365158269    -0.399526113570    15.994914619570
         N           -0.636205632913    -1.202761641731    -0.013108313570    14.003074004430
         C            1.914097367087     0.752872358269    -0.022466313570    12.000000000000
         C            1.794772367087    -0.730667641731    -0.368743313570    12.000000000000
         C            0.651018367087     1.584697358269    -0.247955313570    12.000000000000
         C            0.722726367087    -1.471091641731     0.430596686430    12.000000000000
         C           -0.549698632913     1.165931358269     0.614348686430    12.000000000000
         C           -1.310773632913    -0.013526641731     0.042620686430    12.000000000000
         H            2.732719367087     1.186640358269    -0.609851313570     1.007825032230
         H            2.210537367087     0.845134358269     1.031827686430     1.007825032230
         H            1.578602367087    -0.856754641731    -1.436513313570     1.007825032230
         H            2.762405367087    -1.212916641731    -0.177992313570     1.007825032230
         H            0.362407367087     1.551510358269    -1.306277313570     1.007825032230
         H            0.886894367087     2.631905358269    -0.025264313570     1.007825032230
         H            0.868425367087    -2.550399641731     0.328336686430     1.007825032230
         H            0.828594367087    -1.242390641731     1.500084686430     1.007825032230
         H           -1.280070632913     1.976128358269     0.673098686430     1.007825032230
         H           -0.216088632913     0.945145358269     1.637370686430     1.007825032230
         H           -1.173048632913    -1.954375641731    -0.430954313570     1.007825032230

  Basis Set: AUG-CC-PVTZ
    Blend: AUG-CC-PVTZ
  Basis Set: (AUG-CC-PVTZ AUX)
    Blend: AUG-CC-PVTZ-JKFIT
	 Reference Energy          =    -363.0740219897863881 [Eh]
	 Singles Energy            =      -0.0000000000000000 [Eh]
	 Same-Spin Energy          =      -0.3777939966121060 [Eh]
	 Opposite-Spin Energy      =      -1.2477250111259615 [Eh]
	 Correlation Energy        =      -1.6255190077380675 [Eh]
	 Total Energy              =    -364.6995409975244797 [Eh]

	 ================> DF-SCS-MP2 Energies <==================
	-----------------------------------------------------------
	 SCS Same-Spin Scale       =       0.3333333333333333 [-]
	 SCS Opposite-Spin Scale   =       1.2000000000000000 [-]
	 SCS Same-Spin Energy      =      -0.1259313322040353 [Eh]
	 SCS Opposite-Spin Energy  =      -1.4972700133511536 [Eh]
	 SCS Correlation Energy    =      -1.6232013455551890 [Eh]
	 SCS Total Energy          =    -364.6972233353415618 [Eh]
	-----------------------------------------------------------

  Dipole Moment: [D]
     X:     4.0734      Y:    -0.7981      Z:     0.9450     Total:     4.2570

*** Psi4 exiting successfully. Buy a developer a beer!
