                               Psi4 1.3.2 release

  ==> Input File <==

--------------------------------------------------------------------------
#psi4
#
memory 32 gb

molecule  {
0 1
  O       -2.5396195     0.1489550    -0.3696687
  N       -0.7122740    -1.2241950    -0.0249760
  C        1.8380290     0.7314390    -0.0343340
  C        1.7187040    -0.7521010    -0.3806110
  C        0.5749500     1.5632640    -0.2598230
  C        0.6466580    -1.4925250     0.4187290
  C       -0.6257670     1.1444980     0.6024810
  C       -1.3868420    -0.0349600     0.0307530
  H        2.6566510     1.1652070    -0.6217190
  H        2.1344690     0.8237010     1.0199600
  H        1.5025340    -0.8781880    -1.4483810
  H        2.6863370    -1.2343500    -0.1898600
  H        0.2863390     1.5300770    -1.3181450
  H        0.8108260     2.6104720    -0.0371320
  H        0.7923570    -2.5718330     0.3164690
  H        0.7525260    -1.2638240     1.4882170
  H       -1.3561390     1.9546950     0.6612310
  H       -0.2921570     0.9237120     1.6255030
  H       -1.2491170    -1.9758090    -0.4428220
units angstrom
no_reorient  #important for SAPT in psi4, default
symmetry c1  #important for SAPT in psi4, default
}

set PROPERTIES_ORIGIN ["COM"]
properties('MP2/aug-cc-pvtz', properties = ['dipole'])
--------------------------------------------------------------------------

    Molecular point group: c1
  Charge       = 0
  Multiplicity = 1
  Basis Set: AUG-CC-PVTZ
    Blend: AUG-CC-PVTZ
  Basis Set: (AUG-CC-PVTZ AUX)
    Blend: AUG-CC-PVTZ-JKFIT

    Orbital Energies [Eh]
    ---------------------

    Doubly Occupied:

       1A    -20.509991     2A    -15.583068     3A    -11.343132
       4A    -11.279606     5A    -11.234954     6A    -11.234453
       7A    -11.232396     8A    -11.231596     9A     -1.362769
      10A     -1.232837    11A     -1.093140    12A     -1.041155
      13A     -0.944981    14A     -0.888540    15A     -0.795250
      16A     -0.764838    17A     -0.688886    18A     -0.676810
      19A     -0.626702    20A     -0.611971    21A     -0.601320
      22A     -0.591943    23A     -0.568772    24A     -0.545771
      25A     -0.518917    26A     -0.515895    27A     -0.480759
      28A     -0.469246    29A     -0.468523    30A     -0.407989
      31A     -0.386269

  @DF-RHF Final Energy:  -363.07411521125630

   => Energetics <=

    Nuclear Repulsion Energy =            394.1072882962457697
    One-Electron Energy =               -1274.4978485422982430
    Two-Electron Energy =                 517.3164450347961747
    Total Energy =                       -363.0741152112562986
  Basis Set: (AUG-CC-PVTZ AUX)
    Blend: AUG-CC-PVTZ-RI
    Molecular point group: c1

    Geometry (in Angstrom), charge = 0, multiplicity = 1:

       Center              X                  Y                   Z               Mass
    ------------   -----------------  -----------------  -----------------  -----------------
         O           -2.463451896719     0.146764146957    -0.363702724107    15.994914619570
         N           -0.636106396719    -1.226385853043    -0.019010024107    14.003074004430
         C            1.914196603281     0.729248146957    -0.028368024107    12.000000000000
         C            1.794871603281    -0.754291853043    -0.374645024107    12.000000000000
         C            0.651117603281     1.561073146957    -0.253857024107    12.000000000000
         C            0.722825603281    -1.494715853043     0.424694975893    12.000000000000
         C           -0.549599396719     1.142307146957     0.608446975893    12.000000000000
         C           -1.310674396719    -0.037150853043     0.036718975893    12.000000000000
         H            2.732818603281     1.163016146957    -0.615753024107     1.007825032230
         H            2.210636603281     0.821510146957     1.025925975893     1.007825032230
         H            1.578701603281    -0.880378853043    -1.442415024107     1.007825032230
         H            2.762504603281    -1.236540853043    -0.183894024107     1.007825032230
         H            0.362506603281     1.527886146957    -1.312179024107     1.007825032230
         H            0.886993603281     2.608281146957    -0.031166024107     1.007825032230
         H            0.868524603281    -2.574023853043     0.322434975893     1.007825032230
         H            0.828693603281    -1.266014853043     1.494182975893     1.007825032230
         H           -1.279971396719     1.952504146957     0.667196975893     1.007825032230
         H           -0.215989396719     0.921521146957     1.631468975893     1.007825032230
         H           -1.172949396719    -1.977999853043    -0.436856024107     1.007825032230

  Basis Set: AUG-CC-PVTZ
    Blend: AUG-CC-PVTZ
  Basis Set: (AUG-CC-PVTZ AUX)
    Blend: AUG-CC-PVTZ-JKFIT
	 Reference Energy          =    -363.0741152112562986 [Eh]
	 Singles Energy            =      -0.0000000000000000 [Eh]
	 Same-Spin Energy          =      -0.3777576262762118 [Eh]
	 Opposite-Spin Energy      =      -1.2478108254076512 [Eh]
	 Correlation Energy        =      -1.6255684516838631 [Eh]
	 Total Energy              =    -364.6996836629401741 [Eh]

	 ================> DF-SCS-MP2 Energies <==================
	-----------------------------------------------------------
	 SCS Same-Spin Scale       =       0.3333333333333333 [-]
	 SCS Opposite-Spin Scale   =       1.2000000000000000 [-]
	 SCS Same-Spin Energy      =      -0.1259192087587372 [Eh]
	 SCS Opposite-Spin Energy  =      -1.4973729904891815 [Eh]
	 SCS Correlation Energy    =      -1.6232921992479188 [Eh]
	 SCS Total Energy          =    -364.6974074105042405 [Eh]
	-----------------------------------------------------------

  Dipole Moment: [D]
     X:     4.0531      Y:    -1.2702      Z:     0.8377     Total:     4.3293

*** Psi4 exiting successfully. Buy a developer a beer!
