                               Psi4 1.3.2 release

  ==> Input File <==

--------------------------------------------------------------------------
#psi4
#
memory 32 gb

molecule  {
0 1
  O       -2.5416370     0.0659770    -0.3927070
  N       -0.7122740    -1.2241950    -0.0249760
  C        1.8380290     0.7314390    -0.0343340
  C        1.7187040    -0.7521010    -0.3806110
  C        0.5749500     1.5632640    -0.2598230
  C        0.6466580    -1.4925250     0.4187290
  C       -0.6257670     1.1444980     0.6024810
  C       -1.3868420    -0.0349600     0.0307530
  H        2.7092528     1.1860374    -0.5218043
  H        2.1344690     0.8237010     1.0199600
  H        1.5025340    -0.8781880    -1.4483810
  H        2.6863370    -1.2343500    -0.1898600
  H        0.2863390     1.5300770    -1.3181450
  H        0.8108260     2.6104720    -0.0371320
  H        0.7923570    -2.5718330     0.3164690
  H        0.7525260    -1.2638240     1.4882170
  H       -1.3561390     1.9546950     0.6612310
  H       -0.2921570     0.9237120     1.6255030
  H       -1.2491170    -1.9758090    -0.4428220
units angstrom
no_reorient  #important for SAPT in psi4, default
symmetry c1  #important for SAPT in psi4, default
}

set PROPERTIES_ORIGIN ["COM"]
properties('MP2/aug-cc-pvtz', properties = ['dipole'])
--------------------------------------------------------------------------

    Molecular point group: c1
  Charge       = 0
  Multiplicity = 1
  Basis Set: AUG-CC-PVTZ
    Blend: AUG-CC-PVTZ
  Basis Set: (AUG-CC-PVTZ AUX)
    Blend: AUG-CC-PVTZ-JKFIT

    Orbital Energies [Eh]
    ---------------------

    Doubly Occupied:

       1A    -20.509174     2A    -15.578800     3A    -11.343155
       4A    -11.277703     5A    -11.237163     6A    -11.236341
       7A    -11.234896     8A    -11.232813     9A     -1.363574
      10A     -1.228415    11A     -1.093602    12A     -1.042325
      13A     -0.945459    14A     -0.888574    15A     -0.797871
      16A     -0.764338    17A     -0.687653    18A     -0.676450
      19A     -0.625502    20A     -0.612196    21A     -0.601483
      22A     -0.592609    23A     -0.568241    24A     -0.545244
      25A     -0.518266    26A     -0.515823    27A     -0.482963
      28A     -0.470042    29A     -0.468828    30A     -0.410763
      31A     -0.382984

  @DF-RHF Final Energy:  -363.07415549454885

   => Energetics <=

    Nuclear Repulsion Energy =            394.0075831624482134
    One-Electron Energy =               -1274.2969814949835836
    Two-Electron Energy =                 517.2152428379865796
    Total Energy =                       -363.0741554945487906
  Basis Set: (AUG-CC-PVTZ AUX)
    Blend: AUG-CC-PVTZ-RI
    Molecular point group: c1

    Geometry (in Angstrom), charge = 0, multiplicity = 1:

       Center              X                  Y                   Z               Mass
    ------------   -----------------  -----------------  -----------------  -----------------
         O           -2.465652832562     0.075337134609    -0.384372882246    15.994914619570
         N           -0.636289832562    -1.214834865391    -0.016641882246    14.003074004430
         C            1.914013167438     0.740799134609    -0.025999882246    12.000000000000
         C            1.794688167438    -0.742740865391    -0.372276882246    12.000000000000
         C            0.650934167438     1.572624134609    -0.251488882246    12.000000000000
         C            0.722642167438    -1.483164865391     0.427063117754    12.000000000000
         C           -0.549782832562     1.153858134609     0.610815117754    12.000000000000
         C           -1.310857832562    -0.025599865391     0.039087117754    12.000000000000
         H            2.785236967438     1.195397534609    -0.513470182246     1.007825032230
         H            2.210453167438     0.833061134609     1.028294117754     1.007825032230
         H            1.578518167438    -0.868827865391    -1.440046882246     1.007825032230
         H            2.762321167438    -1.224989865391    -0.181525882246     1.007825032230
         H            0.362323167438     1.539437134609    -1.309810882246     1.007825032230
         H            0.886810167438     2.619832134609    -0.028797882246     1.007825032230
         H            0.868341167438    -2.562472865391     0.324803117754     1.007825032230
         H            0.828510167438    -1.254463865391     1.496551117754     1.007825032230
         H           -1.280154832562     1.964055134609     0.669565117754     1.007825032230
         H           -0.216172832562     0.933072134609     1.633837117754     1.007825032230
         H           -1.173132832562    -1.966448865391    -0.434487882246     1.007825032230

  Basis Set: AUG-CC-PVTZ
    Blend: AUG-CC-PVTZ
  Basis Set: (AUG-CC-PVTZ AUX)
    Blend: AUG-CC-PVTZ-JKFIT
	 Reference Energy          =    -363.0741554945488474 [Eh]
	 Singles Energy            =      -0.0000000000000000 [Eh]
	 Same-Spin Energy          =      -0.3777954354972525 [Eh]
	 Opposite-Spin Energy      =      -1.2477072294073217 [Eh]
	 Correlation Energy        =      -1.6255026649045741 [Eh]
	 Total Energy              =    -364.6996581594534064 [Eh]

	 ================> DF-SCS-MP2 Energies <==================
	-----------------------------------------------------------
	 SCS Same-Spin Scale       =       0.3333333333333333 [-]
	 SCS Opposite-Spin Scale   =       1.2000000000000000 [-]
	 SCS Same-Spin Energy      =      -0.1259318118324175 [Eh]
	 SCS Opposite-Spin Energy  =      -1.4972486752887859 [Eh]
	 SCS Correlation Energy    =      -1.6231804871212034 [Eh]
	 SCS Total Energy          =    -364.6973359816700508 [Eh]
	-----------------------------------------------------------

  Dipole Moment: [D]
     X:     4.0847      Y:    -1.0314      Z:     0.9281     Total:     4.3139

*** Psi4 exiting successfully. Buy a developer a beer!
