                               Psi4 1.3.2 release

  ==> Input File <==

--------------------------------------------------------------------------
#psi4
#
memory 32 gb

molecule  {
0 1
  O       -2.5416370     0.0659770    -0.3927070
  N       -0.7154097    -1.2489544    -0.0296194
  C        1.8380290     0.7314390    -0.0343340
  C        1.7187040    -0.7521010    -0.3806110
  C        0.5749500     1.5632640    -0.2598230
  C        0.6466580    -1.4925250     0.4187290
  C       -0.6257670     1.1444980     0.6024810
  C       -1.3868420    -0.0349600     0.0307530
  H        2.6566510     1.1652070    -0.6217190
  H        2.1344690     0.8237010     1.0199600
  H        1.5025340    -0.8781880    -1.4483810
  H        2.6863370    -1.2343500    -0.1898600
  H        0.2863390     1.5300770    -1.3181450
  H        0.8108260     2.6104720    -0.0371320
  H        0.7923570    -2.5718330     0.3164690
  H        0.7525260    -1.2638240     1.4882170
  H       -1.3561390     1.9546950     0.6612310
  H       -0.2921570     0.9237120     1.6255030
  H       -1.2491170    -1.9758090    -0.4428220
units angstrom
no_reorient  #important for SAPT in psi4, default
symmetry c1  #important for SAPT in psi4, default
}

set PROPERTIES_ORIGIN ["COM"]
properties('MP2/aug-cc-pvtz', properties = ['dipole'])
--------------------------------------------------------------------------

    Molecular point group: c1
  Charge       = 0
  Multiplicity = 1
  Basis Set: AUG-CC-PVTZ
    Blend: AUG-CC-PVTZ
  Basis Set: (AUG-CC-PVTZ AUX)
    Blend: AUG-CC-PVTZ-JKFIT

    Orbital Energies [Eh]
    ---------------------

    Doubly Occupied:

       1A    -20.512000     2A    -15.575774     3A    -11.345686
       4A    -11.275958     5A    -11.237784     6A    -11.236908
       7A    -11.233882     8A    -11.232964     9A     -1.363882
      10A     -1.225581    11A     -1.094400    12A     -1.041069
      13A     -0.945710    14A     -0.886524    15A     -0.795628
      16A     -0.765947    17A     -0.686035    18A     -0.677556
      19A     -0.626578    20A     -0.612477    21A     -0.601767
      22A     -0.590861    23A     -0.569657    24A     -0.547359
      25A     -0.519061    26A     -0.516260    27A     -0.481223
      28A     -0.471198    29A     -0.469068    30A     -0.411672
      31A     -0.382286

  @DF-RHF Final Energy:  -363.07472554498111

   => Energetics <=

    Nuclear Repulsion Energy =            393.6227960902672862
    One-Electron Energy =               -1273.5295333782858052
    Two-Electron Energy =                 516.8320117430374694
    Total Energy =                       -363.0747255449811064
  Basis Set: (AUG-CC-PVTZ AUX)
    Blend: AUG-CC-PVTZ-RI
    Molecular point group: c1

    Geometry (in Angstrom), charge = 0, multiplicity = 1:

       Center              X                  Y                   Z               Mass
    ------------   -----------------  -----------------  -----------------  -----------------
         O           -2.464795745838     0.078588707785    -0.382907437834    15.994914619570
         N           -0.638568445838    -1.236342692215    -0.019819837834    14.003074004430
         C            1.914870254162     0.744050707785    -0.024534437834    12.000000000000
         C            1.795545254162    -0.739489292215    -0.370811437834    12.000000000000
         C            0.651791254162     1.575875707785    -0.250023437834    12.000000000000
         C            0.723499254162    -1.479913292215     0.428528562166    12.000000000000
         C           -0.548925745838     1.157109707785     0.612280562166    12.000000000000
         C           -1.310000745838    -0.022348292215     0.040552562166    12.000000000000
         H            2.733492254162     1.177818707785    -0.611919437834     1.007825032230
         H            2.211310254162     0.836312707785     1.029759562166     1.007825032230
         H            1.579375254162    -0.865576292215    -1.438581437834     1.007825032230
         H            2.763178254162    -1.221738292215    -0.180060437834     1.007825032230
         H            0.363180254162     1.542688707785    -1.308345437834     1.007825032230
         H            0.887667254162     2.623083707785    -0.027332437834     1.007825032230
         H            0.869198254162    -2.559221292215     0.326268562166     1.007825032230
         H            0.829367254162    -1.251212292215     1.498016562166     1.007825032230
         H           -1.279297745838     1.967306707785     0.671030562166     1.007825032230
         H           -0.215315745838     0.936323707785     1.635302562166     1.007825032230
         H           -1.172275745838    -1.963197292215    -0.433022437834     1.007825032230

  Basis Set: AUG-CC-PVTZ
    Blend: AUG-CC-PVTZ
  Basis Set: (AUG-CC-PVTZ AUX)
    Blend: AUG-CC-PVTZ-JKFIT
	 Reference Energy          =    -363.0747255449811064 [Eh]
	 Singles Energy            =      -0.0000000000000000 [Eh]
	 Same-Spin Energy          =      -0.3775818664823424 [Eh]
	 Opposite-Spin Energy      =      -1.2475681490963910 [Eh]
	 Correlation Energy        =      -1.6251500155787335 [Eh]
	 Total Energy              =    -364.6998755605598603 [Eh]

	 ================> DF-SCS-MP2 Energies <==================
	-----------------------------------------------------------
	 SCS Same-Spin Scale       =       0.3333333333333333 [-]
	 SCS Opposite-Spin Scale   =       1.2000000000000000 [-]
	 SCS Same-Spin Energy      =      -0.1258606221607808 [Eh]
	 SCS Opposite-Spin Energy  =      -1.4970817789156692 [Eh]
	 SCS Correlation Energy    =      -1.6229424010764499 [Eh]
	 SCS Total Energy          =    -364.6976679460575497 [Eh]
	-----------------------------------------------------------

  Dipole Moment: [D]
     X:     4.0023      Y:    -0.9312      Z:     0.8881     Total:     4.2041

*** Psi4 exiting successfully. Buy a developer a beer!
