                               Psi4 1.3.2 release

  ==> Input File <==

--------------------------------------------------------------------------
#psi4
#
memory 32 gb

molecule  {
0 1
  O       -2.5416370     0.0659770    -0.3927070
  N       -0.7122740    -1.2241950    -0.0249760
  C        1.8380290     0.7314390    -0.0343340
  C        1.7343216    -0.5579309    -0.3352892
  C        0.5749500     1.5632640    -0.2598230
  C        0.6466580    -1.4925250     0.4187290
  C       -0.6257670     1.1444980     0.6024810
  C       -1.3868420    -0.0349600     0.0307530
  H        2.6566510     1.1652070    -0.6217190
  H        2.1344690     0.8237010     1.0199600
  H        1.5025340    -0.8781880    -1.4483810
  H        2.6863370    -1.2343500    -0.1898600
  H        0.2863390     1.5300770    -1.3181450
  H        0.8108260     2.6104720    -0.0371320
  H        0.7923570    -2.5718330     0.3164690
  H        0.7525260    -1.2638240     1.4882170
  H       -1.3561390     1.9546950     0.6612310
  H       -0.2921570     0.9237120     1.6255030
  H       -1.2491170    -1.9758090    -0.4428220
units angstrom
no_reorient  #important for SAPT in psi4, default
symmetry c1  #important for SAPT in psi4, default
}

set PROPERTIES_ORIGIN ["COM"]
properties('MP2/aug-cc-pvtz', properties = ['dipole'])
--------------------------------------------------------------------------

    Molecular point group: c1
  Charge       = 0
  Multiplicity = 1
  Basis Set: AUG-CC-PVTZ
    Blend: AUG-CC-PVTZ
  Basis Set: (AUG-CC-PVTZ AUX)
    Blend: AUG-CC-PVTZ-JKFIT

    Orbital Energies [Eh]
    ---------------------

    Doubly Occupied:

       1A    -20.509233     2A    -15.577998     3A    -11.343235
       4A    -11.282362     5A    -11.244827     6A    -11.238698
       7A    -11.237631     8A    -11.224542     9A     -1.363533
      10A     -1.227185    11A     -1.123505    12A     -1.043109
      13A     -0.945943    14A     -0.896212    15A     -0.784919
      16A     -0.764990    17A     -0.687185    18A     -0.681402
      19A     -0.637857    20A     -0.618494    21A     -0.610362
      22A     -0.592690    23A     -0.567291    24A     -0.542541
      25A     -0.530449    26A     -0.509571    27A     -0.500307
      28A     -0.455279    29A     -0.448075    30A     -0.410845
      31A     -0.372250

  @DF-RHF Final Energy:  -363.02557673076808

   => Energetics <=

    Nuclear Repulsion Energy =            395.7547828665205998
    One-Electron Energy =               -1277.6156821651520659
    Two-Electron Energy =                 518.8353225678633862
    Total Energy =                       -363.0255767307680799
  Basis Set: (AUG-CC-PVTZ AUX)
    Blend: AUG-CC-PVTZ-RI
    Molecular point group: c1

    Geometry (in Angstrom), charge = 0, multiplicity = 1:

       Center              X                  Y                   Z               Mass
    ------------   -----------------  -----------------  -----------------  -----------------
         O           -2.466841309386     0.054918273452    -0.388291781591    15.994914619570
         N           -0.637478309386    -1.235253726548    -0.020560781591    14.003074004430
         C            1.912824690614     0.720380273452    -0.029918781591    12.000000000000
         C            1.809117290614    -0.568989626548    -0.330873981591    12.000000000000
         C            0.649745690614     1.552205273452    -0.255407781591    12.000000000000
         C            0.721453690614    -1.503583726548     0.423144218409    12.000000000000
         C           -0.550971309386     1.133439273452     0.606896218409    12.000000000000
         C           -1.312046309386    -0.046018726548     0.035168218409    12.000000000000
         H            2.731446690614     1.154148273452    -0.617303781591     1.007825032230
         H            2.209264690614     0.812642273452     1.024375218409     1.007825032230
         H            1.577329690614    -0.889246726548    -1.443965781591     1.007825032230
         H            2.761132690614    -1.245408726548    -0.185444781591     1.007825032230
         H            0.361134690614     1.519018273452    -1.313729781591     1.007825032230
         H            0.885621690614     2.599413273452    -0.032716781591     1.007825032230
         H            0.867152690614    -2.582891726548     0.320884218409     1.007825032230
         H            0.827321690614    -1.274882726548     1.492632218409     1.007825032230
         H           -1.281343309386     1.943636273452     0.665646218409     1.007825032230
         H           -0.217361309386     0.912653273452     1.629918218409     1.007825032230
         H           -1.174321309386    -1.986867726548    -0.438406781591     1.007825032230

  Basis Set: AUG-CC-PVTZ
    Blend: AUG-CC-PVTZ
  Basis Set: (AUG-CC-PVTZ AUX)
    Blend: AUG-CC-PVTZ-JKFIT
	 Reference Energy          =    -363.0255767307680799 [Eh]
	 Singles Energy            =      -0.0000000000000000 [Eh]
	 Same-Spin Energy          =      -0.3805130157347292 [Eh]
	 Opposite-Spin Energy      =      -1.2517722506499578 [Eh]
	 Correlation Energy        =      -1.6322852663846870 [Eh]
	 Total Energy              =    -364.6578619971527928 [Eh]

	 ================> DF-SCS-MP2 Energies <==================
	-----------------------------------------------------------
	 SCS Same-Spin Scale       =       0.3333333333333333 [-]
	 SCS Opposite-Spin Scale   =       1.2000000000000000 [-]
	 SCS Same-Spin Energy      =      -0.1268376719115764 [Eh]
	 SCS Opposite-Spin Energy  =      -1.5021267007799493 [Eh]
	 SCS Correlation Energy    =      -1.6289643726915257 [Eh]
	 SCS Total Energy          =    -364.6545411034596214 [Eh]
	-----------------------------------------------------------

  Dipole Moment: [D]
     X:     4.0309      Y:    -0.9296      Z:     0.9517     Total:     4.2447

*** Psi4 exiting successfully. Buy a developer a beer!
