                               Psi4 1.3.2 release

  ==> Input File <==

--------------------------------------------------------------------------
#psi4
#
memory 32 gb

molecule  {
0 1
  O       -2.5416370     0.0659770    -0.3927070
  N       -0.7122740    -1.2241950    -0.0249760
  C        1.8380290     0.7314390    -0.0343340
  C        1.7187040    -0.7521010    -0.3806110
  C        0.5749500     1.5632640    -0.2598230
  C        0.6466580    -1.4925250     0.4187290
  C       -0.6257670     1.1444980     0.6024810
  C       -1.3868420    -0.0349600     0.0307530
  H        2.6566510     1.1652070    -0.6217190
  H        2.1344690     0.8237010     1.0199600
  H        1.5025340    -0.8781880    -1.4483810
  H        2.6863370    -1.2343500    -0.1898600
  H        0.2863390     1.5300770    -1.3181450
  H        0.8108260     2.6104720    -0.0371320
  H        0.7657183    -2.3744987     0.3351656
  H        0.7525260    -1.2638240     1.4882170
  H       -1.3561390     1.9546950     0.6612310
  H       -0.2921570     0.9237120     1.6255030
  H       -1.2491170    -1.9758090    -0.4428220
units angstrom
no_reorient  #important for SAPT in psi4, default
symmetry c1  #important for SAPT in psi4, default
}

set PROPERTIES_ORIGIN ["COM"]
properties('MP2/aug-cc-pvtz', properties = ['dipole'])
--------------------------------------------------------------------------

    Molecular point group: c1
  Charge       = 0
  Multiplicity = 1
  Basis Set: AUG-CC-PVTZ
    Blend: AUG-CC-PVTZ
  Basis Set: (AUG-CC-PVTZ AUX)
    Blend: AUG-CC-PVTZ-JKFIT

    Orbital Energies [Eh]
    ---------------------

    Doubly Occupied:

       1A    -20.508299     2A    -15.577518     3A    -11.342103
       4A    -11.252685     5A    -11.235968     6A    -11.235235
       7A    -11.233345     8A    -11.232139     9A     -1.362768
      10A     -1.230471    11A     -1.093243    12A     -1.049190
      13A     -0.956097    14A     -0.896465    15A     -0.796091
      16A     -0.763350    17A     -0.699803    18A     -0.682247
      19A     -0.625209    20A     -0.620808    21A     -0.604544
      22A     -0.597034    23A     -0.569615    24A     -0.545420
      25A     -0.523333    26A     -0.515103    27A     -0.481758
      28A     -0.472246    29A     -0.469664    30A     -0.410242
      31A     -0.381955

  @DF-RHF Final Energy:  -363.04219125926164

   => Energetics <=

    Nuclear Repulsion Energy =            395.2665556434590144
    One-Electron Energy =               -1276.6896014172252762
    Two-Electron Energy =                 518.3808545145046764
    Total Energy =                       -363.0421912592615854
  Basis Set: (AUG-CC-PVTZ AUX)
    Blend: AUG-CC-PVTZ-RI
    Molecular point group: c1

    Geometry (in Angstrom), charge = 0, multiplicity = 1:

       Center              X                  Y                   Z               Mass
    ------------   -----------------  -----------------  -----------------  -----------------
         O           -2.464946627314     0.073764100864    -0.383649052279    15.994914619570
         N           -0.635583627314    -1.216407899136    -0.015918052279    14.003074004430
         C            1.914719372686     0.739226100864    -0.025276052279    12.000000000000
         C            1.795394372686    -0.744313899136    -0.371553052279    12.000000000000
         C            0.651640372686     1.571051100864    -0.250765052279    12.000000000000
         C            0.723348372686    -1.484737899136     0.427786947721    12.000000000000
         C           -0.549076627314     1.152285100864     0.611538947721    12.000000000000
         C           -1.310151627314    -0.027172899136     0.039810947721    12.000000000000
         H            2.733341372686     1.172994100864    -0.612661052279     1.007825032230
         H            2.211159372686     0.831488100864     1.029017947721     1.007825032230
         H            1.579224372686    -0.870400899136    -1.439323052279     1.007825032230
         H            2.763027372686    -1.226562899136    -0.180802052279     1.007825032230
         H            0.363029372686     1.537864100864    -1.309087052279     1.007825032230
         H            0.887516372686     2.618259100864    -0.028074052279     1.007825032230
         H            0.842408672686    -2.366711599136     0.344223547721     1.007825032230
         H            0.829216372686    -1.256036899136     1.497274947721     1.007825032230
         H           -1.279448627314     1.962482100864     0.670288947721     1.007825032230
         H           -0.215466627314     0.931499100864     1.634560947721     1.007825032230
         H           -1.172426627314    -1.968021899136    -0.433764052279     1.007825032230

  Basis Set: AUG-CC-PVTZ
    Blend: AUG-CC-PVTZ
  Basis Set: (AUG-CC-PVTZ AUX)
    Blend: AUG-CC-PVTZ-JKFIT
	 Reference Energy          =    -363.0421912592616422 [Eh]
	 Singles Energy            =      -0.0000000000000000 [Eh]
	 Same-Spin Energy          =      -0.3776572481512513 [Eh]
	 Opposite-Spin Energy      =      -1.2467514192343943 [Eh]
	 Correlation Energy        =      -1.6244086673856455 [Eh]
	 Total Energy              =    -364.6665999266472795 [Eh]

	 ================> DF-SCS-MP2 Energies <==================
	-----------------------------------------------------------
	 SCS Same-Spin Scale       =       0.3333333333333333 [-]
	 SCS Opposite-Spin Scale   =       1.2000000000000000 [-]
	 SCS Same-Spin Energy      =      -0.1258857493837504 [Eh]
	 SCS Opposite-Spin Energy  =      -1.4961017030812731 [Eh]
	 SCS Correlation Energy    =      -1.6219874524650235 [Eh]
	 SCS Total Energy          =    -364.6641787117266631 [Eh]
	-----------------------------------------------------------

  Dipole Moment: [D]
     X:     4.0853      Y:    -1.1173      Z:     0.9115     Total:     4.3323

*** Psi4 exiting successfully. Buy a developer a beer!
