                               Psi4 1.3.2 release

  ==> Input File <==

--------------------------------------------------------------------------
#psi4
#
memory 32 gb

molecule  {
0 1
  O       -2.5416370     0.0659770    -0.3927070
  N       -0.7122740    -1.2241950    -0.0249760
  C        1.8380290     0.7314390    -0.0343340
  C        1.8204989    -0.7634028    -0.3508430
  C        0.5749500     1.5632640    -0.2598230
  C        0.6466580    -1.4925250     0.4187290
  C       -0.6257670     1.1444980     0.6024810
  C       -1.3868420    -0.0349600     0.0307530
  H        2.6566510     1.1652070    -0.6217190
  H        2.1344690     0.8237010     1.0199600
  H        1.5025340    -0.8781880    -1.4483810
  H        2.6863370    -1.2343500    -0.1898600
  H        0.2863390     1.5300770    -1.3181450
  H        0.8108260     2.6104720    -0.0371320
  H        0.7923570    -2.5718330     0.3164690
  H        0.7525260    -1.2638240     1.4882170
  H       -1.3561390     1.9546950     0.6612310
  H       -0.2921570     0.9237120     1.6255030
  H       -1.2491170    -1.9758090    -0.4428220
units angstrom
no_reorient  #important for SAPT in psi4, default
symmetry c1  #important for SAPT in psi4, default
}

set PROPERTIES_ORIGIN ["COM"]
properties('MP2/aug-cc-pvtz', properties = ['dipole'])
--------------------------------------------------------------------------

    Molecular point group: c1
  Charge       = 0
  Multiplicity = 1
  Basis Set: AUG-CC-PVTZ
    Blend: AUG-CC-PVTZ
  Basis Set: (AUG-CC-PVTZ AUX)
    Blend: AUG-CC-PVTZ-JKFIT

    Orbital Energies [Eh]
    ---------------------

    Doubly Occupied:

       1A    -20.509867     2A    -15.580961     3A    -11.343641
       4A    -11.278693     5A    -11.238970     6A    -11.236503
       7A    -11.234010     8A    -11.233047     9A     -1.364084
      10A     -1.226848    11A     -1.093293    12A     -1.040450
      13A     -0.942679    14A     -0.893412    15A     -0.797384
      16A     -0.764676    17A     -0.687281    18A     -0.675671
      19A     -0.631243    20A     -0.608231    21A     -0.601716
      22A     -0.592388    23A     -0.579499    24A     -0.544309
      25A     -0.520516    26A     -0.509690    27A     -0.485474
      28A     -0.469574    29A     -0.463030    30A     -0.411314
      31A     -0.381001

  @DF-RHF Final Energy:  -363.06231973082868

   => Energetics <=

    Nuclear Repulsion Energy =            392.8232076131484973
    One-Electron Energy =               -1271.8921393064360927
    Two-Electron Energy =                 516.0066119624589192
    Total Energy =                       -363.0623197308286763
  Basis Set: (AUG-CC-PVTZ AUX)
    Blend: AUG-CC-PVTZ-RI
    Molecular point group: c1

    Geometry (in Angstrom), charge = 0, multiplicity = 1:

       Center              X                  Y                   Z               Mass
    ------------   -----------------  -----------------  -----------------  -----------------
         O           -2.475986078009     0.076722077748    -0.386641278474    15.994914619570
         N           -0.646623078009    -1.213449922252    -0.018910278474    14.003074004430
         C            1.903679921991     0.742184077748    -0.028268278474    12.000000000000
         C            1.886149821991    -0.752657722252    -0.344777278474    12.000000000000
         C            0.640600921991     1.574009077748    -0.253757278474    12.000000000000
         C            0.712308921991    -1.481779922252     0.424794721526    12.000000000000
         C           -0.560116078009     1.155243077748     0.608546721526    12.000000000000
         C           -1.321191078009    -0.024214922252     0.036818721526    12.000000000000
         H            2.722301921991     1.175952077748    -0.615653278474     1.007825032230
         H            2.200119921991     0.834446077748     1.026025721526     1.007825032230
         H            1.568184921991    -0.867442922252    -1.442315278474     1.007825032230
         H            2.751987921991    -1.223604922252    -0.183794278474     1.007825032230
         H            0.351989921991     1.540822077748    -1.312079278474     1.007825032230
         H            0.876476921991     2.621217077748    -0.031066278474     1.007825032230
         H            0.858007921991    -2.561087922252     0.322534721526     1.007825032230
         H            0.818176921991    -1.253078922252     1.494282721526     1.007825032230
         H           -1.290488078009     1.965440077748     0.667296721526     1.007825032230
         H           -0.226506078009     0.934457077748     1.631568721526     1.007825032230
         H           -1.183466078009    -1.965063922252    -0.436756278474     1.007825032230

  Basis Set: AUG-CC-PVTZ
    Blend: AUG-CC-PVTZ
  Basis Set: (AUG-CC-PVTZ AUX)
    Blend: AUG-CC-PVTZ-JKFIT
	 Reference Energy          =    -363.0623197308286763 [Eh]
	 Singles Energy            =      -0.0000000000000000 [Eh]
	 Same-Spin Energy          =      -0.3776518964849400 [Eh]
	 Opposite-Spin Energy      =      -1.2480077208888964 [Eh]
	 Correlation Energy        =      -1.6256596173738365 [Eh]
	 Total Energy              =    -364.6879793482025320 [Eh]

	 ================> DF-SCS-MP2 Energies <==================
	-----------------------------------------------------------
	 SCS Same-Spin Scale       =       0.3333333333333333 [-]
	 SCS Opposite-Spin Scale   =       1.2000000000000000 [-]
	 SCS Same-Spin Energy      =      -0.1258839654949800 [Eh]
	 SCS Opposite-Spin Energy  =      -1.4976092650666757 [Eh]
	 SCS Correlation Energy    =      -1.6234932305616556 [Eh]
	 SCS Total Energy          =    -364.6858129613903543 [Eh]
	-----------------------------------------------------------

  Dipole Moment: [D]
     X:     4.0541      Y:    -1.0119      Z:     0.9165     Total:     4.2778

*** Psi4 exiting successfully. Buy a developer a beer!
