                               Psi4 1.3.2 release

  ==> Input File <==

--------------------------------------------------------------------------
#psi4
#
memory 32 gb

molecule  {
0 1
  O       -2.5416370     0.0659770    -0.3927070
  N       -0.7122740    -1.2241950    -0.0249760
  C        1.8380290     0.7314390    -0.0343340
  C        1.7187040    -0.7521010    -0.3806110
  C        0.5749500     1.5632640    -0.2598230
  C        0.6466580    -1.4925250     0.4187290
  C       -0.6257670     1.1444980     0.6024810
  C       -1.3868420    -0.0349600     0.0307530
  H        2.6660576     1.1690156    -0.6054847
  H        2.1344690     0.8237010     1.0199600
  H        1.5025340    -0.8781880    -1.4483810
  H        2.6863370    -1.2343500    -0.1898600
  H        0.2863390     1.5300770    -1.3181450
  H        0.8108260     2.6104720    -0.0371320
  H        0.7923570    -2.5718330     0.3164690
  H        0.7525260    -1.2638240     1.4882170
  H       -1.3561390     1.9546950     0.6612310
  H       -0.2921570     0.9237120     1.6255030
  H       -1.2491170    -1.9758090    -0.4428220
units angstrom
no_reorient  #important for SAPT in psi4, default
symmetry c1  #important for SAPT in psi4, default
}

set PROPERTIES_ORIGIN ["COM"]
properties('MP2/aug-cc-pvtz', properties = ['dipole'])
--------------------------------------------------------------------------

    Molecular point group: c1
  Charge       = 0
  Multiplicity = 1
  Basis Set: AUG-CC-PVTZ
    Blend: AUG-CC-PVTZ
  Basis Set: (AUG-CC-PVTZ AUX)
    Blend: AUG-CC-PVTZ-JKFIT

    Orbital Energies [Eh]
    ---------------------

    Doubly Occupied:

       1A    -20.509085     2A    -15.578697     3A    -11.343062
       4A    -11.277407     5A    -11.236742     6A    -11.236032
       7A    -11.234444     8A    -11.233010     9A     -1.363480
      10A     -1.228296    11A     -1.093901    12A     -1.042216
      13A     -0.945408    14A     -0.888549    15A     -0.795831
      16A     -0.764088    17A     -0.687833    18A     -0.676796
      19A     -0.626065    20A     -0.611919    21A     -0.601785
      22A     -0.591981    23A     -0.569777    24A     -0.545201
      25A     -0.519225    26A     -0.515788    27A     -0.481272
      28A     -0.470656    29A     -0.469519    30A     -0.410626
      31A     -0.382805

  @DF-RHF Final Energy:  -363.07544788662705

   => Energetics <=

    Nuclear Repulsion Energy =            394.0723459336755923
    One-Electron Energy =               -1274.4325968582943460
    Two-Electron Energy =                 517.2848030379917645
    Total Energy =                       -363.0754478866269892
  Basis Set: (AUG-CC-PVTZ AUX)
    Blend: AUG-CC-PVTZ-RI
    Molecular point group: c1

    Geometry (in Angstrom), charge = 0, multiplicity = 1:

       Center              X                  Y                   Z               Mass
    ------------   -----------------  -----------------  -----------------  -----------------
         O           -2.465267869356     0.075488835879    -0.383627107829    15.994914619570
         N           -0.635904869356    -1.214683164121    -0.015896107829    14.003074004430
         C            1.914398130644     0.740950835879    -0.025254107829    12.000000000000
         C            1.795073130644    -0.742589164121    -0.371531107829    12.000000000000
         C            0.651319130644     1.572775835879    -0.250743107829    12.000000000000
         C            0.723027130644    -1.483013164121     0.427808892171    12.000000000000
         C           -0.549397869356     1.154009835879     0.611560892171    12.000000000000
         C           -1.310472869356    -0.025448164121     0.039832892171    12.000000000000
         H            2.742426730644     1.178527435879    -0.596404807829     1.007825032230
         H            2.210838130644     0.833212835879     1.029039892171     1.007825032230
         H            1.578903130644    -0.868676164121    -1.439301107829     1.007825032230
         H            2.762706130644    -1.224838164121    -0.180780107829     1.007825032230
         H            0.362708130644     1.539588835879    -1.309065107829     1.007825032230
         H            0.887195130644     2.619983835879    -0.028052107829     1.007825032230
         H            0.868726130644    -2.562321164121     0.325548892171     1.007825032230
         H            0.828895130644    -1.254312164121     1.497296892171     1.007825032230
         H           -1.279769869356     1.964206835879     0.670310892171     1.007825032230
         H           -0.215787869356     0.933223835879     1.634582892171     1.007825032230
         H           -1.172747869356    -1.966297164121    -0.433742107829     1.007825032230

  Basis Set: AUG-CC-PVTZ
    Blend: AUG-CC-PVTZ
  Basis Set: (AUG-CC-PVTZ AUX)
    Blend: AUG-CC-PVTZ-JKFIT
	 Reference Energy          =    -363.0754478866270460 [Eh]
	 Singles Energy            =      -0.0000000000000000 [Eh]
	 Same-Spin Energy          =      -0.3777277189635369 [Eh]
	 Opposite-Spin Energy      =      -1.2476554190262148 [Eh]
	 Correlation Energy        =      -1.6253831379897516 [Eh]
	 Total Energy              =    -364.7008310246167753 [Eh]

	 ================> DF-SCS-MP2 Energies <==================
	-----------------------------------------------------------
	 SCS Same-Spin Scale       =       0.3333333333333333 [-]
	 SCS Opposite-Spin Scale   =       1.2000000000000000 [-]
	 SCS Same-Spin Energy      =      -0.1259092396545123 [Eh]
	 SCS Opposite-Spin Energy  =      -1.4971865028314577 [Eh]
	 SCS Correlation Energy    =      -1.6230957424859700 [Eh]
	 SCS Total Energy          =    -364.6985436291130327 [Eh]
	-----------------------------------------------------------

  Dipole Moment: [D]
     X:     4.0744      Y:    -1.0354      Z:     0.9008     Total:     4.2993

*** Psi4 exiting successfully. Buy a developer a beer!
