                               Psi4 1.3.2 release

  ==> Input File <==

--------------------------------------------------------------------------
#psi4
#
memory 32 gb

molecule  {
0 1
  O       -2.5416370     0.0659770    -0.3927070
  N       -0.7122740    -1.2241950    -0.0249760
  C        1.8380290     0.7314390    -0.0343340
  C        1.7593852    -0.7464706    -0.4146437
  C        0.5749500     1.5632640    -0.2598230
  C        0.6466580    -1.4925250     0.4187290
  C       -0.6257670     1.1444980     0.6024810
  C       -1.3868420    -0.0349600     0.0307530
  H        2.6566510     1.1652070    -0.6217190
  H        2.1344690     0.8237010     1.0199600
  H        1.5025340    -0.8781880    -1.4483810
  H        2.6863370    -1.2343500    -0.1898600
  H        0.2863390     1.5300770    -1.3181450
  H        0.8108260     2.6104720    -0.0371320
  H        0.7923570    -2.5718330     0.3164690
  H        0.7525260    -1.2638240     1.4882170
  H       -1.3561390     1.9546950     0.6612310
  H       -0.2921570     0.9237120     1.6255030
  H       -1.2491170    -1.9758090    -0.4428220
units angstrom
no_reorient  #important for SAPT in psi4, default
symmetry c1  #important for SAPT in psi4, default
}

set PROPERTIES_ORIGIN ["COM"]
properties('MP2/aug-cc-pvtz', properties = ['dipole'])
--------------------------------------------------------------------------

    Molecular point group: c1
  Charge       = 0
  Multiplicity = 1
  Basis Set: AUG-CC-PVTZ
    Blend: AUG-CC-PVTZ
  Basis Set: (AUG-CC-PVTZ AUX)
    Blend: AUG-CC-PVTZ-JKFIT

    Orbital Energies [Eh]
    ---------------------

    Doubly Occupied:

       1A    -20.508975     2A    -15.578887     3A    -11.342833
       4A    -11.278155     5A    -11.237071     6A    -11.235911
       7A    -11.233036     8A    -11.232411     9A     -1.363298
      10A     -1.226623    11A     -1.093046    12A     -1.038922
      13A     -0.942139    14A     -0.890697    15A     -0.797877
      16A     -0.763298    17A     -0.686891    18A     -0.675387
      19A     -0.625125    20A     -0.611508    21A     -0.603112
      22A     -0.590360    23A     -0.572467    24A     -0.540460
      25A     -0.520195    26A     -0.518636    27A     -0.484880
      28A     -0.474536    29A     -0.463874    30A     -0.410491
      31A     -0.380038

  @DF-RHF Final Energy:  -363.07329530650463

   => Energetics <=

    Nuclear Repulsion Energy =            393.3526938761552287
    One-Electron Energy =               -1273.0096988284340114
    Two-Electron Energy =                 516.5837096457742064
    Total Energy =                       -363.0732953065046331
  Basis Set: (AUG-CC-PVTZ AUX)
    Blend: AUG-CC-PVTZ-RI
    Molecular point group: c1

    Geometry (in Angstrom), charge = 0, multiplicity = 1:

       Center              X                  Y                   Z               Mass
    ------------   -----------------  -----------------  -----------------  -----------------
         O           -2.469500952039     0.074925304686    -0.379871019491    15.994914619570
         N           -0.640137952039    -1.215246695314    -0.012140019491    14.003074004430
         C            1.910165047961     0.740387304686    -0.021498019491    12.000000000000
         C            1.831521247961    -0.737522295314    -0.401807719491    12.000000000000
         C            0.647086047961     1.572212304686    -0.246987019491    12.000000000000
         C            0.718794047961    -1.483576695314     0.431564980509    12.000000000000
         C           -0.553630952039     1.153446304686     0.615316980509    12.000000000000
         C           -1.314705952039    -0.026011695314     0.043588980509    12.000000000000
         H            2.728787047961     1.174155304686    -0.608883019491     1.007825032230
         H            2.206605047961     0.832649304686     1.032795980509     1.007825032230
         H            1.574670047961    -0.869239695314    -1.435545019491     1.007825032230
         H            2.758473047961    -1.225401695314    -0.177024019491     1.007825032230
         H            0.358475047961     1.539025304686    -1.305309019491     1.007825032230
         H            0.882962047961     2.619420304686    -0.024296019491     1.007825032230
         H            0.864493047961    -2.562884695314     0.329304980509     1.007825032230
         H            0.824662047961    -1.254875695314     1.501052980509     1.007825032230
         H           -1.284002952039     1.963643304686     0.674066980509     1.007825032230
         H           -0.220020952039     0.932660304686     1.638338980509     1.007825032230
         H           -1.176980952039    -1.966860695314    -0.429986019491     1.007825032230

  Basis Set: AUG-CC-PVTZ
    Blend: AUG-CC-PVTZ
  Basis Set: (AUG-CC-PVTZ AUX)
    Blend: AUG-CC-PVTZ-JKFIT
	 Reference Energy          =    -363.0732953065046331 [Eh]
	 Singles Energy            =      -0.0000000000000000 [Eh]
	 Same-Spin Energy          =      -0.3775152885668290 [Eh]
	 Opposite-Spin Energy      =      -1.2475598826341283 [Eh]
	 Correlation Energy        =      -1.6250751712009572 [Eh]
	 Total Energy              =    -364.6983704777055664 [Eh]

	 ================> DF-SCS-MP2 Energies <==================
	-----------------------------------------------------------
	 SCS Same-Spin Scale       =       0.3333333333333333 [-]
	 SCS Opposite-Spin Scale   =       1.2000000000000000 [-]
	 SCS Same-Spin Energy      =      -0.1258384295222763 [Eh]
	 SCS Opposite-Spin Energy  =      -1.4970718591609540 [Eh]
	 SCS Correlation Energy    =      -1.6229102886832303 [Eh]
	 SCS Total Energy          =    -364.6962055951878483 [Eh]
	-----------------------------------------------------------

  Dipole Moment: [D]
     X:     4.0682      Y:    -1.0377      Z:     0.8875     Total:     4.2912

*** Psi4 exiting successfully. Buy a developer a beer!
