                               Psi4 1.3.2 release

  ==> Input File <==

--------------------------------------------------------------------------
#psi4
#
memory 32 gb

molecule  {
0 1
  O       -2.5416370     0.0659770    -0.3927070
  N       -0.7122740    -1.2241950    -0.0249760
  C        1.9158611     0.7382912    -0.1069375
  C        1.7187040    -0.7521010    -0.3806110
  C        0.5749500     1.5632640    -0.2598230
  C        0.6466580    -1.4925250     0.4187290
  C       -0.6257670     1.1444980     0.6024810
  C       -1.3868420    -0.0349600     0.0307530
  H        2.6566510     1.1652070    -0.6217190
  H        2.1344690     0.8237010     1.0199600
  H        1.5025340    -0.8781880    -1.4483810
  H        2.6863370    -1.2343500    -0.1898600
  H        0.2863390     1.5300770    -1.3181450
  H        0.8108260     2.6104720    -0.0371320
  H        0.7923570    -2.5718330     0.3164690
  H        0.7525260    -1.2638240     1.4882170
  H       -1.3561390     1.9546950     0.6612310
  H       -0.2921570     0.9237120     1.6255030
  H       -1.2491170    -1.9758090    -0.4428220
units angstrom
no_reorient  #important for SAPT in psi4, default
symmetry c1  #important for SAPT in psi4, default
}

set PROPERTIES_ORIGIN ["COM"]
properties('MP2/aug-cc-pvtz', properties = ['dipole'])
--------------------------------------------------------------------------

    Molecular point group: c1
  Charge       = 0
  Multiplicity = 1
  Basis Set: AUG-CC-PVTZ
    Blend: AUG-CC-PVTZ
  Basis Set: (AUG-CC-PVTZ AUX)
    Blend: AUG-CC-PVTZ-JKFIT

    Orbital Energies [Eh]
    ---------------------

    Doubly Occupied:

       1A    -20.509438     2A    -15.579027     3A    -11.343388
       4A    -11.279770     5A    -11.238302     6A    -11.237687
       7A    -11.234538     8A    -11.232813     9A     -1.363779
      10A     -1.228441    11A     -1.088533    12A     -1.042188
      13A     -0.948256    14A     -0.887480    15A     -0.798125
      16A     -0.764833    17A     -0.687404    18A     -0.680515
      19A     -0.630464    20A     -0.609645    21A     -0.595810
      22A     -0.593604    23A     -0.573396    24A     -0.547310
      25A     -0.525605    26A     -0.514119    27A     -0.485480
      28A     -0.467852    29A     -0.455345    30A     -0.411118
      31A     -0.383616

  @DF-RHF Final Energy:  -363.06251505814885

   => Energetics <=

    Nuclear Repulsion Energy =            392.9349071992681957
    One-Electron Energy =               -1272.1190809443492071
    Two-Electron Energy =                 516.1216586869321645
    Total Energy =                       -363.0625150581488469
  Basis Set: (AUG-CC-PVTZ AUX)
    Blend: AUG-CC-PVTZ-RI
    Molecular point group: c1

    Geometry (in Angstrom), charge = 0, multiplicity = 1:

       Center              X                  Y                   Z               Mass
    ------------   -----------------  -----------------  -----------------  -----------------
         O           -2.473443247570     0.074795652465    -0.375778050211    15.994914619570
         N           -0.644080247570    -1.215376347535    -0.008047050211    14.003074004430
         C            1.984054852430     0.747109852465    -0.090008550211    12.000000000000
         C            1.786897752430    -0.743282347535    -0.363682050211    12.000000000000
         C            0.643143752430     1.572082652465    -0.242894050211    12.000000000000
         C            0.714851752430    -1.483706347535     0.435657949789    12.000000000000
         C           -0.557573247570     1.153316652465     0.619409949789    12.000000000000
         C           -1.318648247570    -0.026141347535     0.047681949789    12.000000000000
         H            2.724844752430     1.174025652465    -0.604790050211     1.007825032230
         H            2.202662752430     0.832519652465     1.036888949789     1.007825032230
         H            1.570727752430    -0.869369347535    -1.431452050211     1.007825032230
         H            2.754530752430    -1.225531347535    -0.172931050211     1.007825032230
         H            0.354532752430     1.538895652465    -1.301216050211     1.007825032230
         H            0.879019752430     2.619290652465    -0.020203050211     1.007825032230
         H            0.860550752430    -2.563014347535     0.333397949789     1.007825032230
         H            0.820719752430    -1.255005347535     1.505145949789     1.007825032230
         H           -1.287945247570     1.963513652465     0.678159949789     1.007825032230
         H           -0.223963247570     0.932530652465     1.642431949789     1.007825032230
         H           -1.180923247570    -1.966990347535    -0.425893050211     1.007825032230

  Basis Set: AUG-CC-PVTZ
    Blend: AUG-CC-PVTZ
  Basis Set: (AUG-CC-PVTZ AUX)
    Blend: AUG-CC-PVTZ-JKFIT
	 Reference Energy          =    -363.0625150581488469 [Eh]
	 Singles Energy            =      -0.0000000000000000 [Eh]
	 Same-Spin Energy          =      -0.3775728075755698 [Eh]
	 Opposite-Spin Energy      =      -1.2479459696605886 [Eh]
	 Correlation Energy        =      -1.6255187772361583 [Eh]
	 Total Energy              =    -364.6880338353849993 [Eh]

	 ================> DF-SCS-MP2 Energies <==================
	-----------------------------------------------------------
	 SCS Same-Spin Scale       =       0.3333333333333333 [-]
	 SCS Opposite-Spin Scale   =       1.2000000000000000 [-]
	 SCS Same-Spin Energy      =      -0.1258576025251899 [Eh]
	 SCS Opposite-Spin Energy  =      -1.4975351635927063 [Eh]
	 SCS Correlation Energy    =      -1.6233927661178962 [Eh]
	 SCS Total Energy          =    -364.6859078242667351 [Eh]
	-----------------------------------------------------------

  Dipole Moment: [D]
     X:     4.0596      Y:    -1.0488      Z:     0.8671     Total:     4.2816

*** Psi4 exiting successfully. Buy a developer a beer!
