                               Psi4 1.3.2 release

  ==> Input File <==

--------------------------------------------------------------------------
#psi4
#
memory 32 gb

molecule  {
0 1
  O       -2.5416370     0.0659770    -0.3927070
  N       -0.7122740    -1.2241950    -0.0249760
  C        1.8380290     0.7314390    -0.0343340
  C        1.7187040    -0.7521010    -0.3806110
  C        0.5749500     1.5632640    -0.2598230
  C        0.6466580    -1.4925250     0.4187290
  C       -0.6257670     1.1444980     0.6024810
  C       -1.3868420    -0.0349600     0.0307530
  H        2.6566510     1.1652070    -0.6217190
  H        2.1344690     0.8237010     1.0199600
  H        1.5025340    -0.8781880    -1.4483810
  H        2.6863370    -1.2343500    -0.1898600
  H        0.2863390     1.5300770    -1.3181450
  H        0.8108260     2.6104720    -0.0371320
  H        0.8189957    -2.7691673     0.2977724
  H        0.7525260    -1.2638240     1.4882170
  H       -1.3561390     1.9546950     0.6612310
  H       -0.2921570     0.9237120     1.6255030
  H       -1.2491170    -1.9758090    -0.4428220
units angstrom
no_reorient  #important for SAPT in psi4, default
symmetry c1  #important for SAPT in psi4, default
}

set PROPERTIES_ORIGIN ["COM"]
properties('MP2/aug-cc-pvtz', properties = ['dipole'])
--------------------------------------------------------------------------

    Molecular point group: c1
  Charge       = 0
  Multiplicity = 1
  Basis Set: AUG-CC-PVTZ
    Blend: AUG-CC-PVTZ
  Basis Set: (AUG-CC-PVTZ AUX)
    Blend: AUG-CC-PVTZ-JKFIT

    Orbital Energies [Eh]
    ---------------------

    Doubly Occupied:

       1A    -20.510491     2A    -15.580790     3A    -11.344820
       4A    -11.300131     5A    -11.237968     6A    -11.237311
       7A    -11.236366     8A    -11.234887     9A     -1.364859
      10A     -1.228664    11A     -1.095572    12A     -1.040420
      13A     -0.941696    14A     -0.883694    15A     -0.796294
      16A     -0.765394    17A     -0.688179    18A     -0.669868
      19A     -0.628061    20A     -0.611212    21A     -0.601880
      22A     -0.578511    23A     -0.570265    24A     -0.545314
      25A     -0.517634    26A     -0.512696    27A     -0.481482
      28A     -0.472173    29A     -0.462100    30A     -0.411299
      31A     -0.384415

  @DF-RHF Final Energy:  -363.05495764519139

   => Energetics <=

    Nuclear Repulsion Energy =            393.1458325616106322
    One-Electron Energy =               -1272.5326927826038172
    Two-Electron Energy =                 516.3319025758017915
    Total Energy =                       -363.0549576451913936
  Basis Set: (AUG-CC-PVTZ AUX)
    Blend: AUG-CC-PVTZ-RI
    Molecular point group: c1

    Geometry (in Angstrom), charge = 0, multiplicity = 1:

       Center              X                  Y                   Z               Mass
    ------------   -----------------  -----------------  -----------------  -----------------
         O           -2.465421444856     0.077281456719    -0.383315797516    15.994914619570
         N           -0.636058444856    -1.212890543281    -0.015584797516    14.003074004430
         C            1.914244555144     0.742743456719    -0.024942797516    12.000000000000
         C            1.794919555144    -0.740796543281    -0.371219797516    12.000000000000
         C            0.651165555144     1.574568456719    -0.250431797516    12.000000000000
         C            0.722873555144    -1.481220543281     0.428120202484    12.000000000000
         C           -0.549551444856     1.155802456719     0.611872202484    12.000000000000
         C           -1.310626444856    -0.023655543281     0.040144202484    12.000000000000
         H            2.732866555144     1.176511456719    -0.612327797516     1.007825032230
         H            2.210684555144     0.835005456719     1.029351202484     1.007825032230
         H            1.578749555144    -0.866883543281    -1.438989797516     1.007825032230
         H            2.762552555144    -1.223045543281    -0.180468797516     1.007825032230
         H            0.362554555144     1.541381456719    -1.308753797516     1.007825032230
         H            0.887041555144     2.621776456719    -0.027740797516     1.007825032230
         H            0.895211255144    -2.757862843281     0.307163602484     1.007825032230
         H            0.828741555144    -1.252519543281     1.497608202484     1.007825032230
         H           -1.279923444856     1.965999456719     0.670622202484     1.007825032230
         H           -0.215941444856     0.935016456719     1.634894202484     1.007825032230
         H           -1.172901444856    -1.964504543281    -0.433430797516     1.007825032230

  Basis Set: AUG-CC-PVTZ
    Blend: AUG-CC-PVTZ
  Basis Set: (AUG-CC-PVTZ AUX)
    Blend: AUG-CC-PVTZ-JKFIT
	 Reference Energy          =    -363.0549576451913936 [Eh]
	 Singles Energy            =      -0.0000000000000000 [Eh]
	 Same-Spin Energy          =      -0.3779313878662944 [Eh]
	 Opposite-Spin Energy      =      -1.2496109780357747 [Eh]
	 Correlation Energy        =      -1.6275423659020691 [Eh]
	 Total Energy              =    -364.6825000110934525 [Eh]

	 ================> DF-SCS-MP2 Energies <==================
	-----------------------------------------------------------
	 SCS Same-Spin Scale       =       0.3333333333333333 [-]
	 SCS Opposite-Spin Scale   =       1.2000000000000000 [-]
	 SCS Same-Spin Energy      =      -0.1259771292887648 [Eh]
	 SCS Opposite-Spin Energy  =      -1.4995331736429296 [Eh]
	 SCS Correlation Energy    =      -1.6255103029316944 [Eh]
	 SCS Total Energy          =    -364.6804679481230664 [Eh]
	-----------------------------------------------------------

  Dipole Moment: [D]
     X:     4.0469      Y:    -0.8747      Z:     0.8764     Total:     4.2321

*** Psi4 exiting successfully. Buy a developer a beer!
