                               Psi4 1.3.2 release

  ==> Input File <==

--------------------------------------------------------------------------
#psi4
#
memory 32 gb

molecule  {
0 1
  O       -2.5416370     0.0659770    -0.3927070
  N       -0.7122740    -1.2241950    -0.0249760
  C        1.8380290     0.7314390    -0.0343340
  C        1.5977300    -0.7581309    -0.2761500
  C        0.5749500     1.5632640    -0.2598230
  C        0.6466580    -1.4925250     0.4187290
  C       -0.6257670     1.1444980     0.6024810
  C       -1.3868420    -0.0349600     0.0307530
  H        2.6566510     1.1652070    -0.6217190
  H        2.1344690     0.8237010     1.0199600
  H        1.5025340    -0.8781880    -1.4483810
  H        2.6863370    -1.2343500    -0.1898600
  H        0.2863390     1.5300770    -1.3181450
  H        0.8108260     2.6104720    -0.0371320
  H        0.7923570    -2.5718330     0.3164690
  H        0.7525260    -1.2638240     1.4882170
  H       -1.3561390     1.9546950     0.6612310
  H       -0.2921570     0.9237120     1.6255030
  H       -1.2491170    -1.9758090    -0.4428220
units angstrom
no_reorient  #important for SAPT in psi4, default
symmetry c1  #important for SAPT in psi4, default
}

set PROPERTIES_ORIGIN ["COM"]
properties('MP2/aug-cc-pvtz', properties = ['dipole'])
--------------------------------------------------------------------------

    Molecular point group: c1
  Charge       = 0
  Multiplicity = 1
  Basis Set: AUG-CC-PVTZ
    Blend: AUG-CC-PVTZ
  Basis Set: (AUG-CC-PVTZ AUX)
    Blend: AUG-CC-PVTZ-JKFIT

    Orbital Energies [Eh]
    ---------------------

    Doubly Occupied:

       1A    -20.509472     2A    -15.578162     3A    -11.343834
       4A    -11.273665     5A    -11.243580     6A    -11.236949
       7A    -11.236649     8A    -11.235369     9A     -1.364161
      10A     -1.235455    11A     -1.099322    12A     -1.055976
      13A     -0.956269    14A     -0.882802    15A     -0.789421
      16A     -0.765730    17A     -0.693682    18A     -0.683534
      19A     -0.628901    20A     -0.621843    21A     -0.603198
      22A     -0.592776    23A     -0.568605    24A     -0.558904
      25A     -0.519737    26A     -0.506564    27A     -0.482592
      28A     -0.458247    29A     -0.452781    30A     -0.410781
      31A     -0.386824

  @DF-RHF Final Energy:  -363.04546128929496

   => Energetics <=

    Nuclear Repulsion Energy =            396.4329105699141564
    One-Electron Energy =               -1279.0051727219711211
    Two-Electron Energy =                 519.5268008627620020
    Total Energy =                       -363.0454612892949626
  Basis Set: (AUG-CC-PVTZ AUX)
    Blend: AUG-CC-PVTZ-RI
    Molecular point group: c1

    Geometry (in Angstrom), charge = 0, multiplicity = 1:

       Center              X                  Y                   Z               Mass
    ------------   -----------------  -----------------  -----------------  -----------------
         O           -2.452346789625     0.076162646138    -0.394567382016    15.994914619570
         N           -0.622983789625    -1.214009353862    -0.026836382016    14.003074004430
         C            1.927319210375     0.741624646138    -0.036194382016    12.000000000000
         C            1.687020210375    -0.747945253862    -0.278010382016    12.000000000000
         C            0.664240210375     1.573449646138    -0.261683382016    12.000000000000
         C            0.735948210375    -1.482339353862     0.416868617984    12.000000000000
         C           -0.536476789625     1.154683646138     0.600620617984    12.000000000000
         C           -1.297551789625    -0.024774353862     0.028892617984    12.000000000000
         H            2.745941210375     1.175392646138    -0.623579382016     1.007825032230
         H            2.223759210375     0.833886646138     1.018099617984     1.007825032230
         H            1.591824210375    -0.868002353862    -1.450241382016     1.007825032230
         H            2.775627210375    -1.224164353862    -0.191720382016     1.007825032230
         H            0.375629210375     1.540262646138    -1.320005382016     1.007825032230
         H            0.900116210375     2.620657646138    -0.038992382016     1.007825032230
         H            0.881647210375    -2.561647353862     0.314608617984     1.007825032230
         H            0.841816210375    -1.253638353862     1.486356617984     1.007825032230
         H           -1.266848789625     1.964880646138     0.659370617984     1.007825032230
         H           -0.202866789625     0.933897646138     1.623642617984     1.007825032230
         H           -1.159826789625    -1.965623353862    -0.444682382016     1.007825032230

  Basis Set: AUG-CC-PVTZ
    Blend: AUG-CC-PVTZ
  Basis Set: (AUG-CC-PVTZ AUX)
    Blend: AUG-CC-PVTZ-JKFIT
	 Reference Energy          =    -363.0454612892949626 [Eh]
	 Singles Energy            =      -0.0000000000000000 [Eh]
	 Same-Spin Energy          =      -0.3796535788689209 [Eh]
	 Opposite-Spin Energy      =      -1.2504471101013213 [Eh]
	 Correlation Energy        =      -1.6301006889702423 [Eh]
	 Total Energy              =    -364.6755619782651934 [Eh]

	 ================> DF-SCS-MP2 Energies <==================
	-----------------------------------------------------------
	 SCS Same-Spin Scale       =       0.3333333333333333 [-]
	 SCS Opposite-Spin Scale   =       1.2000000000000000 [-]
	 SCS Same-Spin Energy      =      -0.1265511929563070 [Eh]
	 SCS Opposite-Spin Energy  =      -1.5005365321215856 [Eh]
	 SCS Correlation Energy    =      -1.6270877250778926 [Eh]
	 SCS Total Energy          =    -364.6725490143728621 [Eh]
	-----------------------------------------------------------

  Dipole Moment: [D]
     X:     4.0658      Y:    -1.0064      Z:     0.9377     Total:     4.2922

*** Psi4 exiting successfully. Buy a developer a beer!
