                               Psi4 1.3.2 release

  ==> Input File <==

--------------------------------------------------------------------------
#psi4
#
memory 32 gb

molecule  {
0 1
  O       -2.5416370     0.0659770    -0.3927070
  N       -0.7122740    -1.2241950    -0.0249760
  C        1.8380290     0.7314390    -0.0343340
  C        1.7187040    -0.7521010    -0.3806110
  C        0.5749500     1.5632640    -0.2598230
  C        0.6466580    -1.4925250     0.4187290
  C       -0.6257670     1.1444980     0.6024810
  C       -1.3868420    -0.0349600     0.0307530
  H        2.7312775     1.2047498    -0.6752657
  H        2.1344690     0.8237010     1.0199600
  H        1.5025340    -0.8781880    -1.4483810
  H        2.6863370    -1.2343500    -0.1898600
  H        0.2863390     1.5300770    -1.3181450
  H        0.8108260     2.6104720    -0.0371320
  H        0.7923570    -2.5718330     0.3164690
  H        0.7525260    -1.2638240     1.4882170
  H       -1.3561390     1.9546950     0.6612310
  H       -0.2921570     0.9237120     1.6255030
  H       -1.2491170    -1.9758090    -0.4428220
units angstrom
no_reorient  #important for SAPT in psi4, default
symmetry c1  #important for SAPT in psi4, default
}

set PROPERTIES_ORIGIN ["COM"]
properties('MP2/aug-cc-pvtz', properties = ['dipole'])
--------------------------------------------------------------------------

    Molecular point group: c1
  Charge       = 0
  Multiplicity = 1
  Basis Set: AUG-CC-PVTZ
    Blend: AUG-CC-PVTZ
  Basis Set: (AUG-CC-PVTZ AUX)
    Blend: AUG-CC-PVTZ-JKFIT

    Orbital Energies [Eh]
    ---------------------

    Doubly Occupied:

       1A    -20.509680     2A    -15.579320     3A    -11.343704
       4A    -11.278298     5A    -11.245284     6A    -11.237653
       7A    -11.236944     8A    -11.235313     9A     -1.364075
      10A     -1.228979    11A     -1.092773    12A     -1.042836
      13A     -0.942454    14A     -0.889125    15A     -0.792106
      16A     -0.764314    17A     -0.688525    18A     -0.674746
      19A     -0.622356    20A     -0.612552    21A     -0.602849
      22A     -0.591843    23A     -0.566832    24A     -0.545725
      25A     -0.517839    26A     -0.516185    27A     -0.482463
      28A     -0.471170    29A     -0.463091    30A     -0.411053
      31A     -0.383173

  @DF-RHF Final Energy:  -363.06898815569389

   => Energetics <=

    Nuclear Repulsion Energy =            393.6101043038155467
    One-Electron Energy =               -1273.4916654125331661
    Two-Electron Energy =                 516.8125729530237322
    Total Energy =                       -363.0689881556938872
  Basis Set: (AUG-CC-PVTZ AUX)
    Blend: AUG-CC-PVTZ-RI
    Molecular point group: c1

    Geometry (in Angstrom), charge = 0, multiplicity = 1:

       Center              X                  Y                   Z               Mass
    ------------   -----------------  -----------------  -----------------  -----------------
         O           -2.465849120555     0.075170366415    -0.383005207306    15.994914619570
         N           -0.636486120555    -1.215001633585    -0.015274207306    14.003074004430
         C            1.913816879445     0.740632366415    -0.024632207306    12.000000000000
         C            1.794491879445    -0.742907633585    -0.370909207306    12.000000000000
         C            0.650737879445     1.572457366415    -0.250121207306    12.000000000000
         C            0.722445879445    -1.483331633585     0.428430792694    12.000000000000
         C           -0.549979120555     1.153691366415     0.612182792694    12.000000000000
         C           -1.311054120555    -0.025766633585     0.040454792694    12.000000000000
         H            2.807065379445     1.213943166415    -0.665563907306     1.007825032230
         H            2.210256879445     0.832894366415     1.029661792694     1.007825032230
         H            1.578321879445    -0.868994633585    -1.438679207306     1.007825032230
         H            2.762124879445    -1.225156633585    -0.180158207306     1.007825032230
         H            0.362126879445     1.539270366415    -1.308443207306     1.007825032230
         H            0.886613879445     2.619665366415    -0.027430207306     1.007825032230
         H            0.868144879445    -2.562639633585     0.326170792694     1.007825032230
         H            0.828313879445    -1.254630633585     1.497918792694     1.007825032230
         H           -1.280351120555     1.963888366415     0.670932792694     1.007825032230
         H           -0.216369120555     0.932905366415     1.635204792694     1.007825032230
         H           -1.173329120555    -1.966615633585    -0.433120207306     1.007825032230

  Basis Set: AUG-CC-PVTZ
    Blend: AUG-CC-PVTZ
  Basis Set: (AUG-CC-PVTZ AUX)
    Blend: AUG-CC-PVTZ-JKFIT
	 Reference Energy          =    -363.0689881556938872 [Eh]
	 Singles Energy            =      -0.0000000000000000 [Eh]
	 Same-Spin Energy          =      -0.3777583966464848 [Eh]
	 Opposite-Spin Energy      =      -1.2484433957611316 [Eh]
	 Correlation Energy        =      -1.6262017924076164 [Eh]
	 Total Energy              =    -364.6951899481015289 [Eh]

	 ================> DF-SCS-MP2 Energies <==================
	-----------------------------------------------------------
	 SCS Same-Spin Scale       =       0.3333333333333333 [-]
	 SCS Opposite-Spin Scale   =       1.2000000000000000 [-]
	 SCS Same-Spin Energy      =      -0.1259194655488283 [Eh]
	 SCS Opposite-Spin Energy  =      -1.4981320749133580 [Eh]
	 SCS Correlation Energy    =      -1.6240515404621862 [Eh]
	 SCS Total Energy          =    -364.6930396961560632 [Eh]
	-----------------------------------------------------------

  Dipole Moment: [D]
     X:     3.9911      Y:    -1.0755      Z:     0.9287     Total:     4.2365

*** Psi4 exiting successfully. Buy a developer a beer!
