                               Psi4 1.3.2 release

  ==> Input File <==

--------------------------------------------------------------------------
#psi4
#
memory 32 gb

molecule  {
0 1
  O       -2.5413315     0.1075528    -0.3814390
  N       -0.7122740    -1.2241950    -0.0249760
  C        1.8380290     0.7314390    -0.0343340
  C        1.7187040    -0.7521010    -0.3806110
  C        0.5749500     1.5632640    -0.2598230
  C        0.6466580    -1.4925250     0.4187290
  C       -0.6257670     1.1444980     0.6024810
  C       -1.3868420    -0.0349600     0.0307530
  H        2.6566510     1.1652070    -0.6217190
  H        2.1344690     0.8237010     1.0199600
  H        1.5025340    -0.8781880    -1.4483810
  H        2.6863370    -1.2343500    -0.1898600
  H        0.2863390     1.5300770    -1.3181450
  H        0.8108260     2.6104720    -0.0371320
  H        0.7923570    -2.5718330     0.3164690
  H        0.7525260    -1.2638240     1.4882170
  H       -1.3561390     1.9546950     0.6612310
  H       -0.2921570     0.9237120     1.6255030
  H       -1.2491170    -1.9758090    -0.4428220
units angstrom
no_reorient  #important for SAPT in psi4, default
symmetry c1  #important for SAPT in psi4, default
}

set PROPERTIES_ORIGIN ["COM"]
properties('MP2/aug-cc-pvtz', properties = ['dipole'])
--------------------------------------------------------------------------

    Molecular point group: c1
  Charge       = 0
  Multiplicity = 1
  Basis Set: AUG-CC-PVTZ
    Blend: AUG-CC-PVTZ
  Basis Set: (AUG-CC-PVTZ AUX)
    Blend: AUG-CC-PVTZ-JKFIT

    Orbital Energies [Eh]
    ---------------------

    Doubly Occupied:

       1A    -20.509558     2A    -15.580893     3A    -11.343074
       4A    -11.278504     5A    -11.235531     6A    -11.234667
       7A    -11.233836     8A    -11.232743     9A     -1.363045
      10A     -1.230597    11A     -1.093565    12A     -1.041703
      13A     -0.945217    14A     -0.888567    15A     -0.795365
      16A     -0.764439    17A     -0.688383    18A     -0.676853
      19A     -0.626473    20A     -0.611921    21A     -0.601605
      22A     -0.591900    23A     -0.569443    24A     -0.545460
      25A     -0.519162    26A     -0.515850    27A     -0.481014
      28A     -0.469925    29A     -0.469003    30A     -0.409444
      31A     -0.384554

  @DF-RHF Final Energy:  -363.07515381641838

   => Energetics <=

    Nuclear Repulsion Energy =            394.0856304378426671
    One-Electron Energy =               -1274.4569856911725765
    Two-Electron Energy =                 517.2962014369115877
    Total Energy =                       -363.0751538164183785
  Basis Set: (AUG-CC-PVTZ AUX)
    Blend: AUG-CC-PVTZ-RI
    Molecular point group: c1

    Geometry (in Angstrom), charge = 0, multiplicity = 1:

       Center              X                  Y                   Z               Mass
    ------------   -----------------  -----------------  -----------------  -----------------
         O           -2.464921746828     0.111217985648    -0.373808201170    15.994914619570
         N           -0.635864246828    -1.220529814352    -0.017345201170    14.003074004430
         C            1.914438753172     0.735104185648    -0.026703201170    12.000000000000
         C            1.795113753172    -0.748435814352    -0.372980201170    12.000000000000
         C            0.651359753172     1.566929185648    -0.252192201170    12.000000000000
         C            0.723067753172    -1.488859814352     0.426359798830    12.000000000000
         C           -0.549357246828     1.148163185648     0.610111798830    12.000000000000
         C           -1.310432246828    -0.031294814352     0.038383798830    12.000000000000
         H            2.733060753172     1.168872185648    -0.614088201170     1.007825032230
         H            2.210878753172     0.827366185648     1.027590798830     1.007825032230
         H            1.578943753172    -0.874522814352    -1.440750201170     1.007825032230
         H            2.762746753172    -1.230684814352    -0.182229201170     1.007825032230
         H            0.362748753172     1.533742185648    -1.310514201170     1.007825032230
         H            0.887235753172     2.614137185648    -0.029501201170     1.007825032230
         H            0.868766753172    -2.568167814352     0.324099798830     1.007825032230
         H            0.828935753172    -1.260158814352     1.495847798830     1.007825032230
         H           -1.279729246828     1.958360185648     0.668861798830     1.007825032230
         H           -0.215747246828     0.927377185648     1.633133798830     1.007825032230
         H           -1.172707246828    -1.972143814352    -0.435191201170     1.007825032230

  Basis Set: AUG-CC-PVTZ
    Blend: AUG-CC-PVTZ
  Basis Set: (AUG-CC-PVTZ AUX)
    Blend: AUG-CC-PVTZ-JKFIT
	 Reference Energy          =    -363.0751538164183785 [Eh]
	 Singles Energy            =      -0.0000000000000000 [Eh]
	 Same-Spin Energy          =      -0.3777283916898260 [Eh]
	 Opposite-Spin Energy      =      -1.2477107095753630 [Eh]
	 Correlation Energy        =      -1.6254391012651890 [Eh]
	 Total Energy              =    -364.7005929176835934 [Eh]

	 ================> DF-SCS-MP2 Energies <==================
	-----------------------------------------------------------
	 SCS Same-Spin Scale       =       0.3333333333333333 [-]
	 SCS Opposite-Spin Scale   =       1.2000000000000000 [-]
	 SCS Same-Spin Energy      =      -0.1259094638966087 [Eh]
	 SCS Opposite-Spin Energy  =      -1.4972528514904355 [Eh]
	 SCS Correlation Energy    =      -1.6231623153870443 [Eh]
	 SCS Total Energy          =    -364.6983161318054272 [Eh]
	-----------------------------------------------------------

  Dipole Moment: [D]
     X:     4.0651      Y:    -1.1537      Z:     0.8675     Total:     4.3138

*** Psi4 exiting successfully. Buy a developer a beer!
