                               Psi4 1.3.2 release

  ==> Input File <==

--------------------------------------------------------------------------
#psi4
#
memory 32 gb

molecule  {
0 1
  O       -2.5416370     0.0659770    -0.3927070
  N       -0.7122740    -1.2241950    -0.0249760
  C        1.8380290     0.7314390    -0.0343340
  C        1.7187040    -0.7521010    -0.3806110
  C        0.5749500     1.5632640    -0.2598230
  C        0.6466580    -1.4925250     0.4187290
  C       -0.6257670     1.1444980     0.6024810
  C       -1.4370561    -0.1127780    -0.0069684
  H        2.6566510     1.1652070    -0.6217190
  H        2.1344690     0.8237010     1.0199600
  H        1.5025340    -0.8781880    -1.4483810
  H        2.6863370    -1.2343500    -0.1898600
  H        0.2863390     1.5300770    -1.3181450
  H        0.8108260     2.6104720    -0.0371320
  H        0.7923570    -2.5718330     0.3164690
  H        0.7525260    -1.2638240     1.4882170
  H       -1.3561390     1.9546950     0.6612310
  H       -0.2921570     0.9237120     1.6255030
  H       -1.2491170    -1.9758090    -0.4428220
units angstrom
no_reorient  #important for SAPT in psi4, default
symmetry c1  #important for SAPT in psi4, default
}

set PROPERTIES_ORIGIN ["COM"]
properties('MP2/aug-cc-pvtz', properties = ['dipole'])
--------------------------------------------------------------------------

    Molecular point group: c1
  Charge       = 0
  Multiplicity = 1
  Basis Set: AUG-CC-PVTZ
    Blend: AUG-CC-PVTZ
  Basis Set: (AUG-CC-PVTZ AUX)
    Blend: AUG-CC-PVTZ-JKFIT

    Orbital Energies [Eh]
    ---------------------

    Doubly Occupied:

       1A    -20.512157     2A    -15.581565     3A    -11.337136
       4A    -11.282170     5A    -11.234915     6A    -11.230436
       7A    -11.229658     8A    -11.228549     9A     -1.394920
      10A     -1.245930    11A     -1.090645    12A     -1.033982
      13A     -0.940676    14A     -0.883376    15A     -0.792562
      16A     -0.762418    17A     -0.695770    18A     -0.672549
      19A     -0.630006    20A     -0.609933    21A     -0.602599
      22A     -0.596907    23A     -0.569542    24A     -0.547727
      25A     -0.527014    26A     -0.514851    27A     -0.479059
      28A     -0.471345    29A     -0.465041    30A     -0.396496
      31A     -0.391763

  @DF-RHF Final Energy:  -363.06873059806333

   => Energetics <=

    Nuclear Repulsion Energy =            394.1414517673981663
    One-Electron Energy =               -1274.5169664460349850
    Two-Electron Energy =                 517.3067840805734932
    Total Energy =                       -363.0687305980633255
  Basis Set: (AUG-CC-PVTZ AUX)
    Blend: AUG-CC-PVTZ-RI
    Molecular point group: c1

    Geometry (in Angstrom), charge = 0, multiplicity = 1:

       Center              X                  Y                   Z               Mass
    ------------   -----------------  -----------------  -----------------  -----------------
         O           -2.459855529319     0.083780494044    -0.379479590333    15.994914619570
         N           -0.630492529319    -1.206391505956    -0.011748590333    14.003074004430
         C            1.919810470681     0.749242494044    -0.021106590333    12.000000000000
         C            1.800485470681    -0.734297505956    -0.367383590333    12.000000000000
         C            0.656731470681     1.581067494044    -0.246595590333    12.000000000000
         C            0.728439470681    -1.474721505956     0.431956409667    12.000000000000
         C           -0.543985529319     1.162301494044     0.615708409667    12.000000000000
         C           -1.355274629319    -0.094974505956     0.006259009667    12.000000000000
         H            2.738432470681     1.183010494044    -0.608491590333     1.007825032230
         H            2.216250470681     0.841504494044     1.033187409667     1.007825032230
         H            1.584315470681    -0.860384505956    -1.435153590333     1.007825032230
         H            2.768118470681    -1.216546505956    -0.176632590333     1.007825032230
         H            0.368120470681     1.547880494044    -1.304917590333     1.007825032230
         H            0.892607470681     2.628275494044    -0.023904590333     1.007825032230
         H            0.874138470681    -2.554029505956     0.329696409667     1.007825032230
         H            0.834307470681    -1.246020505956     1.501444409667     1.007825032230
         H           -1.274357529319     1.972498494044     0.674458409667     1.007825032230
         H           -0.210375529319     0.941515494044     1.638730409667     1.007825032230
         H           -1.167335529319    -1.958005505956    -0.429594590333     1.007825032230

  Basis Set: AUG-CC-PVTZ
    Blend: AUG-CC-PVTZ
  Basis Set: (AUG-CC-PVTZ AUX)
    Blend: AUG-CC-PVTZ-JKFIT
	 Reference Energy          =    -363.0687305980633255 [Eh]
	 Singles Energy            =      -0.0000000000000000 [Eh]
	 Same-Spin Energy          =      -0.3764957887424613 [Eh]
	 Opposite-Spin Energy      =      -1.2453639223044379 [Eh]
	 Correlation Energy        =      -1.6218597110468993 [Eh]
	 Total Energy              =    -364.6905903091102346 [Eh]

	 ================> DF-SCS-MP2 Energies <==================
	-----------------------------------------------------------
	 SCS Same-Spin Scale       =       0.3333333333333333 [-]
	 SCS Opposite-Spin Scale   =       1.2000000000000000 [-]
	 SCS Same-Spin Energy      =      -0.1254985962474871 [Eh]
	 SCS Opposite-Spin Energy  =      -1.4944367067653255 [Eh]
	 SCS Correlation Energy    =      -1.6199353030128125 [Eh]
	 SCS Total Energy          =    -364.6886659010761491 [Eh]
	-----------------------------------------------------------

  Dipole Moment: [D]
     X:     3.8457      Y:    -1.4358      Z:     0.7507     Total:     4.1731

*** Psi4 exiting successfully. Buy a developer a beer!
