                               Psi4 1.3.2 release

  ==> Input File <==

--------------------------------------------------------------------------
#psi4
#
memory 32 gb

molecule  {
0 1
  O       -2.5416370     0.0659770    -0.3927070
  N       -0.7122740    -1.2241950    -0.0249760
  C        1.8380290     0.7314390    -0.0343340
  C        1.7187040    -0.7521010    -0.3806110
  C        0.5749500     1.5632640    -0.2598230
  C        0.6466580    -1.4925250     0.4187290
  C       -0.6257670     1.1444980     0.6024810
  C       -1.3868420    -0.0349600     0.0307530
  H        2.6566510     1.1652070    -0.6217190
  H        2.1344690     0.8237010     1.0199600
  H        1.5025340    -0.8781880    -1.4483810
  H        2.6863370    -1.2343500    -0.1898600
  H        0.2863390     1.5300770    -1.3181450
  H        0.8108260     2.6104720    -0.0371320
  H        0.7923570    -2.5718330     0.3164690
  H        0.7525260    -1.2638240     1.4882170
  H       -1.3624940     1.9508811     0.5853444
  H       -0.2921570     0.9237120     1.6255030
  H       -1.2491170    -1.9758090    -0.4428220
units angstrom
no_reorient  #important for SAPT in psi4, default
symmetry c1  #important for SAPT in psi4, default
}

set PROPERTIES_ORIGIN ["COM"]
properties('MP2/aug-cc-pvtz', properties = ['dipole'])
--------------------------------------------------------------------------

    Molecular point group: c1
  Charge       = 0
  Multiplicity = 1
  Basis Set: AUG-CC-PVTZ
    Blend: AUG-CC-PVTZ
  Basis Set: (AUG-CC-PVTZ AUX)
    Blend: AUG-CC-PVTZ-JKFIT

    Orbital Energies [Eh]
    ---------------------

    Doubly Occupied:

       1A    -20.509251     2A    -15.578483     3A    -11.342739
       4A    -11.277432     5A    -11.236445     6A    -11.235856
       7A    -11.234325     8A    -11.232800     9A     -1.363675
      10A     -1.228225    11A     -1.094077    12A     -1.042452
      13A     -0.945444    14A     -0.888475    15A     -0.795437
      16A     -0.762726    17A     -0.687802    18A     -0.677748
      19A     -0.625598    20A     -0.612728    21A     -0.603429
      22A     -0.591280    23A     -0.569254    24A     -0.544906
      25A     -0.521038    26A     -0.515798    27A     -0.481361
      28A     -0.470091    29A     -0.468288    30A     -0.410833
      31A     -0.382772

  @DF-RHF Final Energy:  -363.07486610938116

   => Energetics <=

    Nuclear Repulsion Energy =            394.1614952533897736
    One-Electron Energy =               -1274.6111811668361042
    Two-Electron Energy =                 517.3748198040650550
    Total Energy =                       -363.0748661093812188
  Basis Set: (AUG-CC-PVTZ AUX)
    Blend: AUG-CC-PVTZ-RI
    Molecular point group: c1

    Geometry (in Angstrom), charge = 0, multiplicity = 1:

       Center              X                  Y                   Z               Mass
    ------------   -----------------  -----------------  -----------------  -----------------
         O           -2.465127399209     0.075556768938    -0.382806110195    15.994914619570
         N           -0.635764399209    -1.214615231062    -0.015075110195    14.003074004430
         C            1.914538600791     0.741018768938    -0.024433110195    12.000000000000
         C            1.795213600791    -0.742521231062    -0.370710110195    12.000000000000
         C            0.651459600791     1.572843768938    -0.249922110195    12.000000000000
         C            0.723167600791    -1.482945231062     0.428629889805    12.000000000000
         C           -0.549257399209     1.154077768938     0.612381889805    12.000000000000
         C           -1.310332399209    -0.025380231062     0.040653889805    12.000000000000
         H            2.733160600791     1.174786768938    -0.611818110195     1.007825032230
         H            2.210978600791     0.833280768938     1.029860889805     1.007825032230
         H            1.579043600791    -0.868608231062    -1.438480110195     1.007825032230
         H            2.762846600791    -1.224770231062    -0.179959110195     1.007825032230
         H            0.362848600791     1.539656768938    -1.308244110195     1.007825032230
         H            0.887335600791     2.620051768938    -0.027231110195     1.007825032230
         H            0.868866600791    -2.562253231062     0.326369889805     1.007825032230
         H            0.829035600791    -1.254244231062     1.498117889805     1.007825032230
         H           -1.285984399209     1.960460868938     0.595245289805     1.007825032230
         H           -0.215647399209     0.933291768938     1.635403889805     1.007825032230
         H           -1.172607399209    -1.966229231062    -0.432921110195     1.007825032230

  Basis Set: AUG-CC-PVTZ
    Blend: AUG-CC-PVTZ
  Basis Set: (AUG-CC-PVTZ AUX)
    Blend: AUG-CC-PVTZ-JKFIT
	 Reference Energy          =    -363.0748661093811620 [Eh]
	 Singles Energy            =      -0.0000000000000000 [Eh]
	 Same-Spin Energy          =      -0.3777891339714142 [Eh]
	 Opposite-Spin Energy      =      -1.2477513573425398 [Eh]
	 Correlation Energy        =      -1.6255404913139540 [Eh]
	 Total Energy              =    -364.7004066006950893 [Eh]

	 ================> DF-SCS-MP2 Energies <==================
	-----------------------------------------------------------
	 SCS Same-Spin Scale       =       0.3333333333333333 [-]
	 SCS Opposite-Spin Scale   =       1.2000000000000000 [-]
	 SCS Same-Spin Energy      =      -0.1259297113238047 [Eh]
	 SCS Opposite-Spin Energy  =      -1.4973016288110477 [Eh]
	 SCS Correlation Energy    =      -1.6232313401348524 [Eh]
	 SCS Total Energy          =    -364.6980974495160126 [Eh]
	-----------------------------------------------------------

  Dipole Moment: [D]
     X:     4.0705      Y:    -1.0443      Z:     0.8697     Total:     4.2913

*** Psi4 exiting successfully. Buy a developer a beer!
