                               Psi4 1.3.2 release

  ==> Input File <==

--------------------------------------------------------------------------
#psi4
#
memory 32 gb

molecule  {
0 1
  O       -2.5416370     0.0659770    -0.3927070
  N       -0.7122740    -1.2241950    -0.0249760
  C        1.8380290     0.7314390    -0.0343340
  C        1.7187040    -0.7521010    -0.3806110
  C        0.5749500     1.5632640    -0.2598230
  C        0.6466580    -1.4925250     0.4187290
  C       -0.6257670     1.1444980     0.6024810
  C       -1.4361393     0.0519491     0.0348257
  H        2.6566510     1.1652070    -0.6217190
  H        2.1344690     0.8237010     1.0199600
  H        1.5025340    -0.8781880    -1.4483810
  H        2.6863370    -1.2343500    -0.1898600
  H        0.2863390     1.5300770    -1.3181450
  H        0.8108260     2.6104720    -0.0371320
  H        0.7923570    -2.5718330     0.3164690
  H        0.7525260    -1.2638240     1.4882170
  H       -1.3561390     1.9546950     0.6612310
  H       -0.2921570     0.9237120     1.6255030
  H       -1.2491170    -1.9758090    -0.4428220
units angstrom
no_reorient  #important for SAPT in psi4, default
symmetry c1  #important for SAPT in psi4, default
}

set PROPERTIES_ORIGIN ["COM"]
properties('MP2/aug-cc-pvtz', properties = ['dipole'])
--------------------------------------------------------------------------

    Molecular point group: c1
  Charge       = 0
  Multiplicity = 1
  Basis Set: AUG-CC-PVTZ
    Blend: AUG-CC-PVTZ
  Basis Set: (AUG-CC-PVTZ AUX)
    Blend: AUG-CC-PVTZ-JKFIT

    Orbital Energies [Eh]
    ---------------------

    Doubly Occupied:

       1A    -20.527927     2A    -15.559260     3A    -11.348434
       4A    -11.266328     5A    -11.239672     6A    -11.238590
       7A    -11.231596     8A    -11.227706     9A     -1.400892
      10A     -1.200999    11A     -1.091976    12A     -1.042416
      13A     -0.941591    14A     -0.880954    15A     -0.791243
      16A     -0.749121    17A     -0.687134    18A     -0.678262
      19A     -0.622716    20A     -0.616932    21A     -0.600831
      22A     -0.595652    23A     -0.571338    24A     -0.551184
      25A     -0.523125    26A     -0.515063    27A     -0.478770
      28A     -0.472547    29A     -0.468035    30A     -0.419415
      31A     -0.372475

  @DF-RHF Final Energy:  -363.06526120331381

   => Energetics <=

    Nuclear Repulsion Energy =            393.7202735717964970
    One-Electron Energy =               -1273.7467010034283703
    Two-Electron Energy =                 516.9611662283180067
    Total Energy =                       -363.0652612033138666
  Basis Set: (AUG-CC-PVTZ AUX)
    Blend: AUG-CC-PVTZ-RI
    Molecular point group: c1

    Geometry (in Angstrom), charge = 0, multiplicity = 1:

       Center              X                  Y                   Z               Mass
    ------------   -----------------  -----------------  -----------------  -----------------
         O           -2.459952816237     0.066300354664    -0.383914602503    15.994914619570
         N           -0.630589816237    -1.223871645336    -0.016183602503    14.003074004430
         C            1.919713183763     0.731762354664    -0.025541602503    12.000000000000
         C            1.800388183763    -0.751777645336    -0.371818602503    12.000000000000
         C            0.656634183763     1.563587354664    -0.251030602503    12.000000000000
         C            0.728342183763    -1.492201645336     0.427521397497    12.000000000000
         C           -0.544082816237     1.144821354664     0.611273397497    12.000000000000
         C           -1.354455116237     0.052272454664     0.043618097497    12.000000000000
         H            2.738335183763     1.165530354664    -0.612926602503     1.007825032230
         H            2.216153183763     0.824024354664     1.028752397497     1.007825032230
         H            1.584218183763    -0.877864645336    -1.439588602503     1.007825032230
         H            2.768021183763    -1.234026645336    -0.181067602503     1.007825032230
         H            0.368023183763     1.530400354664    -1.309352602503     1.007825032230
         H            0.892510183763     2.610795354664    -0.028339602503     1.007825032230
         H            0.874041183763    -2.571509645336     0.325261397497     1.007825032230
         H            0.834210183763    -1.263500645336     1.497009397497     1.007825032230
         H           -1.274454816237     1.955018354664     0.670023397497     1.007825032230
         H           -0.210472816237     0.924035354664     1.634295397497     1.007825032230
         H           -1.167432816237    -1.975485645336    -0.434029602503     1.007825032230

  Basis Set: AUG-CC-PVTZ
    Blend: AUG-CC-PVTZ
  Basis Set: (AUG-CC-PVTZ AUX)
    Blend: AUG-CC-PVTZ-JKFIT
	 Reference Energy          =    -363.0652612033138098 [Eh]
	 Singles Energy            =      -0.0000000000000000 [Eh]
	 Same-Spin Energy          =      -0.3775105755402718 [Eh]
	 Opposite-Spin Energy      =      -1.2472587251470946 [Eh]
	 Correlation Energy        =      -1.6247693006873662 [Eh]
	 Total Energy              =    -364.6900305040011858 [Eh]

	 ================> DF-SCS-MP2 Energies <==================
	-----------------------------------------------------------
	 SCS Same-Spin Scale       =       0.3333333333333333 [-]
	 SCS Opposite-Spin Scale   =       1.2000000000000000 [-]
	 SCS Same-Spin Energy      =      -0.1258368585134239 [Eh]
	 SCS Opposite-Spin Energy  =      -1.4967104701765135 [Eh]
	 SCS Correlation Energy    =      -1.6225473286899375 [Eh]
	 SCS Total Energy          =    -364.6878085320037712 [Eh]
	-----------------------------------------------------------

  Dipole Moment: [D]
     X:     3.4566      Y:    -0.3795      Z:     0.8403     Total:     3.5775

*** Psi4 exiting successfully. Buy a developer a beer!
