                               Psi4 1.3.2 release

  ==> Input File <==

--------------------------------------------------------------------------
#psi4
#
memory 32 gb

molecule  {
0 1
  O       -2.5416370     0.0659770    -0.3927070
  N       -0.7122740    -1.2241950    -0.0249760
  C        1.8380290     0.7314390    -0.0343340
  C        1.7187040    -0.7521010    -0.3806110
  C        0.5634676     1.5871709    -0.2637847
  C        0.6466580    -1.4925250     0.4187290
  C       -0.6257670     1.1444980     0.6024810
  C       -1.3868420    -0.0349600     0.0307530
  H        2.6566510     1.1652070    -0.6217190
  H        2.1344690     0.8237010     1.0199600
  H        1.5025340    -0.8781880    -1.4483810
  H        2.6863370    -1.2343500    -0.1898600
  H        0.2863390     1.5300770    -1.3181450
  H        0.8108260     2.6104720    -0.0371320
  H        0.7923570    -2.5718330     0.3164690
  H        0.7525260    -1.2638240     1.4882170
  H       -1.3561390     1.9546950     0.6612310
  H       -0.2921570     0.9237120     1.6255030
  H       -1.2491170    -1.9758090    -0.4428220
units angstrom
no_reorient  #important for SAPT in psi4, default
symmetry c1  #important for SAPT in psi4, default
}

set PROPERTIES_ORIGIN ["COM"]
properties('MP2/aug-cc-pvtz', properties = ['dipole'])
--------------------------------------------------------------------------

    Molecular point group: c1
  Charge       = 0
  Multiplicity = 1
  Basis Set: AUG-CC-PVTZ
    Blend: AUG-CC-PVTZ
  Basis Set: (AUG-CC-PVTZ AUX)
    Blend: AUG-CC-PVTZ-JKFIT

    Orbital Energies [Eh]
    ---------------------

    Doubly Occupied:

       1A    -20.509162     2A    -15.578765     3A    -11.343311
       4A    -11.277233     5A    -11.236011     6A    -11.235344
       7A    -11.234512     8A    -11.233549     9A     -1.363528
      10A     -1.228197    11A     -1.091402    12A     -1.042330
      13A     -0.943684    14A     -0.889591    15A     -0.796019
      16A     -0.764129    17A     -0.687938    18A     -0.676316
      19A     -0.625901    20A     -0.612080    21A     -0.601492
      22A     -0.592217    23A     -0.569743    24A     -0.545062
      25A     -0.519632    26A     -0.516920    27A     -0.481630
      28A     -0.471569    29A     -0.466305    30A     -0.410927
      31A     -0.382740

  @DF-RHF Final Energy:  -363.07505925292526

   => Energetics <=

    Nuclear Repulsion Energy =            393.7394460468562443
    One-Electron Energy =               -1273.7745320640672162
    Two-Electron Energy =                 516.9600267642856579
    Total Energy =                       -363.0750592529252572
  Basis Set: (AUG-CC-PVTZ AUX)
    Blend: AUG-CC-PVTZ-RI
    Molecular point group: c1

    Geometry (in Angstrom), charge = 0, multiplicity = 1:

       Center              X                  Y                   Z               Mass
    ------------   -----------------  -----------------  -----------------  -----------------
         O           -2.463965572624     0.072985880223    -0.383062026140    15.994914619570
         N           -0.634602572624    -1.217186119777    -0.015331026140    14.003074004430
         C            1.915700427376     0.738447880223    -0.024689026140    12.000000000000
         C            1.796375427376    -0.745092119777    -0.370966026140    12.000000000000
         C            0.641139027376     1.594179780223    -0.254139726140    12.000000000000
         C            0.724329427376    -1.485516119777     0.428373973860    12.000000000000
         C           -0.548095572624     1.151506880223     0.612125973860    12.000000000000
         C           -1.309170572624    -0.027951119777     0.040397973860    12.000000000000
         H            2.734322427376     1.172215880223    -0.612074026140     1.007825032230
         H            2.212140427376     0.830709880223     1.029604973860     1.007825032230
         H            1.580205427376    -0.871179119777    -1.438736026140     1.007825032230
         H            2.764008427376    -1.227341119777    -0.180215026140     1.007825032230
         H            0.364010427376     1.537085880223    -1.308500026140     1.007825032230
         H            0.888497427376     2.617480880223    -0.027487026140     1.007825032230
         H            0.870028427376    -2.564824119777     0.326113973860     1.007825032230
         H            0.830197427376    -1.256815119777     1.497861973860     1.007825032230
         H           -1.278467572624     1.961703880223     0.670875973860     1.007825032230
         H           -0.214485572624     0.930720880223     1.635147973860     1.007825032230
         H           -1.171445572624    -1.968800119777    -0.433177026140     1.007825032230

  Basis Set: AUG-CC-PVTZ
    Blend: AUG-CC-PVTZ
  Basis Set: (AUG-CC-PVTZ AUX)
    Blend: AUG-CC-PVTZ-JKFIT
	 Reference Energy          =    -363.0750592529252572 [Eh]
	 Singles Energy            =      -0.0000000000000000 [Eh]
	 Same-Spin Energy          =      -0.3775772292670341 [Eh]
	 Opposite-Spin Energy      =      -1.2475560852173730 [Eh]
	 Correlation Energy        =      -1.6251333144844071 [Eh]
	 Total Energy              =    -364.7001925674096583 [Eh]

	 ================> DF-SCS-MP2 Energies <==================
	-----------------------------------------------------------
	 SCS Same-Spin Scale       =       0.3333333333333333 [-]
	 SCS Opposite-Spin Scale   =       1.2000000000000000 [-]
	 SCS Same-Spin Energy      =      -0.1258590764223447 [Eh]
	 SCS Opposite-Spin Energy  =      -1.4970673022608476 [Eh]
	 SCS Correlation Energy    =      -1.6229263786831922 [Eh]
	 SCS Total Energy          =    -364.6979856316084465 [Eh]
	-----------------------------------------------------------

  Dipole Moment: [D]
     X:     4.0655      Y:    -1.0319      Z:     0.8913     Total:     4.2881

*** Psi4 exiting successfully. Buy a developer a beer!
