                               Psi4 1.3.2 release

  ==> Input File <==

--------------------------------------------------------------------------
#psi4
#
memory 32 gb

molecule  {
0 1
  O       -2.5416370     0.0659770    -0.3927070
  N       -0.7122740    -1.2241950    -0.0249760
  C        1.8380290     0.7314390    -0.0343340
  C        1.7187040    -0.7521010    -0.3806110
  C        0.5749500     1.5632640    -0.2598230
  C        0.8335169    -1.5294215     0.4797403
  C       -0.6257670     1.1444980     0.6024810
  C       -1.3868420    -0.0349600     0.0307530
  H        2.6566510     1.1652070    -0.6217190
  H        2.1344690     0.8237010     1.0199600
  H        1.5025340    -0.8781880    -1.4483810
  H        2.6863370    -1.2343500    -0.1898600
  H        0.2863390     1.5300770    -1.3181450
  H        0.8108260     2.6104720    -0.0371320
  H        0.7923570    -2.5718330     0.3164690
  H        0.7525260    -1.2638240     1.4882170
  H       -1.3561390     1.9546950     0.6612310
  H       -0.2921570     0.9237120     1.6255030
  H       -1.2491170    -1.9758090    -0.4428220
units angstrom
no_reorient  #important for SAPT in psi4, default
symmetry c1  #important for SAPT in psi4, default
}

set PROPERTIES_ORIGIN ["COM"]
properties('MP2/aug-cc-pvtz', properties = ['dipole'])
--------------------------------------------------------------------------

    Molecular point group: c1
  Charge       = 0
  Multiplicity = 1
  Basis Set: AUG-CC-PVTZ
    Blend: AUG-CC-PVTZ
  Basis Set: (AUG-CC-PVTZ AUX)
    Blend: AUG-CC-PVTZ-JKFIT

    Orbital Energies [Eh]
    ---------------------

    Doubly Occupied:

       1A    -20.498803     2A    -15.565208     3A    -11.332855
       4A    -11.288053     5A    -11.239235     6A    -11.237679
       7A    -11.236035     8A    -11.232296     9A     -1.351828
      10A     -1.191288    11A     -1.097501    12A     -1.052640
      13A     -0.952587    14A     -0.882556    15A     -0.801167
      16A     -0.751236    17A     -0.679187    18A     -0.665519
      19A     -0.630305    20A     -0.622503    21A     -0.597343
      22A     -0.590291    23A     -0.563193    24A     -0.547022
      25A     -0.523790    26A     -0.506037    27A     -0.485642
      28A     -0.475898    29A     -0.464969    30A     -0.399050
      31A     -0.377490

  @DF-RHF Final Energy:  -363.04610140081314

   => Energetics <=

    Nuclear Repulsion Energy =            391.9404585794094942
    One-Electron Energy =               -1270.2947076935779478
    Two-Electron Energy =                 515.3081477133551971
    Total Energy =                       -363.0461014008131997
  Basis Set: (AUG-CC-PVTZ AUX)
    Blend: AUG-CC-PVTZ-RI
    Molecular point group: c1

    Geometry (in Angstrom), charge = 0, multiplicity = 1:

       Center              X                  Y                   Z               Mass
    ------------   -----------------  -----------------  -----------------  -----------------
         O           -2.485012707969     0.079438078476    -0.389956684614    15.994914619570
         N           -0.655649707969    -1.210733921524    -0.022225684614    14.003074004430
         C            1.894653292031     0.744900078476    -0.031583684614    12.000000000000
         C            1.775328292031    -0.738639921524    -0.377860684614    12.000000000000
         C            0.631574292031     1.576725078476    -0.257072684614    12.000000000000
         C            0.890141192031    -1.515960421524     0.482490615386    12.000000000000
         C           -0.569142707969     1.157959078476     0.605231315386    12.000000000000
         C           -1.330217707969    -0.021498921524     0.033503315386    12.000000000000
         H            2.713275292031     1.178668078476    -0.618968684614     1.007825032230
         H            2.191093292031     0.837162078476     1.022710315386     1.007825032230
         H            1.559158292031    -0.864726921524    -1.445630684614     1.007825032230
         H            2.742961292031    -1.220888921524    -0.187109684614     1.007825032230
         H            0.342963292031     1.543538078476    -1.315394684614     1.007825032230
         H            0.867450292031     2.623933078476    -0.034381684614     1.007825032230
         H            0.848981292031    -2.558371921524     0.319219315386     1.007825032230
         H            0.809150292031    -1.250362921524     1.490967315386     1.007825032230
         H           -1.299514707969     1.968156078476     0.663981315386     1.007825032230
         H           -0.235532707969     0.937173078476     1.628253315386     1.007825032230
         H           -1.192492707969    -1.962347921524    -0.440071684614     1.007825032230

  Basis Set: AUG-CC-PVTZ
    Blend: AUG-CC-PVTZ
  Basis Set: (AUG-CC-PVTZ AUX)
    Blend: AUG-CC-PVTZ-JKFIT
	 Reference Energy          =    -363.0461014008131428 [Eh]
	 Singles Energy            =      -0.0000000000000000 [Eh]
	 Same-Spin Energy          =      -0.3782716872380326 [Eh]
	 Opposite-Spin Energy      =      -1.2498818215012628 [Eh]
	 Correlation Energy        =      -1.6281535087392953 [Eh]
	 Total Energy              =    -364.6742549095524168 [Eh]

	 ================> DF-SCS-MP2 Energies <==================
	-----------------------------------------------------------
	 SCS Same-Spin Scale       =       0.3333333333333333 [-]
	 SCS Opposite-Spin Scale   =       1.2000000000000000 [-]
	 SCS Same-Spin Energy      =      -0.1260905624126775 [Eh]
	 SCS Opposite-Spin Energy  =      -1.4998581858015154 [Eh]
	 SCS Correlation Energy    =      -1.6259487482141930 [Eh]
	 SCS Total Energy          =    -364.6720501490273136 [Eh]
	-----------------------------------------------------------

  Dipole Moment: [D]
     X:     4.6719      Y:    -1.1432      Z:     1.0025     Total:     4.9131

*** Psi4 exiting successfully. Buy a developer a beer!
