                               Psi4 1.3.2 release

  ==> Input File <==

--------------------------------------------------------------------------
#psi4
#
memory 32 gb

molecule  {
0 1
  O       -2.5416370     0.0659770    -0.3927070
  N       -0.7122740    -1.2241950    -0.0249760
  C        1.8380290     0.7314390    -0.0343340
  C        1.7187040    -0.7521010    -0.3806110
  C        0.5749500     1.5632640    -0.2598230
  C        0.6247418    -1.6360554     0.3729323
  C       -0.6257670     1.1444980     0.6024810
  C       -1.3868420    -0.0349600     0.0307530
  H        2.6566510     1.1652070    -0.6217190
  H        2.1344690     0.8237010     1.0199600
  H        1.5025340    -0.8781880    -1.4483810
  H        2.6863370    -1.2343500    -0.1898600
  H        0.2863390     1.5300770    -1.3181450
  H        0.8108260     2.6104720    -0.0371320
  H        0.7923570    -2.5718330     0.3164690
  H        0.7525260    -1.2638240     1.4882170
  H       -1.3561390     1.9546950     0.6612310
  H       -0.2921570     0.9237120     1.6255030
  H       -1.2491170    -1.9758090    -0.4428220
units angstrom
no_reorient  #important for SAPT in psi4, default
symmetry c1  #important for SAPT in psi4, default
}

set PROPERTIES_ORIGIN ["COM"]
properties('MP2/aug-cc-pvtz', properties = ['dipole'])
--------------------------------------------------------------------------

    Molecular point group: c1
  Charge       = 0
  Multiplicity = 1
  Basis Set: AUG-CC-PVTZ
    Blend: AUG-CC-PVTZ
  Basis Set: (AUG-CC-PVTZ AUX)
    Blend: AUG-CC-PVTZ-JKFIT

    Orbital Energies [Eh]
    ---------------------

    Doubly Occupied:

       1A    -20.510450     2A    -15.579648     3A    -11.347160
       4A    -11.278463     5A    -11.237356     6A    -11.236660
       7A    -11.236038     8A    -11.235336     9A     -1.364550
      10A     -1.227752    11A     -1.091543    12A     -1.039321
      13A     -0.948733    14A     -0.896108    15A     -0.792470
      16A     -0.761717    17A     -0.703135    18A     -0.678928
      19A     -0.622045    20A     -0.618811    21A     -0.602402
      22A     -0.594836    23A     -0.568771    24A     -0.536696
      25A     -0.524792    26A     -0.505000    27A     -0.483489
      28A     -0.474693    29A     -0.465199    30A     -0.413068
      31A     -0.373728

  @DF-RHF Final Energy:  -363.04513143368558

   => Energetics <=

    Nuclear Repulsion Energy =            392.4961157502800120
    One-Electron Energy =               -1271.1846940091900251
    Two-Electron Energy =                 515.6434468252243732
    Total Energy =                       -363.0451314336855830
  Basis Set: (AUG-CC-PVTZ AUX)
    Blend: AUG-CC-PVTZ-RI
    Molecular point group: c1

    Geometry (in Angstrom), charge = 0, multiplicity = 1:

       Center              X                  Y                   Z               Mass
    ------------   -----------------  -----------------  -----------------  -----------------
         O           -2.462858382136     0.090753614502    -0.378622673836    15.994914619570
         N           -0.633495382136    -1.199418385498    -0.010891673836    14.003074004430
         C            1.916807617864     0.756215614502    -0.020249673836    12.000000000000
         C            1.797482617864    -0.727324385498    -0.366526673836    12.000000000000
         C            0.653728617864     1.588040614502    -0.245738673836    12.000000000000
         C            0.703520417864    -1.611278785498     0.387016626164    12.000000000000
         C           -0.546988382136     1.169274614502     0.616565326164    12.000000000000
         C           -1.308063382136    -0.010183385498     0.044837326164    12.000000000000
         H            2.735429617864     1.189983614502    -0.607634673836     1.007825032230
         H            2.213247617864     0.848477614502     1.034044326164     1.007825032230
         H            1.581312617864    -0.853411385498    -1.434296673836     1.007825032230
         H            2.765115617864    -1.209573385498    -0.175775673836     1.007825032230
         H            0.365117617864     1.554853614502    -1.304060673836     1.007825032230
         H            0.889604617864     2.635248614502    -0.023047673836     1.007825032230
         H            0.871135617864    -2.547056385498     0.330553326164     1.007825032230
         H            0.831304617864    -1.239047385498     1.502301326164     1.007825032230
         H           -1.277360382136     1.979471614502     0.675315326164     1.007825032230
         H           -0.213378382136     0.948488614502     1.639587326164     1.007825032230
         H           -1.170338382136    -1.951032385498    -0.428737673836     1.007825032230

  Basis Set: AUG-CC-PVTZ
    Blend: AUG-CC-PVTZ
  Basis Set: (AUG-CC-PVTZ AUX)
    Blend: AUG-CC-PVTZ-JKFIT
	 Reference Energy          =    -363.0451314336855830 [Eh]
	 Singles Energy            =      -0.0000000000000000 [Eh]
	 Same-Spin Energy          =      -0.3777939210872441 [Eh]
	 Opposite-Spin Energy      =      -1.2487262720024050 [Eh]
	 Correlation Energy        =      -1.6265201930896491 [Eh]
	 Total Energy              =    -364.6716516267752581 [Eh]

	 ================> DF-SCS-MP2 Energies <==================
	-----------------------------------------------------------
	 SCS Same-Spin Scale       =       0.3333333333333333 [-]
	 SCS Opposite-Spin Scale   =       1.2000000000000000 [-]
	 SCS Same-Spin Energy      =      -0.1259313070290813 [Eh]
	 SCS Opposite-Spin Energy  =      -1.4984715264028861 [Eh]
	 SCS Correlation Energy    =      -1.6244028334319673 [Eh]
	 SCS Total Energy          =    -364.6695342671175695 [Eh]
	-----------------------------------------------------------

  Dipole Moment: [D]
     X:     4.0172      Y:    -1.0899      Z:     0.8329     Total:     4.2449

*** Psi4 exiting successfully. Buy a developer a beer!
