                               Psi4 1.3.2 release

  ==> Input File <==

--------------------------------------------------------------------------
#psi4
#
memory 32 gb

molecule  {
0 1
  O       -2.5416370     0.0659770    -0.3927070
  N       -0.7122740    -1.2241950    -0.0249760
  C        1.8380290     0.7314390    -0.0343340
  C        1.7187040    -0.7521010    -0.3806110
  C        0.5749500     1.5632640    -0.2598230
  C        0.6466580    -1.4925250     0.4187290
  C       -0.6257670     1.1444980     0.6024810
  C       -1.3868420    -0.0349600     0.0307530
  H        2.6566510     1.1652070    -0.6217190
  H        2.1344690     0.8237010     1.0199600
  H        1.5025340    -0.8781880    -1.4483810
  H        2.6863370    -1.2343500    -0.1898600
  H        0.2863390     1.5300770    -1.3181450
  H        0.8323416     2.7059940    -0.0168190
  H        0.7923570    -2.5718330     0.3164690
  H        0.7525260    -1.2638240     1.4882170
  H       -1.3561390     1.9546950     0.6612310
  H       -0.2921570     0.9237120     1.6255030
  H       -1.2491170    -1.9758090    -0.4428220
units angstrom
no_reorient  #important for SAPT in psi4, default
symmetry c1  #important for SAPT in psi4, default
}

set PROPERTIES_ORIGIN ["COM"]
properties('MP2/aug-cc-pvtz', properties = ['dipole'])
--------------------------------------------------------------------------

    Molecular point group: c1
  Charge       = 0
  Multiplicity = 1
  Basis Set: AUG-CC-PVTZ
    Blend: AUG-CC-PVTZ
  Basis Set: (AUG-CC-PVTZ AUX)
    Blend: AUG-CC-PVTZ-JKFIT

    Orbital Energies [Eh]
    ---------------------

    Doubly Occupied:

       1A    -20.509832     2A    -15.579400     3A    -11.343853
       4A    -11.277967     5A    -11.248440     6A    -11.237083
       7A    -11.235242     8A    -11.233996     9A     -1.364186
      10A     -1.228997    11A     -1.092745    12A     -1.042083
      13A     -0.945636    14A     -0.884617    15A     -0.793649
      16A     -0.764255    17A     -0.687296    18A     -0.677602
      19A     -0.624307    20A     -0.611442    21A     -0.599116
      22A     -0.590018    23A     -0.569518    24A     -0.544975
      25A     -0.519625    26A     -0.515318    27A     -0.481878
      28A     -0.471372    29A     -0.463249    30A     -0.410616
      31A     -0.383392

  @DF-RHF Final Energy:  -363.06887343373387

   => Energetics <=

    Nuclear Repulsion Energy =            393.6029683961213550
    One-Electron Energy =               -1273.4802767779174246
    Two-Electron Energy =                 516.8084349480621995
    Total Energy =                       -363.0688734337338701
  Basis Set: (AUG-CC-PVTZ AUX)
    Blend: AUG-CC-PVTZ-RI
    Molecular point group: c1

    Geometry (in Angstrom), charge = 0, multiplicity = 1:

       Center              X                  Y                   Z               Mass
    ------------   -----------------  -----------------  -----------------  -----------------
         O           -2.465375786890     0.074671469957    -0.383663457920    15.994914619570
         N           -0.636012786890    -1.215500530043    -0.015932457920    14.003074004430
         C            1.914290213110     0.740133469957    -0.025290457920    12.000000000000
         C            1.794965213110    -0.743406530043    -0.371567457920    12.000000000000
         C            0.651211213110     1.571958469957    -0.250779457920    12.000000000000
         C            0.722919213110    -1.483830530043     0.427772542080    12.000000000000
         C           -0.549505786890     1.153192469957     0.611524542080    12.000000000000
         C           -1.310580786890    -0.026265530043     0.039796542080    12.000000000000
         H            2.732912213110     1.173901469957    -0.612675457920     1.007825032230
         H            2.210730213110     0.832395469957     1.029003542080     1.007825032230
         H            1.578795213110    -0.869493530043    -1.439337457920     1.007825032230
         H            2.762598213110    -1.225655530043    -0.180816457920     1.007825032230
         H            0.362600213110     1.538771469957    -1.309101457920     1.007825032230
         H            0.908602813110     2.714688469957    -0.007775457920     1.007825032230
         H            0.868618213110    -2.563138530043     0.325512542080     1.007825032230
         H            0.828787213110    -1.255129530043     1.497260542080     1.007825032230
         H           -1.279877786890     1.963389469957     0.670274542080     1.007825032230
         H           -0.215895786890     0.932406469957     1.634546542080     1.007825032230
         H           -1.172855786890    -1.967114530043    -0.433778457920     1.007825032230

  Basis Set: AUG-CC-PVTZ
    Blend: AUG-CC-PVTZ
  Basis Set: (AUG-CC-PVTZ AUX)
    Blend: AUG-CC-PVTZ-JKFIT
	 Reference Energy          =    -363.0688734337338701 [Eh]
	 Singles Energy            =      -0.0000000000000000 [Eh]
	 Same-Spin Energy          =      -0.3777772252947866 [Eh]
	 Opposite-Spin Energy      =      -1.2484876611639719 [Eh]
	 Correlation Energy        =      -1.6262648864587586 [Eh]
	 Total Energy              =    -364.6951383201926546 [Eh]

	 ================> DF-SCS-MP2 Energies <==================
	-----------------------------------------------------------
	 SCS Same-Spin Scale       =       0.3333333333333333 [-]
	 SCS Opposite-Spin Scale   =       1.2000000000000000 [-]
	 SCS Same-Spin Energy      =      -0.1259257417649289 [Eh]
	 SCS Opposite-Spin Energy  =      -1.4981851933967663 [Eh]
	 SCS Correlation Energy    =      -1.6241109351616951 [Eh]
	 SCS Total Energy          =    -364.6929843688955657 [Eh]
	-----------------------------------------------------------

  Dipole Moment: [D]
     X:     4.0523      Y:    -1.1244      Z:     0.8923     Total:     4.2991

*** Psi4 exiting successfully. Buy a developer a beer!
