                               Psi4 1.3.2 release

  ==> Input File <==

--------------------------------------------------------------------------
#psi4
#
memory 32 gb

molecule  {
0 1
  O       -2.5416370     0.0659770    -0.3927070
  N       -0.7122740    -1.2241950    -0.0249760
  C        1.8380290     0.7314390    -0.0343340
  C        1.7030864    -0.9462711    -0.4259328
  C        0.5749500     1.5632640    -0.2598230
  C        0.6466580    -1.4925250     0.4187290
  C       -0.6257670     1.1444980     0.6024810
  C       -1.3868420    -0.0349600     0.0307530
  H        2.6566510     1.1652070    -0.6217190
  H        2.1344690     0.8237010     1.0199600
  H        1.5025340    -0.8781880    -1.4483810
  H        2.6863370    -1.2343500    -0.1898600
  H        0.2863390     1.5300770    -1.3181450
  H        0.8108260     2.6104720    -0.0371320
  H        0.7923570    -2.5718330     0.3164690
  H        0.7525260    -1.2638240     1.4882170
  H       -1.3561390     1.9546950     0.6612310
  H       -0.2921570     0.9237120     1.6255030
  H       -1.2491170    -1.9758090    -0.4428220
units angstrom
no_reorient  #important for SAPT in psi4, default
symmetry c1  #important for SAPT in psi4, default
}

set PROPERTIES_ORIGIN ["COM"]
properties('MP2/aug-cc-pvtz', properties = ['dipole'])
--------------------------------------------------------------------------

    Molecular point group: c1
  Charge       = 0
  Multiplicity = 1
  Basis Set: AUG-CC-PVTZ
    Blend: AUG-CC-PVTZ
  Basis Set: (AUG-CC-PVTZ AUX)
    Blend: AUG-CC-PVTZ-JKFIT

    Orbital Energies [Eh]
    ---------------------

    Doubly Occupied:

       1A    -20.509444     2A    -15.580145     3A    -11.343376
       4A    -11.275594     5A    -11.237453     6A    -11.235848
       7A    -11.235123     8A    -11.233508     9A     -1.363891
      10A     -1.230425    11A     -1.081525    12A     -1.048471
      13A     -0.944304    14A     -0.883023    15A     -0.801789
      16A     -0.763295    17A     -0.693712    18A     -0.674688
      19A     -0.630971    20A     -0.611651    21A     -0.597687
      22A     -0.591593    23A     -0.576287    24A     -0.552973
      25A     -0.530184    26A     -0.515892    27A     -0.486256
      28A     -0.475940    29A     -0.415075    30A     -0.410842
      31A     -0.388396

  @DF-RHF Final Energy:  -363.04616911167170

   => Energetics <=

    Nuclear Repulsion Energy =            392.6246764327659662
    One-Electron Energy =               -1271.5029692488574256
    Two-Electron Energy =                 515.8321237044198142
    Total Energy =                       -363.0461691116717020
  Basis Set: (AUG-CC-PVTZ AUX)
    Blend: AUG-CC-PVTZ-RI
    Molecular point group: c1

    Geometry (in Angstrom), charge = 0, multiplicity = 1:

       Center              X                  Y                   Z               Mass
    ------------   -----------------  -----------------  -----------------  -----------------
         O           -2.463526762784     0.096127284130    -0.378673068204    15.994914619570
         N           -0.634163762784    -1.194044715870    -0.010942068204    14.003074004430
         C            1.916139237216     0.761589284130    -0.020300068204    12.000000000000
         C            1.781196637216    -0.916120815870    -0.411898868204    12.000000000000
         C            0.653060237216     1.593414284130    -0.245789068204    12.000000000000
         C            0.724768237216    -1.462374715870     0.432762931796    12.000000000000
         C           -0.547656762784     1.174648284130     0.616514931796    12.000000000000
         C           -1.308731762784    -0.004809715870     0.044786931796    12.000000000000
         H            2.734761237216     1.195357284130    -0.607685068204     1.007825032230
         H            2.212579237216     0.853851284130     1.033993931796     1.007825032230
         H            1.580644237216    -0.848037715870    -1.434347068204     1.007825032230
         H            2.764447237216    -1.204199715870    -0.175826068204     1.007825032230
         H            0.364449237216     1.560227284130    -1.304111068204     1.007825032230
         H            0.888936237216     2.640622284130    -0.023098068204     1.007825032230
         H            0.870467237216    -2.541682715870     0.330502931796     1.007825032230
         H            0.830636237216    -1.233673715870     1.502250931796     1.007825032230
         H           -1.278028762784     1.984845284130     0.675264931796     1.007825032230
         H           -0.214046762784     0.953862284130     1.639536931796     1.007825032230
         H           -1.171006762784    -1.945658715870    -0.428788068204     1.007825032230

  Basis Set: AUG-CC-PVTZ
    Blend: AUG-CC-PVTZ
  Basis Set: (AUG-CC-PVTZ AUX)
    Blend: AUG-CC-PVTZ-JKFIT
	 Reference Energy          =    -363.0461691116717020 [Eh]
	 Singles Energy            =      -0.0000000000000000 [Eh]
	 Same-Spin Energy          =      -0.3782673822685025 [Eh]
	 Opposite-Spin Energy      =      -1.2494393750184243 [Eh]
	 Correlation Energy        =      -1.6277067572869268 [Eh]
	 Total Energy              =    -364.6738758689586462 [Eh]

	 ================> DF-SCS-MP2 Energies <==================
	-----------------------------------------------------------
	 SCS Same-Spin Scale       =       0.3333333333333333 [-]
	 SCS Opposite-Spin Scale   =       1.2000000000000000 [-]
	 SCS Same-Spin Energy      =      -0.1260891274228342 [Eh]
	 SCS Opposite-Spin Energy  =      -1.4993272500221091 [Eh]
	 SCS Correlation Energy    =      -1.6254163774449433 [Eh]
	 SCS Total Energy          =    -364.6715854891166373 [Eh]
	-----------------------------------------------------------

  Dipole Moment: [D]
     X:     4.0618      Y:    -1.0524      Z:     0.8815     Total:     4.2875

*** Psi4 exiting successfully. Buy a developer a beer!
