                               Psi4 1.3.2 release

  ==> Input File <==

--------------------------------------------------------------------------
#psi4
#
memory 32 gb

molecule  {
0 1
  O       -2.5416370     0.0659770    -0.3927070
  N       -0.7122740    -1.2241950    -0.0249760
  C        1.8380290     0.7314390    -0.0343340
  C        1.7187040    -0.7521010    -0.3806110
  C        0.6024553     1.6781737    -0.1507219
  C        0.6466580    -1.4925250     0.4187290
  C       -0.6257670     1.1444980     0.6024810
  C       -1.3868420    -0.0349600     0.0307530
  H        2.6566510     1.1652070    -0.6217190
  H        2.1344690     0.8237010     1.0199600
  H        1.5025340    -0.8781880    -1.4483810
  H        2.6863370    -1.2343500    -0.1898600
  H        0.2863390     1.5300770    -1.3181450
  H        0.8108260     2.6104720    -0.0371320
  H        0.7923570    -2.5718330     0.3164690
  H        0.7525260    -1.2638240     1.4882170
  H       -1.3561390     1.9546950     0.6612310
  H       -0.2921570     0.9237120     1.6255030
  H       -1.2491170    -1.9758090    -0.4428220
units angstrom
no_reorient  #important for SAPT in psi4, default
symmetry c1  #important for SAPT in psi4, default
}

set PROPERTIES_ORIGIN ["COM"]
properties('MP2/aug-cc-pvtz', properties = ['dipole'])
--------------------------------------------------------------------------

    Molecular point group: c1
  Charge       = 0
  Multiplicity = 1
  Basis Set: AUG-CC-PVTZ
    Blend: AUG-CC-PVTZ
  Basis Set: (AUG-CC-PVTZ AUX)
    Blend: AUG-CC-PVTZ-JKFIT

    Orbital Energies [Eh]
    ---------------------

    Doubly Occupied:

       1A    -20.511281     2A    -15.580018     3A    -11.346808
       4A    -11.278149     5A    -11.238843     6A    -11.237588
       7A    -11.237261     8A    -11.235039     9A     -1.365137
      10A     -1.229138    11A     -1.091248    12A     -1.043649
      13A     -0.944773    14A     -0.897083    15A     -0.798130
      16A     -0.764030    17A     -0.689423    18A     -0.677320
      19A     -0.639031    20A     -0.607518    21A     -0.605633
      22A     -0.591959    23A     -0.573301    24A     -0.550459
      25A     -0.521970    26A     -0.507212    27A     -0.491046
      28A     -0.462857    29A     -0.449390    30A     -0.413492
      31A     -0.383648

  @DF-RHF Final Energy:  -363.04480242849826

   => Energetics <=

    Nuclear Repulsion Energy =            392.7984998342918175
    One-Electron Energy =               -1271.7617365697924470
    Two-Electron Energy =                 515.9184343070023715
    Total Energy =                       -363.0448024284983148
  Basis Set: (AUG-CC-PVTZ AUX)
    Blend: AUG-CC-PVTZ-RI
    Molecular point group: c1

    Geometry (in Angstrom), charge = 0, multiplicity = 1:

       Center              X                  Y                   Z               Mass
    ------------   -----------------  -----------------  -----------------  -----------------
         O           -2.468102781560     0.063329050060    -0.395059769697    15.994914619570
         N           -0.638739781560    -1.226842949940    -0.027328769697    14.003074004430
         C            1.911563218440     0.728791050060    -0.036686769697    12.000000000000
         C            1.792238218440    -0.754748949940    -0.382963769697    12.000000000000
         C            0.675989518440     1.675525750060    -0.153074669697    12.000000000000
         C            0.720192218440    -1.495172949940     0.416376230303    12.000000000000
         C           -0.552232781560     1.141850050060     0.600128230303    12.000000000000
         C           -1.313307781560    -0.037607949940     0.028400230303    12.000000000000
         H            2.730185218440     1.162559050060    -0.624071769697     1.007825032230
         H            2.208003218440     0.821053050060     1.017607230303     1.007825032230
         H            1.576068218440    -0.880835949940    -1.450733769697     1.007825032230
         H            2.759871218440    -1.236997949940    -0.192212769697     1.007825032230
         H            0.359873218440     1.527429050060    -1.320497769697     1.007825032230
         H            0.884360218440     2.607824050060    -0.039484769697     1.007825032230
         H            0.865891218440    -2.574480949940     0.314116230303     1.007825032230
         H            0.826060218440    -1.266471949940     1.485864230303     1.007825032230
         H           -1.282604781560     1.952047050060     0.658878230303     1.007825032230
         H           -0.218622781560     0.921064050060     1.623150230303     1.007825032230
         H           -1.175582781560    -1.978456949940    -0.445174769697     1.007825032230

  Basis Set: AUG-CC-PVTZ
    Blend: AUG-CC-PVTZ
  Basis Set: (AUG-CC-PVTZ AUX)
    Blend: AUG-CC-PVTZ-JKFIT
	 Reference Energy          =    -363.0448024284982580 [Eh]
	 Singles Energy            =      -0.0000000000000000 [Eh]
	 Same-Spin Energy          =      -0.3779951769929742 [Eh]
	 Opposite-Spin Energy      =      -1.2490600642887228 [Eh]
	 Correlation Energy        =      -1.6270552412816972 [Eh]
	 Total Energy              =    -364.6718576697799676 [Eh]

	 ================> DF-SCS-MP2 Energies <==================
	-----------------------------------------------------------
	 SCS Same-Spin Scale       =       0.3333333333333333 [-]
	 SCS Opposite-Spin Scale   =       1.2000000000000000 [-]
	 SCS Same-Spin Energy      =      -0.1259983923309914 [Eh]
	 SCS Opposite-Spin Energy  =      -1.4988720771464674 [Eh]
	 SCS Correlation Energy    =      -1.6248704694774587 [Eh]
	 SCS Total Energy          =    -364.6696728979757154 [Eh]
	-----------------------------------------------------------

  Dipole Moment: [D]
     X:     4.0632      Y:    -1.0746      Z:     0.9452     Total:     4.3079

*** Psi4 exiting successfully. Buy a developer a beer!
