                               Psi4 1.3.2 release

  ==> Input File <==

--------------------------------------------------------------------------
#psi4
#
memory 32 gb

molecule  {
0 1
  O       -2.5416370     0.0659770    -0.3927070
  N       -0.7122740    -1.2241950    -0.0249760
  C        1.8380290     0.7314390    -0.0343340
  C        1.7187040    -0.7521010    -0.3806110
  C        0.5749500     1.5632640    -0.2598230
  C        0.6466580    -1.4925250     0.4187290
  C       -0.6257670     1.1444980     0.6024810
  C       -1.3868420    -0.0349600     0.0307530
  H        2.6566510     1.1652070    -0.6217190
  H        2.1344690     0.8237010     1.0199600
  H        1.5025340    -0.8781880    -1.4483810
  H        2.6863370    -1.2343500    -0.1898600
  H        0.2863390     1.5300770    -1.3181450
  H        0.8108260     2.6104720    -0.0371320
  H        0.7923570    -2.5718330     0.3164690
  H        0.7525260    -1.2638240     1.4882170
  H       -1.3597636     1.9532807     0.6233004
  H       -0.2921570     0.9237120     1.6255030
  H       -1.2491170    -1.9758090    -0.4428220
units angstrom
no_reorient  #important for SAPT in psi4, default
symmetry c1  #important for SAPT in psi4, default
}

set PROPERTIES_ORIGIN ["COM"]
properties('MP2/aug-cc-pvtz', properties = ['dipole'])
--------------------------------------------------------------------------

    Molecular point group: c1
  Charge       = 0
  Multiplicity = 1
  Basis Set: AUG-CC-PVTZ
    Blend: AUG-CC-PVTZ
  Basis Set: (AUG-CC-PVTZ AUX)
    Blend: AUG-CC-PVTZ-JKFIT

    Orbital Energies [Eh]
    ---------------------

    Doubly Occupied:

       1A    -20.509155     2A    -15.578579     3A    -11.342885
       4A    -11.277388     5A    -11.236541     6A    -11.235917
       7A    -11.234346     8A    -11.232930     9A     -1.363562
      10A     -1.228248    11A     -1.094022    12A     -1.042315
      13A     -0.945421    14A     -0.888510    15A     -0.795440
      16A     -0.763371    17A     -0.687845    18A     -0.677277
      19A     -0.625900    20A     -0.612230    21A     -0.602687
      22A     -0.591544    23A     -0.569704    24A     -0.545058
      25A     -0.520192    26A     -0.515848    27A     -0.481309
      28A     -0.469881    29A     -0.469364    30A     -0.410711
      31A     -0.382768

  @DF-RHF Final Energy:  -363.07532285468778

   => Energetics <=

    Nuclear Repulsion Energy =            394.1231411169314924
    One-Electron Energy =               -1274.5350320221655238
    Two-Electron Energy =                 517.3365680505462478
    Total Energy =                       -363.0753228546877835
  Basis Set: (AUG-CC-PVTZ AUX)
    Blend: AUG-CC-PVTZ-RI
    Molecular point group: c1

    Geometry (in Angstrom), charge = 0, multiplicity = 1:

       Center              X                  Y                   Z               Mass
    ------------   -----------------  -----------------  -----------------  -----------------
         O           -2.465151733013     0.075535383281    -0.383144380731    15.994914619570
         N           -0.635788733013    -1.214636616719    -0.015413380731    14.003074004430
         C            1.914514266987     0.740997383281    -0.024771380731    12.000000000000
         C            1.795189266987    -0.742542616719    -0.371048380731    12.000000000000
         C            0.651435266987     1.572822383281    -0.250260380731    12.000000000000
         C            0.723143266987    -1.482966616719     0.428291619269    12.000000000000
         C           -0.549281733013     1.154056383281     0.612043619269    12.000000000000
         C           -1.310356733013    -0.025401616719     0.040315619269    12.000000000000
         H            2.733136266987     1.174765383281    -0.612156380731     1.007825032230
         H            2.210954266987     0.833259383281     1.029522619269     1.007825032230
         H            1.579019266987    -0.868629616719    -1.438818380731     1.007825032230
         H            2.762822266987    -1.224791616719    -0.180297380731     1.007825032230
         H            0.362824266987     1.539635383281    -1.308582380731     1.007825032230
         H            0.887311266987     2.620030383281    -0.027569380731     1.007825032230
         H            0.868842266987    -2.562274616719     0.326031619269     1.007825032230
         H            0.829011266987    -1.254265616719     1.497779619269     1.007825032230
         H           -1.283278333013     1.962839083281     0.632863019269     1.007825032230
         H           -0.215671733013     0.933270383281     1.635065619269     1.007825032230
         H           -1.172631733013    -1.966250616719    -0.433259380731     1.007825032230

  Basis Set: AUG-CC-PVTZ
    Blend: AUG-CC-PVTZ
  Basis Set: (AUG-CC-PVTZ AUX)
    Blend: AUG-CC-PVTZ-JKFIT
	 Reference Energy          =    -363.0753228546877835 [Eh]
	 Singles Energy            =      -0.0000000000000000 [Eh]
	 Same-Spin Energy          =      -0.3777496220276536 [Eh]
	 Opposite-Spin Energy      =      -1.2476959596224182 [Eh]
	 Correlation Energy        =      -1.6254455816500717 [Eh]
	 Total Energy              =    -364.7007684363378530 [Eh]

	 ================> DF-SCS-MP2 Energies <==================
	-----------------------------------------------------------
	 SCS Same-Spin Scale       =       0.3333333333333333 [-]
	 SCS Opposite-Spin Scale   =       1.2000000000000000 [-]
	 SCS Same-Spin Energy      =      -0.1259165406758845 [Eh]
	 SCS Opposite-Spin Energy  =      -1.4972351515469018 [Eh]
	 SCS Correlation Energy    =      -1.6231516922227862 [Eh]
	 SCS Total Energy          =    -364.6984745469105746 [Eh]
	-----------------------------------------------------------

  Dipole Moment: [D]
     X:     4.0712      Y:    -1.0400      Z:     0.8827     Total:     4.2937

*** Psi4 exiting successfully. Buy a developer a beer!
