                               Psi4 1.3.2 release

  ==> Input File <==

--------------------------------------------------------------------------
#psi4
#
memory 32 gb

molecule  {
0 1
  O       -2.5416370     0.0659770    -0.3927070
  N       -0.7122740    -1.2241950    -0.0249760
  C        1.8380290     0.7314390    -0.0343340
  C        1.7108952    -0.8491861    -0.4032719
  C        0.5749500     1.5632640    -0.2598230
  C        0.6466580    -1.4925250     0.4187290
  C       -0.6257670     1.1444980     0.6024810
  C       -1.3868420    -0.0349600     0.0307530
  H        2.6566510     1.1652070    -0.6217190
  H        2.1344690     0.8237010     1.0199600
  H        1.5025340    -0.8781880    -1.4483810
  H        2.6863370    -1.2343500    -0.1898600
  H        0.2863390     1.5300770    -1.3181450
  H        0.8108260     2.6104720    -0.0371320
  H        0.7923570    -2.5718330     0.3164690
  H        0.7525260    -1.2638240     1.4882170
  H       -1.3561390     1.9546950     0.6612310
  H       -0.2921570     0.9237120     1.6255030
  H       -1.2491170    -1.9758090    -0.4428220
units angstrom
no_reorient  #important for SAPT in psi4, default
symmetry c1  #important for SAPT in psi4, default
}

set PROPERTIES_ORIGIN ["COM"]
properties('MP2/aug-cc-pvtz', properties = ['dipole'])
--------------------------------------------------------------------------

    Molecular point group: c1
  Charge       = 0
  Multiplicity = 1
  Basis Set: AUG-CC-PVTZ
    Blend: AUG-CC-PVTZ
  Basis Set: (AUG-CC-PVTZ AUX)
    Blend: AUG-CC-PVTZ-JKFIT

    Orbital Energies [Eh]
    ---------------------

    Doubly Occupied:

       1A    -20.509196     2A    -15.579322     3A    -11.343148
       4A    -11.275939     5A    -11.236330     6A    -11.235760
       7A    -11.235408     8A    -11.232409     9A     -1.363620
      10A     -1.229234    11A     -1.086464    12A     -1.044613
      13A     -0.944823    14A     -0.885433    15A     -0.799075
      16A     -0.763590    17A     -0.690398    18A     -0.675529
      19A     -0.626439    20A     -0.611574    21A     -0.599263
      22A     -0.591439    23A     -0.573528    24A     -0.549034
      25A     -0.524249    26A     -0.516594    27A     -0.484446
      28A     -0.474129    29A     -0.444596    30A     -0.410664
      31A     -0.386044

  @DF-RHF Final Energy:  -363.06768840946671

   => Energetics <=

    Nuclear Repulsion Energy =            393.3506901500805384
    One-Electron Energy =               -1272.9921724941193588
    Two-Electron Energy =                 516.5737939345721088
    Total Energy =                       -363.0676884094667685
  Basis Set: (AUG-CC-PVTZ AUX)
    Blend: AUG-CC-PVTZ-RI
    Molecular point group: c1

    Geometry (in Angstrom), charge = 0, multiplicity = 1:

       Center              X                  Y                   Z               Mass
    ------------   -----------------  -----------------  -----------------  -----------------
         O           -2.464355399434     0.085825036767    -0.381077746551    15.994914619570
         N           -0.634992399434    -1.204346963233    -0.013346746551    14.003074004430
         C            1.915310600566     0.751287036767    -0.022704746551    12.000000000000
         C            1.788176800566    -0.829338063233    -0.391642646551    12.000000000000
         C            0.652231600566     1.583112036767    -0.248193746551    12.000000000000
         C            0.723939600566    -1.472676963233     0.430358253449    12.000000000000
         C           -0.548485399434     1.164346036767     0.614110253449    12.000000000000
         C           -1.309560399434    -0.015111963233     0.042382253449    12.000000000000
         H            2.733932600566     1.185055036767    -0.610089746551     1.007825032230
         H            2.211750600566     0.843549036767     1.031589253449     1.007825032230
         H            1.579815600566    -0.858339963233    -1.436751746551     1.007825032230
         H            2.763618600566    -1.214501963233    -0.178230746551     1.007825032230
         H            0.363620600566     1.549925036767    -1.306515746551     1.007825032230
         H            0.888107600566     2.630320036767    -0.025502746551     1.007825032230
         H            0.869638600566    -2.551984963233     0.328098253449     1.007825032230
         H            0.829807600566    -1.243975963233     1.499846253449     1.007825032230
         H           -1.278857399434     1.974543036767     0.672860253449     1.007825032230
         H           -0.214875399434     0.943560036767     1.637132253449     1.007825032230
         H           -1.171835399434    -1.955960963233    -0.431192746551     1.007825032230

  Basis Set: AUG-CC-PVTZ
    Blend: AUG-CC-PVTZ
  Basis Set: (AUG-CC-PVTZ AUX)
    Blend: AUG-CC-PVTZ-JKFIT
	 Reference Energy          =    -363.0676884094667116 [Eh]
	 Singles Energy            =      -0.0000000000000000 [Eh]
	 Same-Spin Energy          =      -0.3776381754753577 [Eh]
	 Opposite-Spin Energy      =      -1.2478757861661074 [Eh]
	 Correlation Energy        =      -1.6255139616414651 [Eh]
	 Total Energy              =    -364.6932023711081570 [Eh]

	 ================> DF-SCS-MP2 Energies <==================
	-----------------------------------------------------------
	 SCS Same-Spin Scale       =       0.3333333333333333 [-]
	 SCS Opposite-Spin Scale   =       1.2000000000000000 [-]
	 SCS Same-Spin Energy      =      -0.1258793918251192 [Eh]
	 SCS Opposite-Spin Energy  =      -1.4974509433993288 [Eh]
	 SCS Correlation Energy    =      -1.6233303352244481 [Eh]
	 SCS Total Energy          =    -364.6910187446911777 [Eh]
	-----------------------------------------------------------

  Dipole Moment: [D]
     X:     4.0732      Y:    -1.0531      Z:     0.8842     Total:     4.2991

*** Psi4 exiting successfully. Buy a developer a beer!
