                               Psi4 1.3.2 release

  ==> Input File <==

--------------------------------------------------------------------------
#psi4
#
memory 32 gb

molecule  {
0 1
  O       -2.5416370     0.0659770    -0.3927070
  N       -0.7122740    -1.2241950    -0.0249760
  C        1.8380290     0.7314390    -0.0343340
  C        1.7187040    -0.7521010    -0.3806110
  C        0.5749500     1.5632640    -0.2598230
  C        0.6466580    -1.4925250     0.4187290
  C       -0.6257670     1.1444980     0.6024810
  C       -1.3647999    -0.0495258     0.0320718
  H        2.6566510     1.1652070    -0.6217190
  H        2.1344690     0.8237010     1.0199600
  H        1.5025340    -0.8781880    -1.4483810
  H        2.6863370    -1.2343500    -0.1898600
  H        0.2863390     1.5300770    -1.3181450
  H        0.8108260     2.6104720    -0.0371320
  H        0.7923570    -2.5718330     0.3164690
  H        0.7525260    -1.2638240     1.4882170
  H       -1.3561390     1.9546950     0.6612310
  H       -0.2921570     0.9237120     1.6255030
  H       -1.2491170    -1.9758090    -0.4428220
units angstrom
no_reorient  #important for SAPT in psi4, default
symmetry c1  #important for SAPT in psi4, default
}

set PROPERTIES_ORIGIN ["COM"]
properties('MP2/aug-cc-pvtz', properties = ['dipole'])
--------------------------------------------------------------------------

    Molecular point group: c1
  Charge       = 0
  Multiplicity = 1
  Basis Set: AUG-CC-PVTZ
    Blend: AUG-CC-PVTZ
  Basis Set: (AUG-CC-PVTZ AUX)
    Blend: AUG-CC-PVTZ-JKFIT

    Orbital Energies [Eh]
    ---------------------

    Doubly Occupied:

       1A    -20.503145     2A    -15.583744     3A    -11.342339
       4A    -11.279905     5A    -11.236806     6A    -11.236260
       7A    -11.236201     8A    -11.233961     9A     -1.351036
      10A     -1.232953    11A     -1.095639    12A     -1.043611
      13A     -0.947794    14A     -0.891140    15A     -0.797099
      16A     -0.769297    17A     -0.690634    18A     -0.674928
      19A     -0.628037    20A     -0.612946    21A     -0.602852
      22A     -0.587561    23A     -0.571325    24A     -0.541601
      25A     -0.519349    26A     -0.514831    27A     -0.482229
      28A     -0.471049    29A     -0.468826    30A     -0.407072
      31A     -0.382830

  @DF-RHF Final Energy:  -363.07329885977992

   => Energetics <=

    Nuclear Repulsion Energy =            394.2243778890333488
    One-Electron Energy =               -1274.7213574608474573
    Two-Electron Energy =                 517.4236807120341837
    Total Energy =                       -363.0732988597799249
  Basis Set: (AUG-CC-PVTZ AUX)
    Blend: AUG-CC-PVTZ-RI
    Molecular point group: c1

    Geometry (in Angstrom), charge = 0, multiplicity = 1:

       Center              X                  Y                   Z               Mass
    ------------   -----------------  -----------------  -----------------  -----------------
         O           -2.467523050007     0.077068439549    -0.383622370346    15.994914619570
         N           -0.638160050007    -1.213103560451    -0.015891370346    14.003074004430
         C            1.912142949993     0.742530439549    -0.025249370346    12.000000000000
         C            1.792817949993    -0.741009560451    -0.371526370346    12.000000000000
         C            0.649063949993     1.574355439549    -0.250738370346    12.000000000000
         C            0.720771949993    -1.481433560451     0.427813629654    12.000000000000
         C           -0.551653050007     1.155589439549     0.611565629654    12.000000000000
         C           -1.290685950007    -0.038434360451     0.041156429654    12.000000000000
         H            2.730764949993     1.176298439549    -0.612634370346     1.007825032230
         H            2.208582949993     0.834792439549     1.029044629654     1.007825032230
         H            1.576647949993    -0.867096560451    -1.439296370346     1.007825032230
         H            2.760450949993    -1.223258560451    -0.180775370346     1.007825032230
         H            0.360452949993     1.541168439549    -1.309060370346     1.007825032230
         H            0.884939949993     2.621563439549    -0.028047370346     1.007825032230
         H            0.866470949993    -2.560741560451     0.325553629654     1.007825032230
         H            0.826639949993    -1.252732560451     1.497301629654     1.007825032230
         H           -1.282025050007     1.965786439549     0.670315629654     1.007825032230
         H           -0.218043050007     0.934803439549     1.634587629654     1.007825032230
         H           -1.175003050007    -1.964717560451    -0.433737370346     1.007825032230

  Basis Set: AUG-CC-PVTZ
    Blend: AUG-CC-PVTZ
  Basis Set: (AUG-CC-PVTZ AUX)
    Blend: AUG-CC-PVTZ-JKFIT
	 Reference Energy          =    -363.0732988597799249 [Eh]
	 Singles Energy            =      -0.0000000000000000 [Eh]
	 Same-Spin Energy          =      -0.3781032590774285 [Eh]
	 Opposite-Spin Energy      =      -1.2483750917689187 [Eh]
	 Correlation Energy        =      -1.6264783508463472 [Eh]
	 Total Energy              =    -364.6997772106262801 [Eh]

	 ================> DF-SCS-MP2 Energies <==================
	-----------------------------------------------------------
	 SCS Same-Spin Scale       =       0.3333333333333333 [-]
	 SCS Opposite-Spin Scale   =       1.2000000000000000 [-]
	 SCS Same-Spin Energy      =      -0.1260344196924761 [Eh]
	 SCS Opposite-Spin Energy  =      -1.4980501101227024 [Eh]
	 SCS Correlation Energy    =      -1.6240845298151785 [Eh]
	 SCS Total Energy          =    -364.6973833895951316 [Eh]
	-----------------------------------------------------------

  Dipole Moment: [D]
     X:     4.2799      Y:    -1.1649      Z:     0.9306     Total:     4.5322

*** Psi4 exiting successfully. Buy a developer a beer!
