                               Psi4 1.3.2 release

  ==> Input File <==

--------------------------------------------------------------------------
#psi4
#
memory 32 gb

molecule  {
0 1
  O       -2.5416370     0.0659770    -0.3927070
  N       -0.7122740    -1.2241950    -0.0249760
  C        1.8282894     0.7431925    -0.0854405
  C        1.7187040    -0.7521010    -0.3806110
  C        0.5749500     1.5632640    -0.2598230
  C        0.6466580    -1.4925250     0.4187290
  C       -0.6257670     1.1444980     0.6024810
  C       -1.3868420    -0.0349600     0.0307530
  H        2.6566510     1.1652070    -0.6217190
  H        2.1344690     0.8237010     1.0199600
  H        1.5025340    -0.8781880    -1.4483810
  H        2.6863370    -1.2343500    -0.1898600
  H        0.2863390     1.5300770    -1.3181450
  H        0.8108260     2.6104720    -0.0371320
  H        0.7923570    -2.5718330     0.3164690
  H        0.7525260    -1.2638240     1.4882170
  H       -1.3561390     1.9546950     0.6612310
  H       -0.2921570     0.9237120     1.6255030
  H       -1.2491170    -1.9758090    -0.4428220
units angstrom
no_reorient  #important for SAPT in psi4, default
symmetry c1  #important for SAPT in psi4, default
}

set PROPERTIES_ORIGIN ["COM"]
properties('MP2/aug-cc-pvtz', properties = ['dipole'])
--------------------------------------------------------------------------

    Molecular point group: c1
  Charge       = 0
  Multiplicity = 1
  Basis Set: AUG-CC-PVTZ
    Blend: AUG-CC-PVTZ
  Basis Set: (AUG-CC-PVTZ AUX)
    Blend: AUG-CC-PVTZ-JKFIT

    Orbital Energies [Eh]
    ---------------------

    Doubly Occupied:

       1A    -20.509394     2A    -15.578971     3A    -11.343438
       4A    -11.278003     5A    -11.237161     6A    -11.236128
       7A    -11.235073     8A    -11.234456     9A     -1.363785
      10A     -1.228577    11A     -1.096172    12A     -1.042421
      13A     -0.947473    14A     -0.890020    15A     -0.792311
      16A     -0.764762    17A     -0.688304    18A     -0.678462
      19A     -0.628521    20A     -0.611339    21A     -0.600582
      22A     -0.592063    23A     -0.571856    24A     -0.547032
      25A     -0.520462    26A     -0.515304    27A     -0.479390
      28A     -0.471904    29A     -0.465182    30A     -0.411132
      31A     -0.383212

  @DF-RHF Final Energy:  -363.07229361147108

   => Energetics <=

    Nuclear Repulsion Energy =            394.1949927517990773
    One-Electron Energy =               -1274.6487967072382617
    Two-Electron Energy =                 517.3815103439681025
    Total Energy =                       -363.0722936114710819
  Basis Set: (AUG-CC-PVTZ AUX)
    Blend: AUG-CC-PVTZ-RI
    Molecular point group: c1

    Geometry (in Angstrom), charge = 0, multiplicity = 1:

       Center              X                  Y                   Z               Mass
    ------------   -----------------  -----------------  -----------------  -----------------
         O           -2.464150511149     0.074275547351    -0.378059220439    15.994914619570
         N           -0.634787511149    -1.215896452649    -0.010328220439    14.003074004430
         C            1.905775888851     0.751491047351    -0.070792720439    12.000000000000
         C            1.796190488851    -0.743802452649    -0.365963220439    12.000000000000
         C            0.652436488851     1.571562547351    -0.245175220439    12.000000000000
         C            0.724144488851    -1.484226452649     0.433376779561    12.000000000000
         C           -0.548280511149     1.152796547351     0.617128779561    12.000000000000
         C           -1.309355511149    -0.026661452649     0.045400779561    12.000000000000
         H            2.734137488851     1.173505547351    -0.607071220439     1.007825032230
         H            2.211955488851     0.831999547351     1.034607779561     1.007825032230
         H            1.580020488851    -0.869889452649    -1.433733220439     1.007825032230
         H            2.763823488851    -1.226051452649    -0.175212220439     1.007825032230
         H            0.363825488851     1.538375547351    -1.303497220439     1.007825032230
         H            0.888312488851     2.618770547351    -0.022484220439     1.007825032230
         H            0.869843488851    -2.563534452649     0.331116779561     1.007825032230
         H            0.830012488851    -1.255525452649     1.502864779561     1.007825032230
         H           -1.278652511149     1.962993547351     0.675878779561     1.007825032230
         H           -0.214670511149     0.932010547351     1.640150779561     1.007825032230
         H           -1.171630511149    -1.967510452649    -0.428174220439     1.007825032230

  Basis Set: AUG-CC-PVTZ
    Blend: AUG-CC-PVTZ
  Basis Set: (AUG-CC-PVTZ AUX)
    Blend: AUG-CC-PVTZ-JKFIT
	 Reference Energy          =    -363.0722936114710819 [Eh]
	 Singles Energy            =      -0.0000000000000000 [Eh]
	 Same-Spin Energy          =      -0.3779116296865744 [Eh]
	 Opposite-Spin Energy      =      -1.2479582121936916 [Eh]
	 Correlation Energy        =      -1.6258698418802662 [Eh]
	 Total Energy              =    -364.6981634533513557 [Eh]

	 ================> DF-SCS-MP2 Energies <==================
	-----------------------------------------------------------
	 SCS Same-Spin Scale       =       0.3333333333333333 [-]
	 SCS Opposite-Spin Scale   =       1.2000000000000000 [-]
	 SCS Same-Spin Energy      =      -0.1259705432288581 [Eh]
	 SCS Opposite-Spin Energy  =      -1.4975498546324300 [Eh]
	 SCS Correlation Energy    =      -1.6235203978612880 [Eh]
	 SCS Total Energy          =    -364.6958140093323664 [Eh]
	-----------------------------------------------------------

  Dipole Moment: [D]
     X:     4.0552      Y:    -1.0371      Z:     0.8633     Total:     4.2738

*** Psi4 exiting successfully. Buy a developer a beer!
