                               Psi4 1.4a3.dev225

  ==> Input File <==

--------------------------------------------------------------------------
#psi4
#
memory 32 gb

molecule  {
0 1
  O       -2.5416370     0.0659770    -0.3927070
  N       -0.7122740    -1.2241950    -0.0249760
  C        1.8380290     0.7314390    -0.0343340
  C        1.7187040    -0.7521010    -0.3806110
  C        0.5749500     1.5632640    -0.2598230
  C        0.6466580    -1.4925250     0.4187290
  C       -0.6257670     1.1444980     0.6024810
  C       -1.4119490    -0.0738690     0.0118923
  H        2.6566510     1.1652070    -0.6217190
  H        2.1344690     0.8237010     1.0199600
  H        1.5025340    -0.8781880    -1.4483810
  H        2.6863370    -1.2343500    -0.1898600
  H        0.2863390     1.5300770    -1.3181450
  H        0.8108260     2.6104720    -0.0371320
  H        0.7923570    -2.5718330     0.3164690
  H        0.7525260    -1.2638240     1.4882170
  H       -1.3561390     1.9546950     0.6612310
  H       -0.2921570     0.9237120     1.6255030
  H       -1.2491170    -1.9758090    -0.4428220
units angstrom
no_reorient  #important for SAPT in psi4, default
symmetry c1  #important for SAPT in psi4, default
}

set PROPERTIES_ORIGIN ["COM"]
properties('MP2/aug-cc-pvtz', properties = ['dipole'])
--------------------------------------------------------------------------

    Molecular point group: c1
  Charge       = 0
  Multiplicity = 1
  Basis Set: AUG-CC-PVTZ
    Blend: AUG-CC-PVTZ
  Basis Set: (AUG-CC-PVTZ AUX)
    Blend: AUG-CC-PVTZ-JKFIT

    Orbital Energies [Eh]
    ---------------------

    Doubly Occupied:

       1A    -20.510287     2A    -15.579928     3A    -11.339550
       4A    -11.279717     5A    -11.234626     6A    -11.233356
       7A    -11.232734     8A    -11.231656     9A     -1.379015
      10A     -1.236925    11A     -1.091955    12A     -1.037693
      13A     -0.942667    14A     -0.886283    15A     -0.794074
      16A     -0.763330    17A     -0.691642    18A     -0.674078
      19A     -0.627592    20A     -0.611013    21A     -0.601110
      22A     -0.594870    23A     -0.570071    24A     -0.545912
      25A     -0.523651    26A     -0.515283    27A     -0.480119
      28A     -0.471318    29A     -0.467467    30A     -0.404727
      31A     -0.387623

  @DF-RHF Final Energy:  -363.07531307659264

   => Energetics <=

    Nuclear Repulsion Energy =            394.1104009164102990
    One-Electron Energy =               -1274.4908852934740935
    Two-Electron Energy =                 517.3051713004712155
    Total Energy =                       -363.0753130765925789
  Basis Set: (AUG-CC-PVTZ AUX)
    Blend: AUG-CC-PVTZ-RI
    Molecular point group: c1

    Geometry (in Angstrom), charge = 0, multiplicity = 1:

       Center              X                  Y                   Z               Mass
    ------------   -----------------  -----------------  -----------------  -----------------
         O           -2.462519788008     0.079651636418    -0.381481007615    15.994914619570
         N           -0.633156788008    -1.210520363582    -0.013750007615    14.003074004430
         C            1.917146211992     0.745113636418    -0.023108007615    12.000000000000
         C            1.797821211992    -0.738426363582    -0.369385007615    12.000000000000
         C            0.654067211992     1.576938636418    -0.248597007615    12.000000000000
         C            0.725775211992    -1.478850363582     0.429954992385    12.000000000000
         C           -0.546649788008     1.158172636418     0.613706992385    12.000000000000
         C           -1.332831788008    -0.060194363582     0.023118292385    12.000000000000
         H            2.735768211992     1.178881636418    -0.610493007615     1.007825032230
         H            2.213586211992     0.837375636418     1.031185992385     1.007825032230
         H            1.581651211992    -0.864513363582    -1.437155007615     1.007825032230
         H            2.765454211992    -1.220675363582    -0.178634007615     1.007825032230
         H            0.365456211992     1.543751636418    -1.306919007615     1.007825032230
         H            0.889943211992     2.624146636418    -0.025906007615     1.007825032230
         H            0.871474211992    -2.558158363582     0.327694992385     1.007825032230
         H            0.831643211992    -1.250149363582     1.499442992385     1.007825032230
         H           -1.277021788008     1.968369636418     0.672456992385     1.007825032230
         H           -0.213039788008     0.937386636418     1.636728992385     1.007825032230
         H           -1.169999788008    -1.962134363582    -0.431596007615     1.007825032230

  Basis Set: AUG-CC-PVTZ
    Blend: AUG-CC-PVTZ
  Basis Set: (AUG-CC-PVTZ AUX)
    Blend: AUG-CC-PVTZ-JKFIT
	 Reference Energy          =    -363.0753130765926358 [Eh]
	 Singles Energy            =      -0.0000000000000000 [Eh]
	 Same-Spin Energy          =      -0.3769589646148044 [Eh]
	 Opposite-Spin Energy      =      -1.2462357295673652 [Eh]
	 Correlation Energy        =      -1.6231946941821696 [Eh]
	 Total Energy              =    -364.6985077707748246 [Eh]

	 ================> DF-SCS-MP2 Energies <==================
	-----------------------------------------------------------
	 SCS Same-Spin Scale       =       0.3333333333333333 [-]
	 SCS Opposite-Spin Scale   =       1.2000000000000000 [-]
	 SCS Same-Spin Energy      =      -0.1256529882049348 [Eh]
	 SCS Opposite-Spin Energy  =      -1.4954828754808382 [Eh]
	 SCS Correlation Energy    =      -1.6211358636857731 [Eh]
	 SCS Total Energy          =    -364.6964489402784011 [Eh]
	-----------------------------------------------------------

  Dipole Moment: [D]
     X:     3.9670      Y:    -1.2311      Z:     0.8275     Total:     4.2352

*** Psi4 exiting successfully. Buy a developer a beer!
