                               Psi4 1.4a3.dev225

  ==> Input File <==

--------------------------------------------------------------------------
#psi4
#
memory 32 gb

molecule  {
0 1
  O       -2.5416370     0.0659770    -0.3927070
  N       -0.7122740    -1.2241950    -0.0249760
  C        1.8380290     0.7314390    -0.0343340
  C        1.7187040    -0.7521010    -0.3806110
  C        0.5749500     1.5632640    -0.2598230
  C        0.6466580    -1.4925250     0.4187290
  C       -0.6257670     1.1444980     0.6024810
  C       -1.3868420    -0.0349600     0.0307530
  H        2.6566510     1.1652070    -0.6217190
  H        2.1344690     0.8237010     1.0199600
  H        1.5025340    -0.8781880    -1.4483810
  H        2.6863370    -1.2343500    -0.1898600
  H        0.2863390     1.5300770    -1.3181450
  H        0.8108260     2.6104720    -0.0371320
  H        0.7950209    -2.5915664     0.3145993
  H        0.7525260    -1.2638240     1.4882170
  H       -1.3561390     1.9546950     0.6612310
  H       -0.2921570     0.9237120     1.6255030
  H       -1.2491170    -1.9758090    -0.4428220
units angstrom
no_reorient  #important for SAPT in psi4, default
symmetry c1  #important for SAPT in psi4, default
}

set PROPERTIES_ORIGIN ["COM"]
properties('MP2/aug-cc-pvtz', properties = ['dipole'])
--------------------------------------------------------------------------

    Molecular point group: c1
  Charge       = 0
  Multiplicity = 1
  Basis Set: AUG-CC-PVTZ
    Blend: AUG-CC-PVTZ
  Basis Set: (AUG-CC-PVTZ AUX)
    Blend: AUG-CC-PVTZ-JKFIT

    Orbital Energies [Eh]
    ---------------------

    Doubly Occupied:

       1A    -20.509178     2A    -15.578844     3A    -11.343181
       4A    -11.279755     5A    -11.236766     6A    -11.236071
       7A    -11.234520     8A    -11.233190     9A     -1.363567
      10A     -1.228210    11A     -1.094098    12A     -1.041841
      13A     -0.944789    14A     -0.887893    15A     -0.795473
      16A     -0.764140    17A     -0.687675    18A     -0.675959
      19A     -0.626368    20A     -0.611524    21A     -0.601714
      22A     -0.590583    23A     -0.570102    24A     -0.545192
      25A     -0.518885    26A     -0.515881    27A     -0.481227
      28A     -0.470692    29A     -0.468969    30A     -0.410652
      31A     -0.382889

  @DF-RHF Final Energy:  -363.07490932299703

   => Energetics <=

    Nuclear Repulsion Energy =            393.9838180478822096
    One-Electron Energy =               -1274.2577984051335989
    Two-Electron Energy =                 517.1990710342543025
    Total Energy =                       -363.0749093229970867
  Basis Set: (AUG-CC-PVTZ AUX)
    Blend: AUG-CC-PVTZ-RI
    Molecular point group: c1

    Geometry (in Angstrom), charge = 0, multiplicity = 1:

       Center              X                  Y                   Z               Mass
    ------------   -----------------  -----------------  -----------------  -----------------
         O           -2.465207777229     0.075698646317    -0.383465761803    15.994914619570
         N           -0.635844777229    -1.214473353683    -0.015734761803    14.003074004430
         C            1.914458222771     0.741160646317    -0.025092761803    12.000000000000
         C            1.795133222771    -0.742379353683    -0.371369761803    12.000000000000
         C            0.651379222771     1.572985646317    -0.250581761803    12.000000000000
         C            0.723087222771    -1.482803353683     0.427970238197    12.000000000000
         C           -0.549337777229     1.154219646317     0.611722238197    12.000000000000
         C           -1.310412777229    -0.025238353683     0.039994238197    12.000000000000
         H            2.733080222771     1.174928646317    -0.612477761803     1.007825032230
         H            2.210898222771     0.833422646317     1.029201238197     1.007825032230
         H            1.578963222771    -0.868466353683    -1.439139761803     1.007825032230
         H            2.762766222771    -1.224628353683    -0.180618761803     1.007825032230
         H            0.362768222771     1.539798646317    -1.308903761803     1.007825032230
         H            0.887255222771     2.620193646317    -0.027890761803     1.007825032230
         H            0.871450122771    -2.581844753683     0.323840538197     1.007825032230
         H            0.828955222771    -1.254102353683     1.497458238197     1.007825032230
         H           -1.279709777229     1.964416646317     0.670472238197     1.007825032230
         H           -0.215727777229     0.933433646317     1.634744238197     1.007825032230
         H           -1.172687777229    -1.966087353683    -0.433580761803     1.007825032230

  Basis Set: AUG-CC-PVTZ
    Blend: AUG-CC-PVTZ
  Basis Set: (AUG-CC-PVTZ AUX)
    Blend: AUG-CC-PVTZ-JKFIT
	 Reference Energy          =    -363.0749093229970299 [Eh]
	 Singles Energy            =      -0.0000000000000000 [Eh]
	 Same-Spin Energy          =      -0.3777434806979466 [Eh]
	 Opposite-Spin Energy      =      -1.2478257592774606 [Eh]
	 Correlation Energy        =      -1.6255692399754071 [Eh]
	 Total Energy              =    -364.7004785629724211 [Eh]

	 ================> DF-SCS-MP2 Energies <==================
	-----------------------------------------------------------
	 SCS Same-Spin Scale       =       0.3333333333333333 [-]
	 SCS Opposite-Spin Scale   =       1.2000000000000000 [-]
	 SCS Same-Spin Energy      =      -0.1259144935659822 [Eh]
	 SCS Opposite-Spin Energy  =      -1.4973909111329526 [Eh]
	 SCS Correlation Energy    =      -1.6233054046989348 [Eh]
	 SCS Total Energy          =    -364.6982147276959836 [Eh]
	-----------------------------------------------------------

  Dipole Moment: [D]
     X:     4.0703      Y:    -1.0237      Z:     0.8942     Total:     4.2913

*** Psi4 exiting successfully. Buy a developer a beer!
