                               Psi4 1.4a3.dev225

  ==> Input File <==

--------------------------------------------------------------------------
#psi4
#
memory 32 gb

molecule  {
0 1
  O       -2.5416370     0.0659770    -0.3927070
  N       -0.7122740    -1.2241950    -0.0249760
  C        1.8380290     0.7314390    -0.0343340
  C        1.7187040    -0.7521010    -0.3806110
  C        0.5749500     1.5632640    -0.2598230
  C        0.6466580    -1.4925250     0.4187290
  C       -0.6257670     1.1444980     0.6024810
  C       -1.3868420    -0.0349600     0.0307530
  H        2.6715763     1.1731156    -0.6324283
  H        2.1344690     0.8237010     1.0199600
  H        1.5025340    -0.8781880    -1.4483810
  H        2.6863370    -1.2343500    -0.1898600
  H        0.2863390     1.5300770    -1.3181450
  H        0.8108260     2.6104720    -0.0371320
  H        0.7923570    -2.5718330     0.3164690
  H        0.7525260    -1.2638240     1.4882170
  H       -1.3561390     1.9546950     0.6612310
  H       -0.2921570     0.9237120     1.6255030
  H       -1.2491170    -1.9758090    -0.4428220
units angstrom
no_reorient  #important for SAPT in psi4, default
symmetry c1  #important for SAPT in psi4, default
}

set PROPERTIES_ORIGIN ["COM"]
properties('MP2/aug-cc-pvtz', properties = ['dipole'])
--------------------------------------------------------------------------

    Molecular point group: c1
  Charge       = 0
  Multiplicity = 1
  Basis Set: AUG-CC-PVTZ
    Blend: AUG-CC-PVTZ
  Basis Set: (AUG-CC-PVTZ AUX)
    Blend: AUG-CC-PVTZ-JKFIT

    Orbital Energies [Eh]
    ---------------------

    Doubly Occupied:

       1A    -20.509176     2A    -15.578790     3A    -11.343160
       4A    -11.277512     5A    -11.236885     6A    -11.236173
       7A    -11.235613     8A    -11.234396     9A     -1.363570
      10A     -1.228397    11A     -1.093641    12A     -1.042297
      13A     -0.944697    14A     -0.888642    15A     -0.794640
      16A     -0.764073    17A     -0.687995    18A     -0.676345
      19A     -0.625359    20A     -0.611990    21A     -0.602057
      22A     -0.591807    23A     -0.569399    24A     -0.545284
      25A     -0.519052    26A     -0.515881    27A     -0.481461
      28A     -0.470308    29A     -0.468657    30A     -0.410677
      31A     -0.382836

  @DF-RHF Final Energy:  -363.07494834281994

   => Energetics <=

    Nuclear Repulsion Energy =            393.9873702539320561
    One-Electron Energy =               -1274.2630976313494102
    Two-Electron Energy =                 517.2007790345973035
    Total Energy =                       -363.0749483428199937
  Basis Set: (AUG-CC-PVTZ AUX)
    Blend: AUG-CC-PVTZ-RI
    Molecular point group: c1

    Geometry (in Angstrom), charge = 0, multiplicity = 1:

       Center              X                  Y                   Z               Mass
    ------------   -----------------  -----------------  -----------------  -----------------
         O           -2.465317052979     0.075452295960    -0.383386981736    15.994914619570
         N           -0.635954052979    -1.214719704040    -0.015655981736    14.003074004430
         C            1.914348947021     0.740914295960    -0.025013981736    12.000000000000
         C            1.795023947021    -0.742625704040    -0.371290981736    12.000000000000
         C            0.651269947021     1.572739295960    -0.250502981736    12.000000000000
         C            0.722977947021    -1.483049704040     0.428049018264    12.000000000000
         C           -0.549447052979     1.153973295960     0.611801018264    12.000000000000
         C           -1.310522052979    -0.025484704040     0.040073018264    12.000000000000
         H            2.747896247021     1.182590895960    -0.623108281736     1.007825032230
         H            2.210788947021     0.833176295960     1.029280018264     1.007825032230
         H            1.578853947021    -0.868712704040    -1.439060981736     1.007825032230
         H            2.762656947021    -1.224874704040    -0.180539981736     1.007825032230
         H            0.362658947021     1.539552295960    -1.308824981736     1.007825032230
         H            0.887145947021     2.619947295960    -0.027811981736     1.007825032230
         H            0.868676947021    -2.562357704040     0.325789018264     1.007825032230
         H            0.828845947021    -1.254348704040     1.497537018264     1.007825032230
         H           -1.279819052979     1.964170295960     0.670551018264     1.007825032230
         H           -0.215837052979     0.933187295960     1.634823018264     1.007825032230
         H           -1.172797052979    -1.966333704040    -0.433501981736     1.007825032230

  Basis Set: AUG-CC-PVTZ
    Blend: AUG-CC-PVTZ
  Basis Set: (AUG-CC-PVTZ AUX)
    Blend: AUG-CC-PVTZ-JKFIT
	 Reference Energy          =    -363.0749483428199369 [Eh]
	 Singles Energy            =      -0.0000000000000000 [Eh]
	 Same-Spin Energy          =      -0.3777309755703241 [Eh]
	 Opposite-Spin Energy      =      -1.2478046061277666 [Eh]
	 Correlation Energy        =      -1.6255355816980908 [Eh]
	 Total Energy              =    -364.7004839245180392 [Eh]

	 ================> DF-SCS-MP2 Energies <==================
	-----------------------------------------------------------
	 SCS Same-Spin Scale       =       0.3333333333333333 [-]
	 SCS Opposite-Spin Scale   =       1.2000000000000000 [-]
	 SCS Same-Spin Energy      =      -0.1259103251901080 [Eh]
	 SCS Opposite-Spin Energy  =      -1.4973655273533197 [Eh]
	 SCS Correlation Energy    =      -1.6232758525434277 [Eh]
	 SCS Total Energy          =    -364.6982241953633661 [Eh]
	-----------------------------------------------------------

  Dipole Moment: [D]
     X:     4.0577      Y:    -1.0433      Z:     0.9018     Total:     4.2856

*** Psi4 exiting successfully. Buy a developer a beer!
