                               Psi4 1.3.2 release

  ==> Input File <==

--------------------------------------------------------------------------
#psi4
#
memory 32 gb

molecule  {
0 1
  O       -2.5416370     0.0659770    -0.3927070
  N       -0.7122740    -1.2241950    -0.0249760
  C        1.8663290     0.6854020     0.1162079
  C        1.7187040    -0.7521010    -0.3806110
  C        0.5749500     1.5632640    -0.2598230
  C        0.6466580    -1.4925250     0.4187290
  C       -0.6257670     1.1444980     0.6024810
  C       -1.3868420    -0.0349600     0.0307530
  H        2.6566510     1.1652070    -0.6217190
  H        2.1344690     0.8237010     1.0199600
  H        1.5025340    -0.8781880    -1.4483810
  H        2.6863370    -1.2343500    -0.1898600
  H        0.2863390     1.5300770    -1.3181450
  H        0.8108260     2.6104720    -0.0371320
  H        0.7923570    -2.5718330     0.3164690
  H        0.7525260    -1.2638240     1.4882170
  H       -1.3561390     1.9546950     0.6612310
  H       -0.2921570     0.9237120     1.6255030
  H       -1.2491170    -1.9758090    -0.4428220
units angstrom
no_reorient  #important for SAPT in psi4, default
symmetry c1  #important for SAPT in psi4, default
}

set PROPERTIES_ORIGIN ["COM"]
properties('MP2/aug-cc-pvtz', properties = ['dipole'])
--------------------------------------------------------------------------

    Molecular point group: c1
  Charge       = 0
  Multiplicity = 1
  Basis Set: AUG-CC-PVTZ
    Blend: AUG-CC-PVTZ
  Basis Set: (AUG-CC-PVTZ AUX)
    Blend: AUG-CC-PVTZ-JKFIT

    Orbital Energies [Eh]
    ---------------------

    Doubly Occupied:

       1A    -20.508544     2A    -15.578331     3A    -11.342329
       4A    -11.275981     5A    -11.239847     6A    -11.235860
       7A    -11.233925     8A    -11.232623     9A     -1.362946
      10A     -1.227947    11A     -1.089383    12A     -1.042457
      13A     -0.942207    14A     -0.884931    15A     -0.813295
      16A     -0.762714    17A     -0.687192    18A     -0.672583
      19A     -0.625352    20A     -0.615236    21A     -0.607050
      22A     -0.591515    23A     -0.564011    24A     -0.541831
      25A     -0.525697    26A     -0.518418    27A     -0.505206
      28A     -0.458945    29A     -0.444774    30A     -0.408743
      31A     -0.381625

  @DF-RHF Final Energy:  -363.04404031624216

   => Energetics <=

    Nuclear Repulsion Energy =            393.7248294582786343
    One-Electron Energy =               -1273.6947408280102536
    Two-Electron Energy =                 516.9258710534893453
    Total Energy =                       -363.0440403162422172
  Basis Set: (AUG-CC-PVTZ AUX)
    Blend: AUG-CC-PVTZ-RI
    Molecular point group: c1

    Geometry (in Angstrom), charge = 0, multiplicity = 1:

       Center              X                  Y                   Z               Mass
    ------------   -----------------  -----------------  -----------------  -----------------
         O           -2.468187111744     0.080408029467    -0.399457291173    15.994914619570
         N           -0.638824111744    -1.209763970533    -0.031726291173    14.003074004430
         C            1.939778888256     0.699833029467     0.109457608827    12.000000000000
         C            1.792153888256    -0.737669970533    -0.387361291173    12.000000000000
         C            0.648399888256     1.577695029467    -0.266573291173    12.000000000000
         C            0.720107888256    -1.478093970533     0.411978708827    12.000000000000
         C           -0.552317111744     1.158929029467     0.595730708827    12.000000000000
         C           -1.313392111744    -0.020528970533     0.024002708827    12.000000000000
         H            2.730100888256     1.179638029467    -0.628469291173     1.007825032230
         H            2.207918888256     0.838132029467     1.013209708827     1.007825032230
         H            1.575983888256    -0.863756970533    -1.455131291173     1.007825032230
         H            2.759786888256    -1.219918970533    -0.196610291173     1.007825032230
         H            0.359788888256     1.544508029467    -1.324895291173     1.007825032230
         H            0.884275888256     2.624903029467    -0.043882291173     1.007825032230
         H            0.865806888256    -2.557401970533     0.309718708827     1.007825032230
         H            0.825975888256    -1.249392970533     1.481466708827     1.007825032230
         H           -1.282689111744     1.969126029467     0.654480708827     1.007825032230
         H           -0.218707111744     0.938143029467     1.618752708827     1.007825032230
         H           -1.175667111744    -1.961377970533    -0.449572291173     1.007825032230

  Basis Set: AUG-CC-PVTZ
    Blend: AUG-CC-PVTZ
  Basis Set: (AUG-CC-PVTZ AUX)
    Blend: AUG-CC-PVTZ-JKFIT
	 Reference Energy          =    -363.0440403162421603 [Eh]
	 Singles Energy            =      -0.0000000000000000 [Eh]
	 Same-Spin Energy          =      -0.3778459725473534 [Eh]
	 Opposite-Spin Energy      =      -1.2489341835866377 [Eh]
	 Correlation Energy        =      -1.6267801561339910 [Eh]
	 Total Energy              =    -364.6708204723761355 [Eh]

	 ================> DF-SCS-MP2 Energies <==================
	-----------------------------------------------------------
	 SCS Same-Spin Scale       =       0.3333333333333333 [-]
	 SCS Opposite-Spin Scale   =       1.2000000000000000 [-]
	 SCS Same-Spin Energy      =      -0.1259486575157844 [Eh]
	 SCS Opposite-Spin Energy  =      -1.4987210203039651 [Eh]
	 SCS Correlation Energy    =      -1.6246696778197496 [Eh]
	 SCS Total Energy          =    -364.6687099940618850 [Eh]
	-----------------------------------------------------------

  Dipole Moment: [D]
     X:     4.0632      Y:    -1.0613      Z:     0.9423     Total:     4.3039

*** Psi4 exiting successfully. Buy a developer a beer!
