                               Psi4 1.3.2 release

  ==> Input File <==

--------------------------------------------------------------------------
#psi4
#
memory 32 gb

molecule  {
0 1
  O       -2.5416370     0.0659770    -0.3927070
  N       -0.7122740    -1.2241950    -0.0249760
  C        1.8380290     0.7314390    -0.0343340
  C        1.7187040    -0.7521010    -0.3806110
  C        0.5749500     1.5632640    -0.2598230
  C        0.6466580    -1.4925250     0.4187290
  C       -0.6257670     1.1444980     0.6024810
  C       -1.2697189     0.0199694     0.0922318
  H        2.6566510     1.1652070    -0.6217190
  H        2.1344690     0.8237010     1.0199600
  H        1.5025340    -0.8781880    -1.4483810
  H        2.6863370    -1.2343500    -0.1898600
  H        0.2863390     1.5300770    -1.3181450
  H        0.8108260     2.6104720    -0.0371320
  H        0.7923570    -2.5718330     0.3164690
  H        0.7525260    -1.2638240     1.4882170
  H       -1.3561390     1.9546950     0.6612310
  H       -0.2921570     0.9237120     1.6255030
  H       -1.2491170    -1.9758090    -0.4428220
units angstrom
no_reorient  #important for SAPT in psi4, default
symmetry c1  #important for SAPT in psi4, default
}

set PROPERTIES_ORIGIN ["COM"]
properties('MP2/aug-cc-pvtz', properties = ['dipole'])
--------------------------------------------------------------------------

    Molecular point group: c1
  Charge       = 0
  Multiplicity = 1
  Basis Set: AUG-CC-PVTZ
    Blend: AUG-CC-PVTZ
  Basis Set: (AUG-CC-PVTZ AUX)
    Blend: AUG-CC-PVTZ-JKFIT

    Orbital Energies [Eh]
    ---------------------

    Doubly Occupied:

       1A    -20.491433     2A    -15.589900     3A    -11.351178
       4A    -11.278062     5A    -11.245516     6A    -11.240604
       7A    -11.238951     8A    -11.238148     9A     -1.309686
      10A     -1.209456    11A     -1.107691    12A     -1.058132
      13A     -0.960194    14A     -0.897638    15A     -0.802698
      16A     -0.778369    17A     -0.691917    18A     -0.680412
      19A     -0.635355    20A     -0.615353    21A     -0.609998
      22A     -0.586344    23A     -0.568817    24A     -0.537188
      25A     -0.517074    26A     -0.501485    27A     -0.486295
      28A     -0.478445    29A     -0.456862    30A     -0.400622
      31A     -0.368525

  @DF-RHF Final Energy:  -363.03496845886326

   => Energetics <=

    Nuclear Repulsion Energy =            394.5243966544919658
    One-Electron Energy =               -1275.2540313544577657
    Two-Electron Energy =                 517.6946662411024818
    Total Energy =                       -363.0349684588633181
  Basis Set: (AUG-CC-PVTZ AUX)
    Blend: AUG-CC-PVTZ-RI
    Molecular point group: c1

    Geometry (in Angstrom), charge = 0, multiplicity = 1:

       Center              X                  Y                   Z               Mass
    ------------   -----------------  -----------------  -----------------  -----------------
         O           -2.477612641412     0.069693904441    -0.390006293726    15.994914619570
         N           -0.648249641412    -1.220478095559    -0.022275293726    14.003074004430
         C            1.902053358588     0.735155904441    -0.031633293726    12.000000000000
         C            1.782728358588    -0.748384095559    -0.377910293726    12.000000000000
         C            0.638974358588     1.566980904441    -0.257122293726    12.000000000000
         C            0.710682358588    -1.488808095559     0.421429706274    12.000000000000
         C           -0.561742641412     1.148214904441     0.605181706274    12.000000000000
         C           -1.205694541412     0.023686304441     0.094932506274    12.000000000000
         H            2.720675358588     1.168923904441    -0.619018293726     1.007825032230
         H            2.198493358588     0.827417904441     1.022660706274     1.007825032230
         H            1.566558358588    -0.874471095559    -1.445680293726     1.007825032230
         H            2.750361358588    -1.230633095559    -0.187159293726     1.007825032230
         H            0.350363358588     1.533793904441    -1.315444293726     1.007825032230
         H            0.874850358588     2.614188904441    -0.034431293726     1.007825032230
         H            0.856381358588    -2.568116095559     0.319169706274     1.007825032230
         H            0.816550358588    -1.260107095559     1.490917706274     1.007825032230
         H           -1.292114641412     1.958411904441     0.663931706274     1.007825032230
         H           -0.228132641412     0.927428904441     1.628203706274     1.007825032230
         H           -1.185092641412    -1.972092095559    -0.440121293726     1.007825032230

  Basis Set: AUG-CC-PVTZ
    Blend: AUG-CC-PVTZ
  Basis Set: (AUG-CC-PVTZ AUX)
    Blend: AUG-CC-PVTZ-JKFIT
	 Reference Energy          =    -363.0349684588632613 [Eh]
	 Singles Energy            =      -0.0000000000000000 [Eh]
	 Same-Spin Energy          =      -0.3818259719082467 [Eh]
	 Opposite-Spin Energy      =      -1.2551995612994824 [Eh]
	 Correlation Energy        =      -1.6370255332077290 [Eh]
	 Total Energy              =    -364.6719939920710090 [Eh]

	 ================> DF-SCS-MP2 Energies <==================
	-----------------------------------------------------------
	 SCS Same-Spin Scale       =       0.3333333333333333 [-]
	 SCS Opposite-Spin Scale   =       1.2000000000000000 [-]
	 SCS Same-Spin Energy      =      -0.1272753239694156 [Eh]
	 SCS Opposite-Spin Energy  =      -1.5062394735593789 [Eh]
	 SCS Correlation Energy    =      -1.6335147975287945 [Eh]
	 SCS Total Energy          =    -364.6684832563920509 [Eh]
	-----------------------------------------------------------

  Dipole Moment: [D]
     X:     4.7775      Y:    -0.9137      Z:     1.1182     Total:     4.9909

*** Psi4 exiting successfully. Buy a developer a beer!
