                               Psi4 1.3.2 release

  ==> Input File <==

--------------------------------------------------------------------------
#psi4
#
memory 32 gb

molecule  {
0 1
  O       -2.5416370     0.0659770    -0.3927070
  N       -0.7122740    -1.2241950    -0.0249760
  C        1.8380290     0.7314390    -0.0343340
  C        1.7187040    -0.7521010    -0.3806110
  C        0.5749500     1.5632640    -0.2598230
  C        0.6466580    -1.4925250     0.4187290
  C       -0.6257670     1.1444980     0.6024810
  C       -1.3868420    -0.0349600     0.0307530
  H        2.6566510     1.1652070    -0.6217190
  H        2.1344690     0.8237010     1.0199600
  H        1.5025340    -0.8781880    -1.4483810
  H        2.6863370    -1.2343500    -0.1898600
  H        0.2863390     1.5300770    -1.3181450
  H        0.7893104     2.5149500    -0.0574450
  H        0.7923570    -2.5718330     0.3164690
  H        0.7525260    -1.2638240     1.4882170
  H       -1.3561390     1.9546950     0.6612310
  H       -0.2921570     0.9237120     1.6255030
  H       -1.2491170    -1.9758090    -0.4428220
units angstrom
no_reorient  #important for SAPT in psi4, default
symmetry c1  #important for SAPT in psi4, default
}

set PROPERTIES_ORIGIN ["COM"]
properties('MP2/aug-cc-pvtz', properties = ['dipole'])
--------------------------------------------------------------------------

    Molecular point group: c1
  Charge       = 0
  Multiplicity = 1
  Basis Set: AUG-CC-PVTZ
    Blend: AUG-CC-PVTZ
  Basis Set: (AUG-CC-PVTZ AUX)
    Blend: AUG-CC-PVTZ-JKFIT

    Orbital Energies [Eh]
    ---------------------

    Doubly Occupied:

       1A    -20.508490     2A    -15.578133     3A    -11.342468
       4A    -11.276880     5A    -11.235415     6A    -11.233741
       7A    -11.232406     8A    -11.223930     9A     -1.362921
      10A     -1.227734    11A     -1.096546    12A     -1.042848
      13A     -0.945676    14A     -0.894411    15A     -0.798225
      16A     -0.764106    17A     -0.689187    18A     -0.676320
      19A     -0.630932    20A     -0.613176    21A     -0.604496
      22A     -0.592338    23A     -0.570482    24A     -0.545487
      25A     -0.519599    26A     -0.516091    27A     -0.481458
      28A     -0.473968    29A     -0.469536    30A     -0.410548
      31A     -0.382297

  @DF-RHF Final Energy:  -363.06984443870607

   => Energetics <=

    Nuclear Repulsion Energy =            394.6283140646530683
    One-Electron Energy =               -1275.5166296779657387
    Two-Electron Energy =                 517.8184711746066569
    Total Energy =                       -363.0698444387060135
  Basis Set: (AUG-CC-PVTZ AUX)
    Blend: AUG-CC-PVTZ-RI
    Molecular point group: c1

    Geometry (in Angstrom), charge = 0, multiplicity = 1:

       Center              X                  Y                   Z               Mass
    ------------   -----------------  -----------------  -----------------  -----------------
         O           -2.464992285280     0.076374087626    -0.383301391875    15.994914619570
         N           -0.635629285280    -1.213797912374    -0.015570391875    14.003074004430
         C            1.914673714720     0.741836087626    -0.024928391875    12.000000000000
         C            1.795348714720    -0.741703912374    -0.371205391875    12.000000000000
         C            0.651594714720     1.573661087626    -0.250417391875    12.000000000000
         C            0.723302714720    -1.482127912374     0.428134608125    12.000000000000
         C           -0.549122285280     1.154895087626     0.611886608125    12.000000000000
         C           -1.310197285280    -0.024562912374     0.040158608125    12.000000000000
         H            2.733295714720     1.175604087626    -0.612313391875     1.007825032230
         H            2.211113714720     0.834098087626     1.029365608125     1.007825032230
         H            1.579178714720    -0.867790912374    -1.438975391875     1.007825032230
         H            2.762981714720    -1.223952912374    -0.180454391875     1.007825032230
         H            0.362983714720     1.540474087626    -1.308739391875     1.007825032230
         H            0.865955114720     2.525347087626    -0.048039391875     1.007825032230
         H            0.869001714720    -2.561435912374     0.325874608125     1.007825032230
         H            0.829170714720    -1.253426912374     1.497622608125     1.007825032230
         H           -1.279494285280     1.965092087626     0.670636608125     1.007825032230
         H           -0.215512285280     0.934109087626     1.634908608125     1.007825032230
         H           -1.172472285280    -1.965411912374    -0.433416391875     1.007825032230

  Basis Set: AUG-CC-PVTZ
    Blend: AUG-CC-PVTZ
  Basis Set: (AUG-CC-PVTZ AUX)
    Blend: AUG-CC-PVTZ-JKFIT
	 Reference Energy          =    -363.0698444387060704 [Eh]
	 Singles Energy            =      -0.0000000000000000 [Eh]
	 Same-Spin Energy          =      -0.3776986719900828 [Eh]
	 Opposite-Spin Energy      =      -1.2470724014296093 [Eh]
	 Correlation Energy        =      -1.6247710734196921 [Eh]
	 Total Energy              =    -364.6946155121257789 [Eh]

	 ================> DF-SCS-MP2 Energies <==================
	-----------------------------------------------------------
	 SCS Same-Spin Scale       =       0.3333333333333333 [-]
	 SCS Opposite-Spin Scale   =       1.2000000000000000 [-]
	 SCS Same-Spin Energy      =      -0.1258995573300276 [Eh]
	 SCS Opposite-Spin Energy  =      -1.4964868817155310 [Eh]
	 SCS Correlation Energy    =      -1.6223864390455587 [Eh]
	 SCS Total Energy          =    -364.6922308777516264 [Eh]
	-----------------------------------------------------------

  Dipole Moment: [D]
     X:     4.0870      Y:    -0.9715      Z:     0.8976     Total:     4.2957

*** Psi4 exiting successfully. Buy a developer a beer!
