                               Psi4 1.4a3.dev225

  ==> Input File <==

--------------------------------------------------------------------------
#psi4
#
memory 32 gb

molecule  {
0 1
  O       -2.5416370     0.0659770    -0.3927070
  N       -0.7122740    -1.2241950    -0.0249760
  C        1.8380290     0.7314390    -0.0343340
  C        1.7187040    -0.7521010    -0.3806110
  C        0.5749500     1.5632640    -0.2598230
  C        0.6466580    -1.4925250     0.4187290
  C       -0.6257670     1.1444980     0.6024810
  C       -1.3868420    -0.0349600     0.0307530
  H        2.6566510     1.1652070    -0.6217190
  H        2.1344690     0.8237010     1.0199600
  H        1.5025340    -0.8781880    -1.4483810
  H        2.6863370    -1.2343500    -0.1898600
  H        0.2863390     1.5300770    -1.3181450
  H        0.8000682     2.5627110    -0.0472885
  H        0.7923570    -2.5718330     0.3164690
  H        0.7525260    -1.2638240     1.4882170
  H       -1.3561390     1.9546950     0.6612310
  H       -0.2921570     0.9237120     1.6255030
  H       -1.2491170    -1.9758090    -0.4428220
units angstrom
no_reorient  #important for SAPT in psi4, default
symmetry c1  #important for SAPT in psi4, default
}

set PROPERTIES_ORIGIN ["COM"]
properties('MP2/aug-cc-pvtz', properties = ['dipole'])
--------------------------------------------------------------------------

    Molecular point group: c1
  Charge       = 0
  Multiplicity = 1
  Basis Set: AUG-CC-PVTZ
    Blend: AUG-CC-PVTZ
  Basis Set: (AUG-CC-PVTZ AUX)
    Blend: AUG-CC-PVTZ-JKFIT

    Orbital Energies [Eh]
    ---------------------

    Doubly Occupied:

       1A    -20.508754     2A    -15.578381     3A    -11.342725
       4A    -11.277091     5A    -11.235749     6A    -11.234024
       7A    -11.232741     8A    -11.230209     9A     -1.363167
      10A     -1.227979    11A     -1.095066    12A     -1.042451
      13A     -0.945473    14A     -0.891219    15A     -0.796719
      16A     -0.764038    17A     -0.688450    18A     -0.676562
      19A     -0.628177    20A     -0.612450    21A     -0.603373
      22A     -0.592182    23A     -0.570273    24A     -0.545331
      25A     -0.519449    26A     -0.515959    27A     -0.481216
      28A     -0.472158    29A     -0.469834    30A     -0.410567
      31A     -0.382510

  @DF-RHF Final Energy:  -363.07466158033418

   => Energetics <=

    Nuclear Repulsion Energy =            394.3495534148239585
    One-Electron Energy =               -1274.9798756532418338
    Two-Electron Energy =                 517.5556606580837524
    Total Energy =                       -363.0746615803341228
  Basis Set: (AUG-CC-PVTZ AUX)
    Blend: AUG-CC-PVTZ-RI
    Molecular point group: c1

    Geometry (in Angstrom), charge = 0, multiplicity = 1:

       Center              X                  Y                   Z               Mass
    ------------   -----------------  -----------------  -----------------  -----------------
         O           -2.465088160683     0.075948433209    -0.383391908386    15.994914619570
         N           -0.635725160683    -1.214223566791    -0.015660908386    14.003074004430
         C            1.914577839317     0.741410433209    -0.025018908386    12.000000000000
         C            1.795252839317    -0.742129566791    -0.371295908386    12.000000000000
         C            0.651498839317     1.573235433209    -0.250507908386    12.000000000000
         C            0.723206839317    -1.482553566791     0.428044091614    12.000000000000
         C           -0.549218160683     1.154469433209     0.611796091614    12.000000000000
         C           -1.310293160683    -0.024988566791     0.040068091614    12.000000000000
         H            2.733199839317     1.175178433209    -0.612403908386     1.007825032230
         H            2.211017839317     0.833672433209     1.029275091614     1.007825032230
         H            1.579082839317    -0.868216566791    -1.439065908386     1.007825032230
         H            2.762885839317    -1.224378566791    -0.180544908386     1.007825032230
         H            0.362887839317     1.540048433209    -1.308829908386     1.007825032230
         H            0.876617039317     2.572682433209    -0.037973408386     1.007825032230
         H            0.868905839317    -2.561861566791     0.325784091614     1.007825032230
         H            0.829074839317    -1.253852566791     1.497532091614     1.007825032230
         H           -1.279590160683     1.964666433209     0.670546091614     1.007825032230
         H           -0.215608160683     0.933683433209     1.634818091614     1.007825032230
         H           -1.172568160683    -1.965837566791    -0.433506908386     1.007825032230

  Basis Set: AUG-CC-PVTZ
    Blend: AUG-CC-PVTZ
  Basis Set: (AUG-CC-PVTZ AUX)
    Blend: AUG-CC-PVTZ-JKFIT
	 Reference Energy          =    -363.0746615803341797 [Eh]
	 Singles Energy            =      -0.0000000000000000 [Eh]
	 Same-Spin Energy          =      -0.3777063057349416 [Eh]
	 Opposite-Spin Energy      =      -1.2473302714531620 [Eh]
	 Correlation Energy        =      -1.6250365771881037 [Eh]
	 Total Energy              =    -364.6996981575222776 [Eh]

	 ================> DF-SCS-MP2 Energies <==================
	-----------------------------------------------------------
	 SCS Same-Spin Scale       =       0.3333333333333333 [-]
	 SCS Opposite-Spin Scale   =       1.2000000000000000 [-]
	 SCS Same-Spin Energy      =      -0.1259021019116472 [Eh]
	 SCS Opposite-Spin Energy  =      -1.4967963257437944 [Eh]
	 SCS Correlation Energy    =      -1.6226984276554415 [Eh]
	 SCS Total Energy          =    -364.6973600079896300 [Eh]
	-----------------------------------------------------------

  Dipole Moment: [D]
     X:     4.0803      Y:    -1.0010      Z:     0.8970     Total:     4.2960

*** Psi4 exiting successfully. Buy a developer a beer!
