                               Psi4 1.3.2 release

  ==> Input File <==

--------------------------------------------------------------------------
#psi4
#
memory 32 gb

molecule  {
0 1
  O       -2.5416370     0.0659770    -0.3927070
  N       -0.7122740    -1.2241950    -0.0249760
  C        1.9082304     0.8234686    -0.1448760
  C        1.7187040    -0.7521010    -0.3806110
  C        0.5749500     1.5632640    -0.2598230
  C        0.6466580    -1.4925250     0.4187290
  C       -0.6257670     1.1444980     0.6024810
  C       -1.3868420    -0.0349600     0.0307530
  H        2.6566510     1.1652070    -0.6217190
  H        2.1344690     0.8237010     1.0199600
  H        1.5025340    -0.8781880    -1.4483810
  H        2.6863370    -1.2343500    -0.1898600
  H        0.2863390     1.5300770    -1.3181450
  H        0.8108260     2.6104720    -0.0371320
  H        0.7923570    -2.5718330     0.3164690
  H        0.7525260    -1.2638240     1.4882170
  H       -1.3561390     1.9546950     0.6612310
  H       -0.2921570     0.9237120     1.6255030
  H       -1.2491170    -1.9758090    -0.4428220
units angstrom
no_reorient  #important for SAPT in psi4, default
symmetry c1  #important for SAPT in psi4, default
}

set PROPERTIES_ORIGIN ["COM"]
properties('MP2/aug-cc-pvtz', properties = ['dipole'])
--------------------------------------------------------------------------

    Molecular point group: c1
  Charge       = 0
  Multiplicity = 1
  Basis Set: AUG-CC-PVTZ
    Blend: AUG-CC-PVTZ
  Basis Set: (AUG-CC-PVTZ AUX)
    Blend: AUG-CC-PVTZ-JKFIT

    Orbital Energies [Eh]
    ---------------------

    Doubly Occupied:

       1A    -20.510024     2A    -15.579143     3A    -11.344063
       4A    -11.280023     5A    -11.240197     6A    -11.237523
       7A    -11.236946     8A    -11.234314     9A     -1.364324
      10A     -1.228309    11A     -1.089386    12A     -1.038583
      13A     -0.953981    14A     -0.885909    15A     -0.801760
      16A     -0.765792    17A     -0.686902    18A     -0.682610
      19A     -0.633050    20A     -0.607256    21A     -0.595374
      22A     -0.594342    23A     -0.575655    24A     -0.549199
      25A     -0.527958    26A     -0.513616    27A     -0.492303
      28A     -0.460648    29A     -0.445063    30A     -0.412214
      31A     -0.383919

  @DF-RHF Final Energy:  -363.04407257064963

   => Energetics <=

    Nuclear Repulsion Energy =            392.4725752788055502
    One-Electron Energy =               -1271.1325235958061057
    Two-Electron Energy =                 515.6158757463508664
    Total Energy =                       -363.0440725706496323
  Basis Set: (AUG-CC-PVTZ AUX)
    Blend: AUG-CC-PVTZ-RI
    Molecular point group: c1

    Geometry (in Angstrom), charge = 0, multiplicity = 1:

       Center              X                  Y                   Z               Mass
    ------------   -----------------  -----------------  -----------------  -----------------
         O           -2.472633510134     0.065756988978    -0.371752177917    15.994914619570
         N           -0.643270510134    -1.224415011022    -0.004021177917    14.003074004430
         C            1.977233889866     0.823248588978    -0.123921177917    12.000000000000
         C            1.787707489866    -0.752321011022    -0.359656177917    12.000000000000
         C            0.643953489866     1.563043988978    -0.238868177917    12.000000000000
         C            0.715661489866    -1.492745011022     0.439683822083    12.000000000000
         C           -0.556763510134     1.144277988978     0.623435822083    12.000000000000
         C           -1.317838510134    -0.035180011022     0.051707822083    12.000000000000
         H            2.725654489866     1.164986988978    -0.600764177917     1.007825032230
         H            2.203472489866     0.823480988978     1.040914822083     1.007825032230
         H            1.571537489866    -0.878408011022    -1.427426177917     1.007825032230
         H            2.755340489866    -1.234570011022    -0.168905177917     1.007825032230
         H            0.355342489866     1.529856988978    -1.297190177917     1.007825032230
         H            0.879829489866     2.610251988978    -0.016177177917     1.007825032230
         H            0.861360489866    -2.572053011022     0.337423822083     1.007825032230
         H            0.821529489866    -1.264044011022     1.509171822083     1.007825032230
         H           -1.287135510134     1.954474988978     0.682185822083     1.007825032230
         H           -0.223153510134     0.923491988978     1.646457822083     1.007825032230
         H           -1.180113510134    -1.976029011022    -0.421867177917     1.007825032230

  Basis Set: AUG-CC-PVTZ
    Blend: AUG-CC-PVTZ
  Basis Set: (AUG-CC-PVTZ AUX)
    Blend: AUG-CC-PVTZ-JKFIT
	 Reference Energy          =    -363.0440725706496323 [Eh]
	 Singles Energy            =      -0.0000000000000000 [Eh]
	 Same-Spin Energy          =      -0.3777362569962521 [Eh]
	 Opposite-Spin Energy      =      -1.2487396091547822 [Eh]
	 Correlation Energy        =      -1.6264758661510343 [Eh]
	 Total Energy              =    -364.6705484368006864 [Eh]

	 ================> DF-SCS-MP2 Energies <==================
	-----------------------------------------------------------
	 SCS Same-Spin Scale       =       0.3333333333333333 [-]
	 SCS Opposite-Spin Scale   =       1.2000000000000000 [-]
	 SCS Same-Spin Energy      =      -0.1259120856654173 [Eh]
	 SCS Opposite-Spin Energy  =      -1.4984875309857386 [Eh]
	 SCS Correlation Energy    =      -1.6243996166511558 [Eh]
	 SCS Total Energy          =    -364.6684721873007788 [Eh]
	-----------------------------------------------------------

  Dipole Moment: [D]
     X:     4.0176      Y:    -1.0302      Z:     0.8496     Total:     4.2337

*** Psi4 exiting successfully. Buy a developer a beer!
