                               Psi4 1.3.2 release

  ==> Input File <==

--------------------------------------------------------------------------
#psi4
#
memory 32 gb

molecule  {
0 1
  O       -2.5416370     0.0659770    -0.3927070
  N       -0.7122740    -1.2241950    -0.0249760
  C        1.8380290     0.7314390    -0.0343340
  C        1.7187040    -0.7521010    -0.3806110
  C        0.5749500     1.5632640    -0.2598230
  C        0.6466580    -1.4925250     0.4187290
  C       -0.6257670     1.1444980     0.6024810
  C       -1.3868420    -0.0349600     0.0307530
  H        2.6566510     1.1652070    -0.6217190
  H        2.1344690     0.8237010     1.0199600
  H        1.5356355    -0.8970377    -1.4521703
  H        2.6863370    -1.2343500    -0.1898600
  H        0.2863390     1.5300770    -1.3181450
  H        0.8108260     2.6104720    -0.0371320
  H        0.7923570    -2.5718330     0.3164690
  H        0.7525260    -1.2638240     1.4882170
  H       -1.3561390     1.9546950     0.6612310
  H       -0.2921570     0.9237120     1.6255030
  H       -1.2491170    -1.9758090    -0.4428220
units angstrom
no_reorient  #important for SAPT in psi4, default
symmetry c1  #important for SAPT in psi4, default
}

set PROPERTIES_ORIGIN ["COM"]
properties('MP2/aug-cc-pvtz', properties = ['dipole'])
--------------------------------------------------------------------------

    Molecular point group: c1
  Charge       = 0
  Multiplicity = 1
  Basis Set: AUG-CC-PVTZ
    Blend: AUG-CC-PVTZ
  Basis Set: (AUG-CC-PVTZ AUX)
    Blend: AUG-CC-PVTZ-JKFIT

    Orbital Energies [Eh]
    ---------------------

    Doubly Occupied:

       1A    -20.508982     2A    -15.578569     3A    -11.342965
       4A    -11.277567     5A    -11.236596     6A    -11.235916
       7A    -11.234313     8A    -11.233253     9A     -1.363375
      10A     -1.228154    11A     -1.093844    12A     -1.042120
      13A     -0.945417    14A     -0.888709    15A     -0.795842
      16A     -0.764055    17A     -0.687222    18A     -0.676830
      19A     -0.626838    20A     -0.611627    21A     -0.601482
      22A     -0.591568    23A     -0.569849    24A     -0.545467
      25A     -0.519268    26A     -0.515623    27A     -0.481241
      28A     -0.470726    29A     -0.469314    30A     -0.410516
      31A     -0.382718

  @DF-RHF Final Energy:  -363.07538948748663

   => Energetics <=

    Nuclear Repulsion Energy =            394.0168227129489082
    One-Electron Energy =               -1274.3244943670065368
    Two-Electron Energy =                 517.2322821665710535
    Total Energy =                       -363.0753894874866319
  Basis Set: (AUG-CC-PVTZ AUX)
    Blend: AUG-CC-PVTZ-RI
    Molecular point group: c1

    Geometry (in Angstrom), charge = 0, multiplicity = 1:

       Center              X                  Y                   Z               Mass
    ------------   -----------------  -----------------  -----------------  -----------------
         O           -2.465479042464     0.075690770627    -0.383448653991    15.994914619570
         N           -0.636116042464    -1.214481229373    -0.015717653991    14.003074004430
         C            1.914186957536     0.741152770627    -0.025075653991    12.000000000000
         C            1.794861957536    -0.742387229373    -0.371352653991    12.000000000000
         C            0.651107957536     1.572977770627    -0.250564653991    12.000000000000
         C            0.722815957536    -1.482811229373     0.427987346009    12.000000000000
         C           -0.549609042464     1.154211770627     0.611739346009    12.000000000000
         C           -1.310684042464    -0.025246229373     0.040011346009    12.000000000000
         H            2.732808957536     1.174920770627    -0.612460653991     1.007825032230
         H            2.210626957536     0.833414770627     1.029218346009     1.007825032230
         H            1.611793457536    -0.887323929373    -1.442911953991     1.007825032230
         H            2.762494957536    -1.224636229373    -0.180601653991     1.007825032230
         H            0.362496957536     1.539790770627    -1.308886653991     1.007825032230
         H            0.886983957536     2.620185770627    -0.027873653991     1.007825032230
         H            0.868514957536    -2.562119229373     0.325727346009     1.007825032230
         H            0.828683957536    -1.254110229373     1.497475346009     1.007825032230
         H           -1.279981042464     1.964408770627     0.670489346009     1.007825032230
         H           -0.215999042464     0.933425770627     1.634761346009     1.007825032230
         H           -1.172959042464    -1.966095229373    -0.433563653991     1.007825032230

  Basis Set: AUG-CC-PVTZ
    Blend: AUG-CC-PVTZ
  Basis Set: (AUG-CC-PVTZ AUX)
    Blend: AUG-CC-PVTZ-JKFIT
	 Reference Energy          =    -363.0753894874866319 [Eh]
	 Singles Energy            =      -0.0000000000000000 [Eh]
	 Same-Spin Energy          =      -0.3777000452996407 [Eh]
	 Opposite-Spin Energy      =      -1.2476106144419621 [Eh]
	 Correlation Energy        =      -1.6253106597416027 [Eh]
	 Total Energy              =    -364.7007001472282468 [Eh]

	 ================> DF-SCS-MP2 Energies <==================
	-----------------------------------------------------------
	 SCS Same-Spin Scale       =       0.3333333333333333 [-]
	 SCS Opposite-Spin Scale   =       1.2000000000000000 [-]
	 SCS Same-Spin Energy      =      -0.1259000150998802 [Eh]
	 SCS Opposite-Spin Energy  =      -1.4971327373303545 [Eh]
	 SCS Correlation Energy    =      -1.6230327524302346 [Eh]
	 SCS Total Energy          =    -364.6984222399168516 [Eh]
	-----------------------------------------------------------

  Dipole Moment: [D]
     X:     4.0824      Y:    -1.0423      Z:     0.8907     Total:     4.3065

*** Psi4 exiting successfully. Buy a developer a beer!
