                               Psi4 1.3.2 release

  ==> Input File <==

--------------------------------------------------------------------------
#psi4
#
memory 32 gb

molecule  {
0 1
  O       -2.5416370     0.0659770    -0.3927070
  N       -0.7122740    -1.2241950    -0.0249760
  C        1.8380290     0.7314390    -0.0343340
  C        1.7187040    -0.7521010    -0.3806110
  C        0.5749500     1.5632640    -0.2598230
  C        0.6409984    -1.5407736     0.4039798
  C       -0.6257670     1.1444980     0.6024810
  C       -1.3868420    -0.0349600     0.0307530
  H        2.6566510     1.1652070    -0.6217190
  H        2.1344690     0.8237010     1.0199600
  H        1.5025340    -0.8781880    -1.4483810
  H        2.6863370    -1.2343500    -0.1898600
  H        0.2863390     1.5300770    -1.3181450
  H        0.8108260     2.6104720    -0.0371320
  H        0.7923570    -2.5718330     0.3164690
  H        0.7525260    -1.2638240     1.4882170
  H       -1.3561390     1.9546950     0.6612310
  H       -0.2921570     0.9237120     1.6255030
  H       -1.2491170    -1.9758090    -0.4428220
units angstrom
no_reorient  #important for SAPT in psi4, default
symmetry c1  #important for SAPT in psi4, default
}

set PROPERTIES_ORIGIN ["COM"]
properties('MP2/aug-cc-pvtz', properties = ['dipole'])
--------------------------------------------------------------------------

    Molecular point group: c1
  Charge       = 0
  Multiplicity = 1
  Basis Set: AUG-CC-PVTZ
    Blend: AUG-CC-PVTZ
  Basis Set: (AUG-CC-PVTZ AUX)
    Blend: AUG-CC-PVTZ-JKFIT

    Orbital Energies [Eh]
    ---------------------

    Doubly Occupied:

       1A    -20.509411     2A    -15.578633     3A    -11.344249
       4A    -11.277025     5A    -11.236561     6A    -11.235879
       7A    -11.235044     8A    -11.233742     9A     -1.363686
      10A     -1.227836    11A     -1.092906    12A     -1.041033
      13A     -0.945851    14A     -0.890946    15A     -0.794000
      16A     -0.763073    17A     -0.688411    18A     -0.679333
      19A     -0.623960    20A     -0.612109    21A     -0.603027
      22A     -0.595489    23A     -0.569677    24A     -0.542604
      25A     -0.521601    26A     -0.512334    27A     -0.481440
      28A     -0.472733    29A     -0.468968    30A     -0.411360
      31A     -0.380147

  @DF-RHF Final Energy:  -363.07264567605739

   => Energetics <=

    Nuclear Repulsion Energy =            393.5449511067035928
    One-Electron Energy =               -1273.3690606562824996
    Two-Electron Energy =                 516.7514638735215158
    Total Energy =                       -363.0726456760573910
  Basis Set: (AUG-CC-PVTZ AUX)
    Blend: AUG-CC-PVTZ-RI
    Molecular point group: c1

    Geometry (in Angstrom), charge = 0, multiplicity = 1:

       Center              X                  Y                   Z               Mass
    ------------   -----------------  -----------------  -----------------  -----------------
         O           -2.464583463399     0.080642715055    -0.381917302512    15.994914619570
         N           -0.635220463399    -1.209529284945    -0.014186302512    14.003074004430
         C            1.915082536601     0.746104715055    -0.023544302512    12.000000000000
         C            1.795757536601    -0.737435284945    -0.369821302512    12.000000000000
         C            0.652003536601     1.577929715055    -0.249033302512    12.000000000000
         C            0.718051936601    -1.526107884945     0.414769497488    12.000000000000
         C           -0.548713463399     1.159163715055     0.613270697488    12.000000000000
         C           -1.309788463399    -0.020294284945     0.041542697488    12.000000000000
         H            2.733704536601     1.179872715055    -0.610929302512     1.007825032230
         H            2.211522536601     0.838366715055     1.030749697488     1.007825032230
         H            1.579587536601    -0.863522284945    -1.437591302512     1.007825032230
         H            2.763390536601    -1.219684284945    -0.179070302512     1.007825032230
         H            0.363392536601     1.544742715055    -1.307355302512     1.007825032230
         H            0.887879536601     2.625137715055    -0.026342302512     1.007825032230
         H            0.869410536601    -2.557167284945     0.327258697488     1.007825032230
         H            0.829579536601    -1.249158284945     1.499006697488     1.007825032230
         H           -1.279085463399     1.969360715055     0.672020697488     1.007825032230
         H           -0.215103463399     0.938377715055     1.636292697488     1.007825032230
         H           -1.172063463399    -1.961143284945    -0.432032302512     1.007825032230

  Basis Set: AUG-CC-PVTZ
    Blend: AUG-CC-PVTZ
  Basis Set: (AUG-CC-PVTZ AUX)
    Blend: AUG-CC-PVTZ-JKFIT
	 Reference Energy          =    -363.0726456760573910 [Eh]
	 Singles Energy            =      -0.0000000000000000 [Eh]
	 Same-Spin Energy          =      -0.3775993576036194 [Eh]
	 Opposite-Spin Energy      =      -1.2476203707976041 [Eh]
	 Correlation Energy        =      -1.6252197284012235 [Eh]
	 Total Energy              =    -364.6978654044586392 [Eh]

	 ================> DF-SCS-MP2 Energies <==================
	-----------------------------------------------------------
	 SCS Same-Spin Scale       =       0.3333333333333333 [-]
	 SCS Opposite-Spin Scale   =       1.2000000000000000 [-]
	 SCS Same-Spin Energy      =      -0.1258664525345398 [Eh]
	 SCS Opposite-Spin Energy  =      -1.4971444449571250 [Eh]
	 SCS Correlation Energy    =      -1.6230108974916648 [Eh]
	 SCS Total Energy          =    -364.6956565735490585 [Eh]
	-----------------------------------------------------------

  Dipole Moment: [D]
     X:     4.0600      Y:    -1.0650      Z:     0.8810     Total:     4.2888

*** Psi4 exiting successfully. Buy a developer a beer!
