                               Psi4 1.3.2 release

  ==> Input File <==

--------------------------------------------------------------------------
#psi4
#
memory 32 gb

molecule  {
0 1
  O       -2.5416370     0.0659770    -0.3927070
  N       -0.7122740    -1.2241950    -0.0249760
  C        1.8380290     0.7314390    -0.0343340
  C        1.7187040    -0.7521010    -0.3806110
  C        0.5749500     1.5632640    -0.2598230
  C        0.6466580    -1.4925250     0.4187290
  C       -0.6257670     1.1444980     0.6024810
  C       -1.3868420    -0.0349600     0.0307530
  H        2.6566510     1.1652070    -0.6217190
  H        2.1344690     0.8237010     1.0199600
  H        1.5025340    -0.8781880    -1.4483810
  H        2.6863370    -1.2343500    -0.1898600
  H        0.2863390     1.5300770    -1.3181450
  H        0.8108260     2.6104720    -0.0371320
  H        0.7923570    -2.5718330     0.3164690
  H        0.7525260    -1.2638240     1.4882170
  H       -1.3561390     1.9546950     0.6612310
  H       -0.2921570     0.9237120     1.6255030
  H       -1.3550277    -2.1240907    -0.5252565
units angstrom
no_reorient  #important for SAPT in psi4, default
symmetry c1  #important for SAPT in psi4, default
}

set PROPERTIES_ORIGIN ["COM"]
properties('MP2/aug-cc-pvtz', properties = ['dipole'])
--------------------------------------------------------------------------

    Molecular point group: c1
  Charge       = 0
  Multiplicity = 1
  Basis Set: AUG-CC-PVTZ
    Blend: AUG-CC-PVTZ
  Basis Set: (AUG-CC-PVTZ AUX)
    Blend: AUG-CC-PVTZ-JKFIT

    Orbital Energies [Eh]
    ---------------------

    Doubly Occupied:

       1A    -20.507067     2A    -15.593154     3A    -11.342245
       4A    -11.276682     5A    -11.236725     6A    -11.235950
       7A    -11.233641     8A    -11.232502     9A     -1.359900
      10A     -1.214529    11A     -1.090267    12A     -1.041448
      13A     -0.938949    14A     -0.886756    15A     -0.793064
      16A     -0.736057    17A     -0.683618    18A     -0.672126
      19A     -0.620343    20A     -0.607103    21A     -0.597346
      22A     -0.590701    23A     -0.567812    24A     -0.539032
      25A     -0.516765    26A     -0.510409    27A     -0.480285
      28A     -0.469201    29A     -0.468230    30A     -0.409325
      31A     -0.379317

  @DF-RHF Final Energy:  -363.04549554002654

   => Energetics <=

    Nuclear Repulsion Energy =            392.9842959537238016
    One-Electron Energy =               -1272.3984869490700476
    Two-Electron Energy =                 516.3686954553196529
    Total Energy =                       -363.0454955400265362
  Basis Set: (AUG-CC-PVTZ AUX)
    Blend: AUG-CC-PVTZ-RI
    Molecular point group: c1

    Geometry (in Angstrom), charge = 0, multiplicity = 1:

       Center              X                  Y                   Z               Mass
    ------------   -----------------  -----------------  -----------------  -----------------
         O           -2.464240141332     0.076844291335    -0.382747754161    15.994914619570
         N           -0.634877141332    -1.213327708665    -0.015016754161    14.003074004430
         C            1.915425858668     0.742306291335    -0.024374754161    12.000000000000
         C            1.796100858668    -0.741233708665    -0.370651754161    12.000000000000
         C            0.652346858668     1.574131291335    -0.249863754161    12.000000000000
         C            0.724054858668    -1.481657708665     0.428688245839    12.000000000000
         C           -0.548370141332     1.155365291335     0.612440245839    12.000000000000
         C           -1.309445141332    -0.024092708665     0.040712245839    12.000000000000
         H            2.734047858668     1.176074291335    -0.611759754161     1.007825032230
         H            2.211865858668     0.834568291335     1.029919245839     1.007825032230
         H            1.579930858668    -0.867320708665    -1.438421754161     1.007825032230
         H            2.763733858668    -1.223482708665    -0.179900754161     1.007825032230
         H            0.363735858668     1.540944291335    -1.308185754161     1.007825032230
         H            0.888222858668     2.621339291335    -0.027172754161     1.007825032230
         H            0.869753858668    -2.560965708665     0.326428245839     1.007825032230
         H            0.829922858668    -1.252956708665     1.498176245839     1.007825032230
         H           -1.278742141332     1.965562291335     0.671190245839     1.007825032230
         H           -0.214760141332     0.934579291335     1.635462245839     1.007825032230
         H           -1.277630841332    -2.113223408665    -0.515297254161     1.007825032230

  Basis Set: AUG-CC-PVTZ
    Blend: AUG-CC-PVTZ
  Basis Set: (AUG-CC-PVTZ AUX)
    Blend: AUG-CC-PVTZ-JKFIT
	 Reference Energy          =    -363.0454955400265362 [Eh]
	 Singles Energy            =      -0.0000000000000000 [Eh]
	 Same-Spin Energy          =      -0.3793954296808927 [Eh]
	 Opposite-Spin Energy      =      -1.2519719942470360 [Eh]
	 Correlation Energy        =      -1.6313674239279288 [Eh]
	 Total Energy              =    -364.6768629639544770 [Eh]

	 ================> DF-SCS-MP2 Energies <==================
	-----------------------------------------------------------
	 SCS Same-Spin Scale       =       0.3333333333333333 [-]
	 SCS Opposite-Spin Scale   =       1.2000000000000000 [-]
	 SCS Same-Spin Energy      =      -0.1264651432269642 [Eh]
	 SCS Opposite-Spin Energy  =      -1.5023663930964430 [Eh]
	 SCS Correlation Energy    =      -1.6288315363234074 [Eh]
	 SCS Total Energy          =    -364.6743270763499254 [Eh]
	-----------------------------------------------------------

  Dipole Moment: [D]
     X:     4.0049      Y:    -1.1588      Z:     0.8353     Total:     4.2521

*** Psi4 exiting successfully. Buy a developer a beer!
