                               Psi4 1.4a3.dev225

  ==> Input File <==

--------------------------------------------------------------------------
#psi4
#
memory 32 gb

molecule  {
0 1
  O       -2.5416370     0.0659770    -0.3927070
  N       -0.7122740    -1.2241950    -0.0249760
  C        1.8380290     0.7314390    -0.0343340
  C        1.7187040    -0.7521010    -0.3806110
  C        0.5749500     1.5632640    -0.2598230
  C        0.6466580    -1.4925250     0.4187290
  C       -0.6257670     1.1444980     0.6024810
  C       -1.3868420    -0.0349600     0.0307530
  H        2.6566510     1.1652070    -0.6217190
  H        2.1344690     0.8237010     1.0199600
  H        1.5025340    -0.8781880    -1.4483810
  H        2.6863370    -1.2343500    -0.1898600
  H        0.2863390     1.5300770    -1.3181450
  H        0.8108260     2.6104720    -0.0371320
  H        0.7896931    -2.5520996     0.3183387
  H        0.7525260    -1.2638240     1.4882170
  H       -1.3561390     1.9546950     0.6612310
  H       -0.2921570     0.9237120     1.6255030
  H       -1.2491170    -1.9758090    -0.4428220
units angstrom
no_reorient  #important for SAPT in psi4, default
symmetry c1  #important for SAPT in psi4, default
}

set PROPERTIES_ORIGIN ["COM"]
properties('MP2/aug-cc-pvtz', properties = ['dipole'])
--------------------------------------------------------------------------

    Molecular point group: c1
  Charge       = 0
  Multiplicity = 1
  Basis Set: AUG-CC-PVTZ
    Blend: AUG-CC-PVTZ
  Basis Set: (AUG-CC-PVTZ AUX)
    Blend: AUG-CC-PVTZ-JKFIT

    Orbital Energies [Eh]
    ---------------------

    Doubly Occupied:

       1A    -20.508961     2A    -15.578515     3A    -11.342910
       4A    -11.274902     5A    -11.236567     6A    -11.235864
       7A    -11.234219     8A    -11.232918     9A     -1.363359
      10A     -1.228356    11A     -1.093863    12A     -1.042597
      13A     -0.946104    14A     -0.889235    15A     -0.795448
      16A     -0.763939    17A     -0.688239    18A     -0.677748
      19A     -0.626082    20A     -0.612312    21A     -0.602113
      22A     -0.592949    23A     -0.569990    24A     -0.545195
      25A     -0.519888    26A     -0.515687    27A     -0.481270
      28A     -0.470442    29A     -0.469837    30A     -0.410539
      31A     -0.382645

  @DF-RHF Final Energy:  -363.07557656997153

   => Energetics <=

    Nuclear Repulsion Energy =            394.1922888061286017
    One-Electron Energy =               -1274.6703439018756399
    Two-Electron Energy =                 517.4024785257755639
    Total Energy =                       -363.0755765699715312
  Basis Set: (AUG-CC-PVTZ AUX)
    Blend: AUG-CC-PVTZ-RI
    Molecular point group: c1

    Geometry (in Angstrom), charge = 0, multiplicity = 1:

       Center              X                  Y                   Z               Mass
    ------------   -----------------  -----------------  -----------------  -----------------
         O           -2.465160294940     0.075346911266    -0.383499087992    15.994914619570
         N           -0.635797294940    -1.214825088734    -0.015768087992    14.003074004430
         C            1.914505705060     0.740808911266    -0.025126087992    12.000000000000
         C            1.795180705060    -0.742731088734    -0.371403087992    12.000000000000
         C            0.651426705060     1.572633911266    -0.250615087992    12.000000000000
         C            0.723134705060    -1.483155088734     0.427936912008    12.000000000000
         C           -0.549290294940     1.153867911266     0.611688912008    12.000000000000
         C           -1.310365294940    -0.025590088734     0.039960912008    12.000000000000
         H            2.733127705060     1.174576911266    -0.612511087992     1.007825032230
         H            2.210945705060     0.833070911266     1.029167912008     1.007825032230
         H            1.579010705060    -0.868818088734    -1.439173087992     1.007825032230
         H            2.762813705060    -1.224980088734    -0.180652087992     1.007825032230
         H            0.362815705060     1.539446911266    -1.308937087992     1.007825032230
         H            0.887302705060     2.619841911266    -0.027924087992     1.007825032230
         H            0.866169805060    -2.542729688734     0.327546612008     1.007825032230
         H            0.829002705060    -1.254454088734     1.497424912008     1.007825032230
         H           -1.279662294940     1.964064911266     0.670438912008     1.007825032230
         H           -0.215680294940     0.933081911266     1.634710912008     1.007825032230
         H           -1.172640294940    -1.966439088734    -0.433614087992     1.007825032230

  Basis Set: AUG-CC-PVTZ
    Blend: AUG-CC-PVTZ
  Basis Set: (AUG-CC-PVTZ AUX)
    Blend: AUG-CC-PVTZ-JKFIT
	 Reference Energy          =    -363.0755765699715312 [Eh]
	 Singles Energy            =      -0.0000000000000000 [Eh]
	 Same-Spin Energy          =      -0.3777076173513332 [Eh]
	 Opposite-Spin Energy      =      -1.2475102722262106 [Eh]
	 Correlation Energy        =      -1.6252178895775438 [Eh]
	 Total Energy              =    -364.7007944595490585 [Eh]

	 ================> DF-SCS-MP2 Energies <==================
	-----------------------------------------------------------
	 SCS Same-Spin Scale       =       0.3333333333333333 [-]
	 SCS Opposite-Spin Scale   =       1.2000000000000000 [-]
	 SCS Same-Spin Energy      =      -0.1259025391171111 [Eh]
	 SCS Opposite-Spin Energy  =      -1.4970123266714526 [Eh]
	 SCS Correlation Energy    =      -1.6229148657885637 [Eh]
	 SCS Total Energy          =    -364.6984914357601042 [Eh]
	-----------------------------------------------------------

  Dipole Moment: [D]
     X:     4.0742      Y:    -1.0481      Z:     0.8977     Total:     4.3016

*** Psi4 exiting successfully. Buy a developer a beer!
