                               Psi4 1.4a3.dev225

  ==> Input File <==

--------------------------------------------------------------------------
#psi4
#
memory 32 gb

molecule  {
0 1
  O       -2.5416370     0.0659770    -0.3927070
  N       -0.7122740    -1.2241950    -0.0249760
  C        1.8380290     0.7314390    -0.0343340
  C        1.7187040    -0.7521010    -0.3806110
  C        0.5749500     1.5632640    -0.2598230
  C        0.6466580    -1.4925250     0.4187290
  C       -0.6257670     1.1444980     0.6024810
  C       -1.3868420    -0.0349600     0.0307530
  H        2.6566510     1.1652070    -0.6217190
  H        2.1344690     0.8237010     1.0199600
  H        1.5025340    -0.8781880    -1.4483810
  H        2.6863370    -1.2343500    -0.1898600
  H        0.2863390     1.5300770    -1.3181450
  H        0.8108260     2.6104720    -0.0371320
  H        0.7923570    -2.5718330     0.3164690
  H        0.7525260    -1.2638240     1.4882170
  H       -1.3227090     1.9176113     0.6585419
  H       -0.2921570     0.9237120     1.6255030
  H       -1.2491170    -1.9758090    -0.4428220
units angstrom
no_reorient  #important for SAPT in psi4, default
symmetry c1  #important for SAPT in psi4, default
}

set PROPERTIES_ORIGIN ["COM"]
properties('MP2/aug-cc-pvtz', properties = ['dipole'])
--------------------------------------------------------------------------

    Molecular point group: c1
  Charge       = 0
  Multiplicity = 1
  Basis Set: AUG-CC-PVTZ
    Blend: AUG-CC-PVTZ
  Basis Set: (AUG-CC-PVTZ AUX)
    Blend: AUG-CC-PVTZ-JKFIT

    Orbital Energies [Eh]
    ---------------------

    Doubly Occupied:

       1A    -20.509184     2A    -15.578387     3A    -11.342771
       4A    -11.277146     5A    -11.236293     6A    -11.234200
       7A    -11.232843     8A    -11.230348     9A     -1.363545
      10A     -1.228054    11A     -1.094452    12A     -1.043586
      13A     -0.947306    14A     -0.888479    15A     -0.795300
      16A     -0.767153    17A     -0.687772    18A     -0.676928
      19A     -0.626565    20A     -0.611877    21A     -0.602947
      22A     -0.592286    23A     -0.574376    24A     -0.545340
      25A     -0.520551    26A     -0.515626    27A     -0.481304
      28A     -0.472347    29A     -0.469312    30A     -0.410502
      31A     -0.382658

  @DF-RHF Final Energy:  -363.07464868064170

   => Energetics <=

    Nuclear Repulsion Energy =            394.3517701401523254
    One-Electron Energy =               -1274.9739581152309711
    Two-Electron Energy =                 517.5475392944368878
    Total Energy =                       -363.0746486806417579
  Basis Set: (AUG-CC-PVTZ AUX)
    Blend: AUG-CC-PVTZ-RI
    Molecular point group: c1

    Geometry (in Angstrom), charge = 0, multiplicity = 1:

       Center              X                  Y                   Z               Mass
    ------------   -----------------  -----------------  -----------------  -----------------
         O           -2.465481970114     0.075853275236    -0.383458459166    15.994914619570
         N           -0.636118970114    -1.214318724764    -0.015727459166    14.003074004430
         C            1.914184029886     0.741315275236    -0.025085459166    12.000000000000
         C            1.794859029886    -0.742224724764    -0.371362459166    12.000000000000
         C            0.651105029886     1.573140275236    -0.250574459166    12.000000000000
         C            0.722813029886    -1.482648724764     0.427977540834    12.000000000000
         C           -0.549611970114     1.154374275236     0.611729540834    12.000000000000
         C           -1.310686970114    -0.025083724764     0.040001540834    12.000000000000
         H            2.732806029886     1.175083275236    -0.612470459166     1.007825032230
         H            2.210624029886     0.833577275236     1.029208540834     1.007825032230
         H            1.578689029886    -0.868311724764    -1.439132459166     1.007825032230
         H            2.762492029886    -1.224473724764    -0.180611459166     1.007825032230
         H            0.362494029886     1.539953275236    -1.308896459166     1.007825032230
         H            0.886981029886     2.620348275236    -0.027883459166     1.007825032230
         H            0.868512029886    -2.561956724764     0.325717540834     1.007825032230
         H            0.828681029886    -1.253947724764     1.497465540834     1.007825032230
         H           -1.246553970114     1.927487575236     0.667790440834     1.007825032230
         H           -0.216001970114     0.933588275236     1.634751540834     1.007825032230
         H           -1.172961970114    -1.965932724764    -0.433573459166     1.007825032230

  Basis Set: AUG-CC-PVTZ
    Blend: AUG-CC-PVTZ
  Basis Set: (AUG-CC-PVTZ AUX)
    Blend: AUG-CC-PVTZ-JKFIT
	 Reference Energy          =    -363.0746486806417010 [Eh]
	 Singles Energy            =      -0.0000000000000000 [Eh]
	 Same-Spin Energy          =      -0.3776761533040801 [Eh]
	 Opposite-Spin Energy      =      -1.2472973672932244 [Eh]
	 Correlation Energy        =      -1.6249735205973044 [Eh]
	 Total Energy              =    -364.6996222012389808 [Eh]

	 ================> DF-SCS-MP2 Energies <==================
	-----------------------------------------------------------
	 SCS Same-Spin Scale       =       0.3333333333333333 [-]
	 SCS Opposite-Spin Scale   =       1.2000000000000000 [-]
	 SCS Same-Spin Energy      =      -0.1258920511013600 [Eh]
	 SCS Opposite-Spin Energy  =      -1.4967568407518692 [Eh]
	 SCS Correlation Energy    =      -1.6226488918532291 [Eh]
	 SCS Total Energy          =    -364.6972975724949038 [Eh]
	-----------------------------------------------------------

  Dipole Moment: [D]
     X:     4.0636      Y:    -1.0257      Z:     0.9030     Total:     4.2872

*** Psi4 exiting successfully. Buy a developer a beer!
