                               Psi4 1.3.2 release

  ==> Input File <==

--------------------------------------------------------------------------
#psi4
#
memory 32 gb

molecule  {
0 1
  O       -2.5416370     0.0659770    -0.3927070
  N       -0.6935755    -1.1932826    -0.0606451
  C        1.8380290     0.7314390    -0.0343340
  C        1.7187040    -0.7521010    -0.3806110
  C        0.5749500     1.5632640    -0.2598230
  C        0.6466580    -1.4925250     0.4187290
  C       -0.6257670     1.1444980     0.6024810
  C       -1.3868420    -0.0349600     0.0307530
  H        2.6566510     1.1652070    -0.6217190
  H        2.1344690     0.8237010     1.0199600
  H        1.5025340    -0.8781880    -1.4483810
  H        2.6863370    -1.2343500    -0.1898600
  H        0.2863390     1.5300770    -1.3181450
  H        0.8108260     2.6104720    -0.0371320
  H        0.7923570    -2.5718330     0.3164690
  H        0.7525260    -1.2638240     1.4882170
  H       -1.3561390     1.9546950     0.6612310
  H       -0.2921570     0.9237120     1.6255030
  H       -1.2491170    -1.9758090    -0.4428220
units angstrom
no_reorient  #important for SAPT in psi4, default
symmetry c1  #important for SAPT in psi4, default
}

set PROPERTIES_ORIGIN ["COM"]
properties('MP2/aug-cc-pvtz', properties = ['dipole'])
--------------------------------------------------------------------------

    Molecular point group: c1
  Charge       = 0
  Multiplicity = 1
  Basis Set: AUG-CC-PVTZ
    Blend: AUG-CC-PVTZ
  Basis Set: (AUG-CC-PVTZ AUX)
    Blend: AUG-CC-PVTZ-JKFIT

    Orbital Energies [Eh]
    ---------------------

    Doubly Occupied:

       1A    -20.507066     2A    -15.581030     3A    -11.341048
       4A    -11.278564     5A    -11.235954     6A    -11.234784
       7A    -11.233832     8A    -11.232747     9A     -1.363398
      10A     -1.230709    11A     -1.093167    12A     -1.043128
      13A     -0.945215    14A     -0.889259    15A     -0.794726
      16A     -0.762280    17A     -0.691059    18A     -0.676214
      19A     -0.624349    20A     -0.611185    21A     -0.602438
      22A     -0.592833    23A     -0.570499    24A     -0.542078
      25A     -0.518938    26A     -0.515684    27A     -0.480915
      28A     -0.469917    29A     -0.469276    30A     -0.409928
      31A     -0.383305

  @DF-RHF Final Energy:  -363.07425767136999

   => Energetics <=

    Nuclear Repulsion Energy =            394.6447534041017775
    One-Electron Energy =               -1275.5869773364242974
    Two-Electron Energy =                 517.8679662609525849
    Total Energy =                       -363.0742576713699918
  Basis Set: (AUG-CC-PVTZ AUX)
    Blend: AUG-CC-PVTZ-RI
    Molecular point group: c1

    Geometry (in Angstrom), charge = 0, multiplicity = 1:

       Center              X                  Y                   Z               Mass
    ------------   -----------------  -----------------  -----------------  -----------------
         O           -2.467499450566     0.071694930643    -0.379065559873    15.994914619570
         N           -0.619437950566    -1.187564669357    -0.047003659873    14.003074004430
         C            1.912166549434     0.737156930643    -0.020692559873    12.000000000000
         C            1.792841549434    -0.746383069357    -0.366969559873    12.000000000000
         C            0.649087549434     1.568981930643    -0.246181559873    12.000000000000
         C            0.720795549434    -1.486807069357     0.432370440127    12.000000000000
         C           -0.551629450566     1.150215930643     0.616122440127    12.000000000000
         C           -1.312704450566    -0.029242069357     0.044394440127    12.000000000000
         H            2.730788549434     1.170924930643    -0.608077559873     1.007825032230
         H            2.208606549434     0.829418930643     1.033601440127     1.007825032230
         H            1.576671549434    -0.872470069357    -1.434739559873     1.007825032230
         H            2.760474549434    -1.228632069357    -0.176218559873     1.007825032230
         H            0.360476549434     1.535794930643    -1.304503559873     1.007825032230
         H            0.884963549434     2.616189930643    -0.023490559873     1.007825032230
         H            0.866494549434    -2.566115069357     0.330110440127     1.007825032230
         H            0.826663549434    -1.258106069357     1.501858440127     1.007825032230
         H           -1.282001450566     1.960412930643     0.674872440127     1.007825032230
         H           -0.218019450566     0.929429930643     1.639144440127     1.007825032230
         H           -1.174979450566    -1.970091069357    -0.429180559873     1.007825032230

  Basis Set: AUG-CC-PVTZ
    Blend: AUG-CC-PVTZ
  Basis Set: (AUG-CC-PVTZ AUX)
    Blend: AUG-CC-PVTZ-JKFIT
	 Reference Energy          =    -363.0742576713699918 [Eh]
	 Singles Energy            =      -0.0000000000000000 [Eh]
	 Same-Spin Energy          =      -0.3779332012768202 [Eh]
	 Opposite-Spin Energy      =      -1.2479506103751912 [Eh]
	 Correlation Energy        =      -1.6258838116520113 [Eh]
	 Total Energy              =    -364.7001414830219801 [Eh]

	 ================> DF-SCS-MP2 Energies <==================
	-----------------------------------------------------------
	 SCS Same-Spin Scale       =       0.3333333333333333 [-]
	 SCS Opposite-Spin Scale   =       1.2000000000000000 [-]
	 SCS Same-Spin Energy      =      -0.1259777337589401 [Eh]
	 SCS Opposite-Spin Energy  =      -1.4975407324502295 [Eh]
	 SCS Correlation Energy    =      -1.6235184662091695 [Eh]
	 SCS Total Energy          =    -364.6977761375791829 [Eh]
	-----------------------------------------------------------

  Dipole Moment: [D]
     X:     4.0847      Y:    -1.1397      Z:     0.9765     Total:     4.3517

*** Psi4 exiting successfully. Buy a developer a beer!
