                               Psi4 1.3.2 release

  ==> Input File <==

--------------------------------------------------------------------------
#psi4
#
memory 32 gb

molecule  {
0 1
  O       -2.5416370     0.0659770    -0.3927070
  N       -0.7122740    -1.2241950    -0.0249760
  C        1.8380290     0.7314390    -0.0343340
  C        1.7187040    -0.7521010    -0.3806110
  C        0.5749500     1.5632640    -0.2598230
  C        0.6466580    -1.4925250     0.4187290
  C       -0.6257670     1.1444980     0.6024810
  C       -1.3868420    -0.0349600     0.0307530
  H        2.6566510     1.1652070    -0.6217190
  H        2.1344690     0.8237010     1.0199600
  H        1.5025340    -0.8781880    -1.4483810
  H        2.6863370    -1.2343500    -0.1898600
  H        0.2863390     1.5300770    -1.3181450
  H        0.8108260     2.6104720    -0.0371320
  H        0.7923570    -2.5718330     0.3164690
  H        0.7525260    -1.2638240     1.4882170
  H       -1.3580628     1.9541112     0.6422718
  H       -0.2921570     0.9237120     1.6255030
  H       -1.2491170    -1.9758090    -0.4428220
units angstrom
no_reorient  #important for SAPT in psi4, default
symmetry c1  #important for SAPT in psi4, default
}

set PROPERTIES_ORIGIN ["COM"]
properties('MP2/aug-cc-pvtz', properties = ['dipole'])
--------------------------------------------------------------------------

    Molecular point group: c1
  Charge       = 0
  Multiplicity = 1
  Basis Set: AUG-CC-PVTZ
    Blend: AUG-CC-PVTZ
  Basis Set: (AUG-CC-PVTZ AUX)
    Blend: AUG-CC-PVTZ-JKFIT

    Orbital Energies [Eh]
    ---------------------

    Doubly Occupied:

       1A    -20.509110     2A    -15.578627     3A    -11.342962
       4A    -11.277365     5A    -11.236599     6A    -11.235942
       7A    -11.234355     8A    -11.232991     9A     -1.363510
      10A     -1.228259    11A     -1.093998    12A     -1.042252
      13A     -0.945414    14A     -0.888528    15A     -0.795446
      16A     -0.763701    17A     -0.687871    18A     -0.677060
      19A     -0.626058    20A     -0.612032    21A     -0.602292
      22A     -0.591686    23A     -0.569889    24A     -0.545127
      25A     -0.519783    26A     -0.515836    27A     -0.481278
      28A     -0.470090    29A     -0.469542    30A     -0.410652
      31A     -0.382766

  @DF-RHF Final Energy:  -363.07544145071927

   => Energetics <=

    Nuclear Repulsion Energy =            394.1047527918263995
    One-Electron Energy =               -1274.4983481997871877
    Two-Electron Energy =                 517.3181539572415204
    Total Energy =                       -363.0754414507192678
  Basis Set: (AUG-CC-PVTZ AUX)
    Blend: AUG-CC-PVTZ-RI
    Molecular point group: c1

    Geometry (in Angstrom), charge = 0, multiplicity = 1:

       Center              X                  Y                   Z               Mass
    ------------   -----------------  -----------------  -----------------  -----------------
         O           -2.465166890842     0.075527981719    -0.383313457178    15.994914619570
         N           -0.635803890842    -1.214644018281    -0.015582457178    14.003074004430
         C            1.914499109158     0.740989981719    -0.024940457178    12.000000000000
         C            1.795174109158    -0.742550018281    -0.371217457178    12.000000000000
         C            0.651420109158     1.572814981719    -0.250429457178    12.000000000000
         C            0.723128109158    -1.482974018281     0.428122542822    12.000000000000
         C           -0.549296890842     1.154048981719     0.611874542822    12.000000000000
         C           -1.310371890842    -0.025409018281     0.040146542822    12.000000000000
         H            2.733121109158     1.174757981719    -0.612325457178     1.007825032230
         H            2.210939109158     0.833251981719     1.029353542822     1.007825032230
         H            1.579004109158    -0.868637018281    -1.438987457178     1.007825032230
         H            2.762807109158    -1.224799018281    -0.180466457178     1.007825032230
         H            0.362809109158     1.539627981719    -1.308751457178     1.007825032230
         H            0.887296109158     2.620022981719    -0.027738457178     1.007825032230
         H            0.868827109158    -2.562282018281     0.325862542822     1.007825032230
         H            0.828996109158    -1.254273018281     1.497610542822     1.007825032230
         H           -1.281592690842     1.963662181719     0.651665342822     1.007825032230
         H           -0.215686890842     0.933262981719     1.634896542822     1.007825032230
         H           -1.172646890842    -1.966258018281    -0.433428457178     1.007825032230

  Basis Set: AUG-CC-PVTZ
    Blend: AUG-CC-PVTZ
  Basis Set: (AUG-CC-PVTZ AUX)
    Blend: AUG-CC-PVTZ-JKFIT
	 Reference Energy          =    -363.0754414507192678 [Eh]
	 Singles Energy            =      -0.0000000000000000 [Eh]
	 Same-Spin Energy          =      -0.3777354149557854 [Eh]
	 Opposite-Spin Energy      =      -1.2476766888594166 [Eh]
	 Correlation Energy        =      -1.6254121038152021 [Eh]
	 Total Energy              =    -364.7008535545344898 [Eh]

	 ================> DF-SCS-MP2 Energies <==================
	-----------------------------------------------------------
	 SCS Same-Spin Scale       =       0.3333333333333333 [-]
	 SCS Opposite-Spin Scale   =       1.2000000000000000 [-]
	 SCS Same-Spin Energy      =      -0.1259118049852618 [Eh]
	 SCS Opposite-Spin Energy  =      -1.4972120266312998 [Eh]
	 SCS Correlation Energy    =      -1.6231238316165617 [Eh]
	 SCS Total Energy          =    -364.6985652823358350 [Eh]
	-----------------------------------------------------------

  Dipole Moment: [D]
     X:     4.0717      Y:    -1.0381      Z:     0.8893     Total:     4.2951

*** Psi4 exiting successfully. Buy a developer a beer!
