                               Psi4 1.3.2 release

  ==> Input File <==

--------------------------------------------------------------------------
#psi4
#
memory 32 gb

molecule  {
0 1
  O       -2.5416370     0.0659770    -0.3927070
  N       -0.6848093    -1.0776169     0.0056705
  C        1.8380290     0.7314390    -0.0343340
  C        1.7187040    -0.7521010    -0.3806110
  C        0.5749500     1.5632640    -0.2598230
  C        0.6466580    -1.4925250     0.4187290
  C       -0.6257670     1.1444980     0.6024810
  C       -1.3868420    -0.0349600     0.0307530
  H        2.6566510     1.1652070    -0.6217190
  H        2.1344690     0.8237010     1.0199600
  H        1.5025340    -0.8781880    -1.4483810
  H        2.6863370    -1.2343500    -0.1898600
  H        0.2863390     1.5300770    -1.3181450
  H        0.8108260     2.6104720    -0.0371320
  H        0.7923570    -2.5718330     0.3164690
  H        0.7525260    -1.2638240     1.4882170
  H       -1.3561390     1.9546950     0.6612310
  H       -0.2921570     0.9237120     1.6255030
  H       -1.2491170    -1.9758090    -0.4428220
units angstrom
no_reorient  #important for SAPT in psi4, default
symmetry c1  #important for SAPT in psi4, default
}

set PROPERTIES_ORIGIN ["COM"]
properties('MP2/aug-cc-pvtz', properties = ['dipole'])
--------------------------------------------------------------------------

    Molecular point group: c1
  Charge       = 0
  Multiplicity = 1
  Basis Set: AUG-CC-PVTZ
    Blend: AUG-CC-PVTZ
  Basis Set: (AUG-CC-PVTZ AUX)
    Blend: AUG-CC-PVTZ-JKFIT

    Orbital Energies [Eh]
    ---------------------

    Doubly Occupied:

       1A    -20.492379     2A    -15.594976     3A    -11.326602
       4A    -11.288377     5A    -11.238311     6A    -11.234140
       7A    -11.233499     8A    -11.227069     9A     -1.365016
      10A     -1.247133    11A     -1.093953    12A     -1.051320
      13A     -0.948610    14A     -0.897627    15A     -0.797198
      16A     -0.750987    17A     -0.700910    18A     -0.672634
      19A     -0.630267    20A     -0.612158    21A     -0.601844
      22A     -0.595082    23A     -0.569620    24A     -0.536750
      25A     -0.521391    26A     -0.504618    27A     -0.481797
      28A     -0.471355    29A     -0.464641    30A     -0.401364
      31A     -0.385536

  @DF-RHF Final Energy:  -363.04340984548492

   => Energetics <=

    Nuclear Repulsion Energy =            396.9724207201171566
    One-Electron Energy =               -1280.1573353438670893
    Two-Electron Energy =                 520.1415047782650163
    Total Energy =                       -363.0434098454849163
  Basis Set: (AUG-CC-PVTZ AUX)
    Blend: AUG-CC-PVTZ-RI
    Molecular point group: c1

    Geometry (in Angstrom), charge = 0, multiplicity = 1:

       Center              X                  Y                   Z               Mass
    ------------   -----------------  -----------------  -----------------  -----------------
         O           -2.468584959372     0.057372175519    -0.387277346944    15.994914619570
         N           -0.611757259372    -1.086221724481     0.011100153056    14.003074004430
         C            1.911081040628     0.722834175519    -0.028904346944    12.000000000000
         C            1.791756040628    -0.760705824481    -0.375181346944    12.000000000000
         C            0.648002040628     1.554659175519    -0.254393346944    12.000000000000
         C            0.719710040628    -1.501129824481     0.424158653056    12.000000000000
         C           -0.552714959372     1.135893175519     0.607910653056    12.000000000000
         C           -1.313789959372    -0.043564824481     0.036182653056    12.000000000000
         H            2.729703040628     1.156602175519    -0.616289346944     1.007825032230
         H            2.207521040628     0.815096175519     1.025389653056     1.007825032230
         H            1.575586040628    -0.886792824481    -1.442951346944     1.007825032230
         H            2.759389040628    -1.242954824481    -0.184430346944     1.007825032230
         H            0.359391040628     1.521472175519    -1.312715346944     1.007825032230
         H            0.883878040628     2.601867175519    -0.031702346944     1.007825032230
         H            0.865409040628    -2.580437824481     0.321898653056     1.007825032230
         H            0.825578040628    -1.272428824481     1.493646653056     1.007825032230
         H           -1.283086959372     1.946090175519     0.666660653056     1.007825032230
         H           -0.219104959372     0.915107175519     1.630932653056     1.007825032230
         H           -1.176064959372    -1.984413824481    -0.437392346944     1.007825032230

  Basis Set: AUG-CC-PVTZ
    Blend: AUG-CC-PVTZ
  Basis Set: (AUG-CC-PVTZ AUX)
    Blend: AUG-CC-PVTZ-JKFIT
	 Reference Energy          =    -363.0434098454849163 [Eh]
	 Singles Energy            =      -0.0000000000000000 [Eh]
	 Same-Spin Energy          =      -0.3792644695127779 [Eh]
	 Opposite-Spin Energy      =      -1.2501941455890244 [Eh]
	 Correlation Energy        =      -1.6294586151018025 [Eh]
	 Total Energy              =    -364.6728684605866988 [Eh]

	 ================> DF-SCS-MP2 Energies <==================
	-----------------------------------------------------------
	 SCS Same-Spin Scale       =       0.3333333333333333 [-]
	 SCS Opposite-Spin Scale   =       1.2000000000000000 [-]
	 SCS Same-Spin Energy      =      -0.1264214898375926 [Eh]
	 SCS Opposite-Spin Energy  =      -1.5002329747068293 [Eh]
	 SCS Correlation Energy    =      -1.6266544645444219 [Eh]
	 SCS Total Energy          =    -364.6700643100293178 [Eh]
	-----------------------------------------------------------

  Dipole Moment: [D]
     X:     4.5341      Y:    -1.5786      Z:     0.9640     Total:     4.8969

*** Psi4 exiting successfully. Buy a developer a beer!
