                               Psi4 1.3.2 release

  ==> Input File <==

--------------------------------------------------------------------------
#psi4
#
memory 32 gb

molecule  {
0 1
  O       -2.5416370     0.0659770    -0.3927070
  N       -0.7122740    -1.2241950    -0.0249760
  C        1.8380290     0.7314390    -0.0343340
  C        1.7187040    -0.7521010    -0.3806110
  C        0.5749500     1.5632640    -0.2598230
  C        0.6466580    -1.4925250     0.4187290
  C       -0.6257670     1.1444980     0.6024810
  C       -1.1996977    -0.0513177     0.0993783
  H        2.6566510     1.1652070    -0.6217190
  H        2.1344690     0.8237010     1.0199600
  H        1.5025340    -0.8781880    -1.4483810
  H        2.6863370    -1.2343500    -0.1898600
  H        0.2863390     1.5300770    -1.3181450
  H        0.8108260     2.6104720    -0.0371320
  H        0.7923570    -2.5718330     0.3164690
  H        0.7525260    -1.2638240     1.4882170
  H       -1.3561390     1.9546950     0.6612310
  H       -0.2921570     0.9237120     1.6255030
  H       -1.2491170    -1.9758090    -0.4428220
units angstrom
no_reorient  #important for SAPT in psi4, default
symmetry c1  #important for SAPT in psi4, default
}

set PROPERTIES_ORIGIN ["COM"]
properties('MP2/aug-cc-pvtz', properties = ['dipole'])
--------------------------------------------------------------------------

    Molecular point group: c1
  Charge       = 0
  Multiplicity = 1
  Basis Set: AUG-CC-PVTZ
    Blend: AUG-CC-PVTZ
  Basis Set: (AUG-CC-PVTZ AUX)
    Blend: AUG-CC-PVTZ-JKFIT

    Orbital Energies [Eh]
    ---------------------

    Doubly Occupied:

       1A    -20.470335     2A    -15.608325     3A    -11.343211
       4A    -11.287527     5A    -11.245181     6A    -11.243871
       7A    -11.242162     8A    -11.241121     9A     -1.324394
      10A     -1.191549    11A     -1.110182    12A     -1.057636
      13A     -0.966621    14A     -0.906866    15A     -0.809714
      16A     -0.798160    17A     -0.701326    18A     -0.679875
      19A     -0.644323    20A     -0.622355    21A     -0.613528
      22A     -0.589800    23A     -0.569444    24A     -0.536447
      25A     -0.521453    26A     -0.490779    27A     -0.483049
      28A     -0.473178    29A     -0.459115    30A     -0.379765
      31A     -0.359274

  @DF-RHF Final Energy:  -363.01193116243388

   => Energetics <=

    Nuclear Repulsion Energy =            395.2342757677341751
    One-Electron Energy =               -1276.5512845786711296
    Two-Electron Energy =                 518.3050776485031292
    Total Energy =                       -363.0119311624338252
  Basis Set: (AUG-CC-PVTZ AUX)
    Blend: AUG-CC-PVTZ-RI
    Molecular point group: c1

    Geometry (in Angstrom), charge = 0, multiplicity = 1:

       Center              X                  Y                   Z               Mass
    ------------   -----------------  -----------------  -----------------  -----------------
         O           -2.485042993404     0.077258588357    -0.390764649917    15.994914619570
         N           -0.655679993404    -1.212913411643    -0.023033649917    14.003074004430
         C            1.894623006596     0.742720588357    -0.032391649917    12.000000000000
         C            1.775298006596    -0.740819411643    -0.378668649917    12.000000000000
         C            0.631544006596     1.574545588357    -0.257880649917    12.000000000000
         C            0.703252006596    -1.481243411643     0.420671350083    12.000000000000
         C           -0.569172993404     1.155779588357     0.604423350083    12.000000000000
         C           -1.143103693404    -0.040036111643     0.101320650083    12.000000000000
         H            2.713245006596     1.176488588357    -0.619776649917     1.007825032230
         H            2.191063006596     0.834982588357     1.021902350083     1.007825032230
         H            1.559128006596    -0.866906411643    -1.446438649917     1.007825032230
         H            2.742931006596    -1.223068411643    -0.187917649917     1.007825032230
         H            0.342933006596     1.541358588357    -1.316202649917     1.007825032230
         H            0.867420006596     2.621753588357    -0.035189649917     1.007825032230
         H            0.848951006596    -2.560551411643     0.318411350083     1.007825032230
         H            0.809120006596    -1.252542411643     1.490159350083     1.007825032230
         H           -1.299544993404     1.965976588357     0.663173350083     1.007825032230
         H           -0.235562993404     0.934993588357     1.627445350083     1.007825032230
         H           -1.192522993404    -1.964527411643    -0.440879649917     1.007825032230

  Basis Set: AUG-CC-PVTZ
    Blend: AUG-CC-PVTZ
  Basis Set: (AUG-CC-PVTZ AUX)
    Blend: AUG-CC-PVTZ-JKFIT
	 Reference Energy          =    -363.0119311624338820 [Eh]
	 Singles Energy            =      -0.0000000000000000 [Eh]
	 Same-Spin Energy          =      -0.3822774590626045 [Eh]
	 Opposite-Spin Energy      =      -1.2561555824447994 [Eh]
	 Correlation Energy        =      -1.6384330415074038 [Eh]
	 Total Energy              =    -364.6503642039413080 [Eh]

	 ================> DF-SCS-MP2 Energies <==================
	-----------------------------------------------------------
	 SCS Same-Spin Scale       =       0.3333333333333333 [-]
	 SCS Opposite-Spin Scale   =       1.2000000000000000 [-]
	 SCS Same-Spin Energy      =      -0.1274258196875348 [Eh]
	 SCS Opposite-Spin Energy  =      -1.5073866989337592 [Eh]
	 SCS Correlation Energy    =      -1.6348125186212941 [Eh]
	 SCS Total Energy          =    -364.6467436810551703 [Eh]
	-----------------------------------------------------------

  Dipole Moment: [D]
     X:     5.4810      Y:    -1.4311      Z:     1.2206     Total:     5.7948

*** Psi4 exiting successfully. Buy a developer a beer!
