                               Psi4 1.4a3.dev225

  ==> Input File <==

--------------------------------------------------------------------------
#psi4
#
memory 32 gb

molecule  {
0 1
  O       -2.5416370     0.0659770    -0.3927070
  N       -0.7122740    -1.2241950    -0.0249760
  C        1.8380290     0.7314390    -0.0343340
  C        1.7187040    -0.7521010    -0.3806110
  C        0.5749500     1.5632640    -0.2598230
  C        0.6466580    -1.4925250     0.4187290
  C       -0.6257670     1.1444980     0.6024810
  C       -1.3868420    -0.0349600     0.0307530
  H        2.6566510     1.1652070    -0.6217190
  H        2.1344690     0.8237010     1.0199600
  H        1.5025340    -0.8781880    -1.4483810
  H        2.6863370    -1.2343500    -0.1898600
  H        0.2863390     1.5300770    -1.3181450
  H        0.8108260     2.6104720    -0.0371320
  H        0.7923570    -2.5718330     0.3164690
  H        0.7525260    -1.2638240     1.4882170
  H       -1.3427670     1.9398615     0.6601554
  H       -0.2921570     0.9237120     1.6255030
  H       -1.2491170    -1.9758090    -0.4428220
units angstrom
no_reorient  #important for SAPT in psi4, default
symmetry c1  #important for SAPT in psi4, default
}

set PROPERTIES_ORIGIN ["COM"]
properties('MP2/aug-cc-pvtz', properties = ['dipole'])
--------------------------------------------------------------------------

    Molecular point group: c1
  Charge       = 0
  Multiplicity = 1
  Basis Set: AUG-CC-PVTZ
    Blend: AUG-CC-PVTZ
  Basis Set: (AUG-CC-PVTZ AUX)
    Blend: AUG-CC-PVTZ-JKFIT

    Orbital Energies [Eh]
    ---------------------

    Doubly Occupied:

       1A    -20.509110     2A    -15.578554     3A    -11.342926
       4A    -11.277259     5A    -11.236442     6A    -11.234295
       7A    -11.233804     8A    -11.232960     9A     -1.363490
      10A     -1.228179    11A     -1.094141    12A     -1.042712
      13A     -0.946131    14A     -0.888513    15A     -0.795387
      16A     -0.765226    17A     -0.687842    18A     -0.676877
      19A     -0.626332    20A     -0.611855    21A     -0.602255
      22A     -0.591998    23A     -0.571809    24A     -0.545257
      25A     -0.519883    26A     -0.515716    27A     -0.481260
      28A     -0.471299    29A     -0.469406    30A     -0.410554
      31A     -0.382718

  @DF-RHF Final Energy:  -363.07557584199196

   => Energetics <=

    Nuclear Repulsion Energy =            394.1910756332592882
    One-Electron Energy =               -1274.6649213677765147
    Two-Electron Energy =                 517.3982698925252635
    Total Energy =                       -363.0755758419919630
  Basis Set: (AUG-CC-PVTZ AUX)
    Blend: AUG-CC-PVTZ-RI
    Molecular point group: c1

    Geometry (in Angstrom), charge = 0, multiplicity = 1:

       Center              X                  Y                   Z               Mass
    ------------   -----------------  -----------------  -----------------  -----------------
         O           -2.465303209697     0.075654977548    -0.383472838961    15.994914619570
         N           -0.635940209697    -1.214517022452    -0.015741838961    14.003074004430
         C            1.914362790303     0.741116977548    -0.025099838961    12.000000000000
         C            1.795037790303    -0.742423022452    -0.371376838961    12.000000000000
         C            0.651283790303     1.572941977548    -0.250588838961    12.000000000000
         C            0.722991790303    -1.482847022452     0.427963161039    12.000000000000
         C           -0.549433209697     1.154175977548     0.611715161039    12.000000000000
         C           -1.310508209697    -0.025282022452     0.039987161039    12.000000000000
         H            2.732984790303     1.174884977548    -0.612484838961     1.007825032230
         H            2.210802790303     0.833378977548     1.029194161039     1.007825032230
         H            1.578867790303    -0.868510022452    -1.439146838961     1.007825032230
         H            2.762670790303    -1.224672022452    -0.180625838961     1.007825032230
         H            0.362672790303     1.539754977548    -1.308910838961     1.007825032230
         H            0.887159790303     2.620149977548    -0.027897838961     1.007825032230
         H            0.868690790303    -2.562155022452     0.325703161039     1.007825032230
         H            0.828859790303    -1.254146022452     1.497451161039     1.007825032230
         H           -1.266433209697     1.949539477548     0.669389561039     1.007825032230
         H           -0.215823209697     0.933389977548     1.634737161039     1.007825032230
         H           -1.172783209697    -1.966131022452    -0.433587838961     1.007825032230

  Basis Set: AUG-CC-PVTZ
    Blend: AUG-CC-PVTZ
  Basis Set: (AUG-CC-PVTZ AUX)
    Blend: AUG-CC-PVTZ-JKFIT
	 Reference Energy          =    -363.0755758419919630 [Eh]
	 Singles Energy            =      -0.0000000000000000 [Eh]
	 Same-Spin Energy          =      -0.3777038311197227 [Eh]
	 Opposite-Spin Energy      =      -1.2475074871048268 [Eh]
	 Correlation Energy        =      -1.6252113182245496 [Eh]
	 Total Energy              =    -364.7007871602165210 [Eh]

	 ================> DF-SCS-MP2 Energies <==================
	-----------------------------------------------------------
	 SCS Same-Spin Scale       =       0.3333333333333333 [-]
	 SCS Opposite-Spin Scale   =       1.2000000000000000 [-]
	 SCS Same-Spin Energy      =      -0.1259012770399076 [Eh]
	 SCS Opposite-Spin Energy  =      -1.4970089845257921 [Eh]
	 SCS Correlation Energy    =      -1.6229102615656996 [Eh]
	 SCS Total Energy          =    -364.6984861035576841 [Eh]
	-----------------------------------------------------------

  Dipole Moment: [D]
     X:     4.0686      Y:    -1.0317      Z:     0.8989     Total:     4.2925

*** Psi4 exiting successfully. Buy a developer a beer!
