                               Psi4 1.3.2 release

  ==> Input File <==

--------------------------------------------------------------------------
#psi4
#
memory 32 gb

molecule  {
0 1
  O       -2.5416370     0.0659770    -0.3927070
  N       -0.7122740    -1.2241950    -0.0249760
  C        1.8380290     0.7314390    -0.0343340
  C        1.7187040    -0.7521010    -0.3806110
  C        0.5749500     1.5632640    -0.2598230
  C        0.6466580    -1.4925250     0.4187290
  C       -0.6257670     1.1444980     0.6024810
  C       -1.3868420    -0.0349600     0.0307530
  H        2.6566510     1.1652070    -0.6217190
  H        2.1344690     0.8237010     1.0199600
  H        1.6024669    -0.9341847    -1.4558294
  H        2.6863370    -1.2343500    -0.1898600
  H        0.2863390     1.5300770    -1.3181450
  H        0.8108260     2.6104720    -0.0371320
  H        0.7923570    -2.5718330     0.3164690
  H        0.7525260    -1.2638240     1.4882170
  H       -1.3561390     1.9546950     0.6612310
  H       -0.2921570     0.9237120     1.6255030
  H       -1.2491170    -1.9758090    -0.4428220
units angstrom
no_reorient  #important for SAPT in psi4, default
symmetry c1  #important for SAPT in psi4, default
}

set PROPERTIES_ORIGIN ["COM"]
properties('MP2/aug-cc-pvtz', properties = ['dipole'])
--------------------------------------------------------------------------

    Molecular point group: c1
  Charge       = 0
  Multiplicity = 1
  Basis Set: AUG-CC-PVTZ
    Blend: AUG-CC-PVTZ
  Basis Set: (AUG-CC-PVTZ AUX)
    Blend: AUG-CC-PVTZ-JKFIT

    Orbital Energies [Eh]
    ---------------------

    Doubly Occupied:

       1A    -20.508825     2A    -15.578359     3A    -11.342821
       4A    -11.278038     5A    -11.236473     6A    -11.235825
       7A    -11.234274     8A    -11.233615     9A     -1.363216
      10A     -1.227944    11A     -1.093626    12A     -1.042022
      13A     -0.945437    14A     -0.889090    15A     -0.796708
      16A     -0.764097    17A     -0.685993    18A     -0.676797
      19A     -0.628256    20A     -0.611160    21A     -0.600729
      22A     -0.591000    23A     -0.569627    24A     -0.546120
      25A     -0.519278    26A     -0.514614    27A     -0.481384
      28A     -0.470680    29A     -0.468743    30A     -0.410369
      31A     -0.382646

  @DF-RHF Final Energy:  -363.07431877777310

   => Energetics <=

    Nuclear Repulsion Energy =            393.8845618316270247
    One-Electron Energy =               -1274.0622254470995358
    Two-Electron Energy =                 517.1033448376994102
    Total Energy =                       -363.0743187777731009
  Basis Set: (AUG-CC-PVTZ AUX)
    Blend: AUG-CC-PVTZ-RI
    Molecular point group: c1

    Geometry (in Angstrom), charge = 0, multiplicity = 1:

       Center              X                  Y                   Z               Mass
    ------------   -----------------  -----------------  -----------------  -----------------
         O           -2.466074655635     0.076021831213    -0.383416043449    15.994914619570
         N           -0.636711655635    -1.214150168787    -0.015685043449    14.003074004430
         C            1.913591344365     0.741483831213    -0.025043043449    12.000000000000
         C            1.794266344365    -0.742056168787    -0.371320043449    12.000000000000
         C            0.650512344365     1.573308831213    -0.250532043449    12.000000000000
         C            0.722220344365    -1.482480168787     0.428019956551    12.000000000000
         C           -0.550204655635     1.154542831213     0.611771956551    12.000000000000
         C           -1.311279655635    -0.024915168787     0.040043956551    12.000000000000
         H            2.732213344365     1.175251831213    -0.612428043449     1.007825032230
         H            2.210031344365     0.833745831213     1.029250956551     1.007825032230
         H            1.678029244365    -0.924139868787    -1.446538443449     1.007825032230
         H            2.761899344365    -1.224305168787    -0.180569043449     1.007825032230
         H            0.361901344365     1.540121831213    -1.308854043449     1.007825032230
         H            0.886388344365     2.620516831213    -0.027841043449     1.007825032230
         H            0.867919344365    -2.561788168787     0.325759956551     1.007825032230
         H            0.828088344365    -1.253779168787     1.497507956551     1.007825032230
         H           -1.280576655635     1.964739831213     0.670521956551     1.007825032230
         H           -0.216594655635     0.933756831213     1.634793956551     1.007825032230
         H           -1.173554655635    -1.965764168787    -0.433531043449     1.007825032230

  Basis Set: AUG-CC-PVTZ
    Blend: AUG-CC-PVTZ
  Basis Set: (AUG-CC-PVTZ AUX)
    Blend: AUG-CC-PVTZ-JKFIT
	 Reference Energy          =    -363.0743187777731009 [Eh]
	 Singles Energy            =      -0.0000000000000000 [Eh]
	 Same-Spin Energy          =      -0.3776990965363304 [Eh]
	 Opposite-Spin Energy      =      -1.2475804029876871 [Eh]
	 Correlation Energy        =      -1.6252794995240176 [Eh]
	 Total Energy              =    -364.6995982772971274 [Eh]

	 ================> DF-SCS-MP2 Energies <==================
	-----------------------------------------------------------
	 SCS Same-Spin Scale       =       0.3333333333333333 [-]
	 SCS Opposite-Spin Scale   =       1.2000000000000000 [-]
	 SCS Same-Spin Energy      =      -0.1258996988454434 [Eh]
	 SCS Opposite-Spin Energy  =      -1.4970964835852245 [Eh]
	 SCS Correlation Energy    =      -1.6229961824306680 [Eh]
	 SCS Total Energy          =    -364.6973149602037552 [Eh]
	-----------------------------------------------------------

  Dipole Moment: [D]
     X:     4.1045      Y:    -1.0548      Z:     0.8819     Total:     4.3286

*** Psi4 exiting successfully. Buy a developer a beer!
