                               Psi4 1.4a3.dev225

  ==> Input File <==

--------------------------------------------------------------------------
#psi4
#
memory 32 gb

molecule  {
0 1
  O       -2.5416370     0.0659770    -0.3927070
  N       -0.7122740    -1.2241950    -0.0249760
  C        1.8380290     0.7314390    -0.0343340
  C        1.7187040    -0.7521010    -0.3806110
  C        0.5749500     1.5632640    -0.2598230
  C        0.6466580    -1.4925250     0.4187290
  C       -0.6257670     1.1444980     0.6024810
  C       -1.3868420    -0.0349600     0.0307530
  H        2.6566510     1.1652070    -0.6217190
  H        2.1344690     0.8237010     1.0199600
  H        1.4985918    -0.8804874    -1.4678533
  H        2.6863370    -1.2343500    -0.1898600
  H        0.2863390     1.5300770    -1.3181450
  H        0.8108260     2.6104720    -0.0371320
  H        0.7923570    -2.5718330     0.3164690
  H        0.7525260    -1.2638240     1.4882170
  H       -1.3561390     1.9546950     0.6612310
  H       -0.2921570     0.9237120     1.6255030
  H       -1.2491170    -1.9758090    -0.4428220
units angstrom
no_reorient  #important for SAPT in psi4, default
symmetry c1  #important for SAPT in psi4, default
}

set PROPERTIES_ORIGIN ["COM"]
properties('MP2/aug-cc-pvtz', properties = ['dipole'])
--------------------------------------------------------------------------

    Molecular point group: c1
  Charge       = 0
  Multiplicity = 1
  Basis Set: AUG-CC-PVTZ
    Blend: AUG-CC-PVTZ
  Basis Set: (AUG-CC-PVTZ AUX)
    Blend: AUG-CC-PVTZ-JKFIT

    Orbital Energies [Eh]
    ---------------------

    Doubly Occupied:

       1A    -20.509074     2A    -15.578670     3A    -11.343054
       4A    -11.277572     5A    -11.236771     6A    -11.236695
       7A    -11.236001     8A    -11.233327     9A     -1.363465
      10A     -1.228258    11A     -1.093810    12A     -1.041788
      13A     -0.945502    14A     -0.888063    15A     -0.794191
      16A     -0.764013    17A     -0.687620    18A     -0.676916
      19A     -0.626111    20A     -0.611448    21A     -0.601593
      22A     -0.591812    23A     -0.570142    24A     -0.545246
      25A     -0.519421    26A     -0.514372    27A     -0.480297
      28A     -0.470642    29A     -0.469604    30A     -0.410609
      31A     -0.382830

  @DF-RHF Final Energy:  -363.07497188718946

   => Energetics <=

    Nuclear Repulsion Energy =            393.9956369045502242
    One-Electron Energy =               -1274.2833821026601981
    Two-Electron Energy =                 517.2127733109205110
    Total Energy =                       -363.0749718871894629
  Basis Set: (AUG-CC-PVTZ AUX)
    Blend: AUG-CC-PVTZ-RI
    Molecular point group: c1

    Geometry (in Angstrom), charge = 0, multiplicity = 1:

       Center              X                  Y                   Z               Mass
    ------------   -----------------  -----------------  -----------------  -----------------
         O           -2.465148902506     0.075543271448    -0.383308884341    15.994914619570
         N           -0.635785902506    -1.214628728552    -0.015577884341    14.003074004430
         C            1.914517097494     0.741005271448    -0.024935884341    12.000000000000
         C            1.795192097494    -0.742534728552    -0.371212884341    12.000000000000
         C            0.651438097494     1.572830271448    -0.250424884341    12.000000000000
         C            0.723146097494    -1.482958728552     0.428127115659    12.000000000000
         C           -0.549278902506     1.154064271448     0.611879115659    12.000000000000
         C           -1.310353902506    -0.025393728552     0.040151115659    12.000000000000
         H            2.733139097494     1.174773271448    -0.612320884341     1.007825032230
         H            2.210957097494     0.833267271448     1.029358115659     1.007825032230
         H            1.575079897494    -0.870921128552    -1.458455184341     1.007825032230
         H            2.762825097494    -1.224783728552    -0.180461884341     1.007825032230
         H            0.362827097494     1.539643271448    -1.308746884341     1.007825032230
         H            0.887314097494     2.620038271448    -0.027733884341     1.007825032230
         H            0.868845097494    -2.562266728552     0.325867115659     1.007825032230
         H            0.829014097494    -1.254257728552     1.497615115659     1.007825032230
         H           -1.279650902506     1.964261271448     0.670629115659     1.007825032230
         H           -0.215668902506     0.933278271448     1.634901115659     1.007825032230
         H           -1.172628902506    -1.966242728552    -0.433423884341     1.007825032230

  Basis Set: AUG-CC-PVTZ
    Blend: AUG-CC-PVTZ
  Basis Set: (AUG-CC-PVTZ AUX)
    Blend: AUG-CC-PVTZ-JKFIT
	 Reference Energy          =    -363.0749718871894629 [Eh]
	 Singles Energy            =      -0.0000000000000000 [Eh]
	 Same-Spin Energy          =      -0.3777333890264326 [Eh]
	 Opposite-Spin Energy      =      -1.2477975256480318 [Eh]
	 Correlation Energy        =      -1.6255309146744643 [Eh]
	 Total Energy              =    -364.7005028018639337 [Eh]

	 ================> DF-SCS-MP2 Energies <==================
	-----------------------------------------------------------
	 SCS Same-Spin Scale       =       0.3333333333333333 [-]
	 SCS Opposite-Spin Scale   =       1.2000000000000000 [-]
	 SCS Same-Spin Energy      =      -0.1259111296754775 [Eh]
	 SCS Opposite-Spin Energy  =      -1.4973570307776380 [Eh]
	 SCS Correlation Energy    =      -1.6232681604531156 [Eh]
	 SCS Total Energy          =    -364.6982400476425710 [Eh]
	-----------------------------------------------------------

  Dipole Moment: [D]
     X:     4.0724      Y:    -1.0327      Z:     0.9078     Total:     4.2983

*** Psi4 exiting successfully. Buy a developer a beer!
