                               Psi4 1.4a3.dev225

  ==> Input File <==

--------------------------------------------------------------------------
#psi4
#
memory 32 gb

molecule  {
0 1
  O       -2.5416370     0.0659770    -0.3927070
  N       -0.7122740    -1.2241950    -0.0249760
  C        1.8380290     0.7314390    -0.0343340
  C        1.7187040    -0.7521010    -0.3806110
  C        0.5749500     1.5632640    -0.2598230
  C        0.6817255    -1.4683051     0.3925819
  C       -0.6257670     1.1444980     0.6024810
  C       -1.3868420    -0.0349600     0.0307530
  H        2.6566510     1.1652070    -0.6217190
  H        2.1344690     0.8237010     1.0199600
  H        1.5025340    -0.8781880    -1.4483810
  H        2.6863370    -1.2343500    -0.1898600
  H        0.2863390     1.5300770    -1.3181450
  H        0.8108260     2.6104720    -0.0371320
  H        0.7923570    -2.5718330     0.3164690
  H        0.7525260    -1.2638240     1.4882170
  H       -1.3561390     1.9546950     0.6612310
  H       -0.2921570     0.9237120     1.6255030
  H       -1.2491170    -1.9758090    -0.4428220
units angstrom
no_reorient  #important for SAPT in psi4, default
symmetry c1  #important for SAPT in psi4, default
}

set PROPERTIES_ORIGIN ["COM"]
properties('MP2/aug-cc-pvtz', properties = ['dipole'])
--------------------------------------------------------------------------

    Molecular point group: c1
  Charge       = 0
  Multiplicity = 1
  Basis Set: AUG-CC-PVTZ
    Blend: AUG-CC-PVTZ
  Basis Set: (AUG-CC-PVTZ AUX)
    Blend: AUG-CC-PVTZ-JKFIT

    Orbital Energies [Eh]
    ---------------------

    Doubly Occupied:

       1A    -20.508037     2A    -15.577995     3A    -11.341723
       4A    -11.279891     5A    -11.236955     6A    -11.235691
       7A    -11.234058     8A    -11.233332     9A     -1.362259
      10A     -1.224462    11A     -1.096646    12A     -1.047337
      13A     -0.946904    14A     -0.885833    15A     -0.796594
      16A     -0.762350    17A     -0.686026    18A     -0.675906
      19A     -0.628072    20A     -0.613193    21A     -0.600541
      22A     -0.589510    23A     -0.569175    24A     -0.550899
      25A     -0.518117    26A     -0.512530    27A     -0.481159
      28A     -0.473137    29A     -0.468150    30A     -0.409287
      31A     -0.384623

  @DF-RHF Final Energy:  -363.07240327442008

   => Energetics <=

    Nuclear Repulsion Energy =            394.4072208809039921
    One-Electron Energy =               -1275.0984652757897493
    Two-Electron Energy =                 517.6188411204656177
    Total Energy =                       -363.0724032744201395
  Basis Set: (AUG-CC-PVTZ AUX)
    Blend: AUG-CC-PVTZ-RI
    Molecular point group: c1

    Geometry (in Angstrom), charge = 0, multiplicity = 1:

       Center              X                  Y                   Z               Mass
    ------------   -----------------  -----------------  -----------------  -----------------
         O           -2.468905250067     0.072952665994    -0.380707805831    15.994914619570
         N           -0.639542250067    -1.217219334006    -0.012976805831    14.003074004430
         C            1.910760749933     0.738414665994    -0.022334805831    12.000000000000
         C            1.791435749933    -0.745125334006    -0.368611805831    12.000000000000
         C            0.647681749933     1.570239665994    -0.247823805831    12.000000000000
         C            0.754457249933    -1.461329434006     0.404581094169    12.000000000000
         C           -0.553035250067     1.151473665994     0.614480194169    12.000000000000
         C           -1.314110250067    -0.027984334006     0.042752194169    12.000000000000
         H            2.729382749933     1.172182665994    -0.609719805831     1.007825032230
         H            2.207200749933     0.830676665994     1.031959194169     1.007825032230
         H            1.575265749933    -0.871212334006    -1.436381805831     1.007825032230
         H            2.759068749933    -1.227374334006    -0.177860805831     1.007825032230
         H            0.359070749933     1.537052665994    -1.306145805831     1.007825032230
         H            0.883557749933     2.617447665994    -0.025132805831     1.007825032230
         H            0.865088749933    -2.564857334006     0.328468194169     1.007825032230
         H            0.825257749933    -1.256848334006     1.500216194169     1.007825032230
         H           -1.283407250067     1.961670665994     0.673230194169     1.007825032230
         H           -0.219425250067     0.930687665994     1.637502194169     1.007825032230
         H           -1.176385250067    -1.968833334006    -0.430822805831     1.007825032230

  Basis Set: AUG-CC-PVTZ
    Blend: AUG-CC-PVTZ
  Basis Set: (AUG-CC-PVTZ AUX)
    Blend: AUG-CC-PVTZ-JKFIT
	 Reference Energy          =    -363.0724032744200827 [Eh]
	 Singles Energy            =      -0.0000000000000000 [Eh]
	 Same-Spin Energy          =      -0.3780793981773584 [Eh]
	 Opposite-Spin Energy      =      -1.2481740524991924 [Eh]
	 Correlation Energy        =      -1.6262534506765509 [Eh]
	 Total Energy              =    -364.6986567250966118 [Eh]

	 ================> DF-SCS-MP2 Energies <==================
	-----------------------------------------------------------
	 SCS Same-Spin Scale       =       0.3333333333333333 [-]
	 SCS Opposite-Spin Scale   =       1.2000000000000000 [-]
	 SCS Same-Spin Energy      =      -0.1260264660591194 [Eh]
	 SCS Opposite-Spin Energy  =      -1.4978088629990309 [Eh]
	 SCS Correlation Energy    =      -1.6238353290581504 [Eh]
	 SCS Total Energy          =    -364.6962386034782071 [Eh]
	-----------------------------------------------------------

  Dipole Moment: [D]
     X:     4.1615      Y:    -1.0165      Z:     0.8643     Total:     4.3702

*** Psi4 exiting successfully. Buy a developer a beer!
