                               Psi4 1.3.2 release

  ==> Input File <==

--------------------------------------------------------------------------
#psi4
#
memory 32 gb

molecule  {
0 1
  O       -2.5416370     0.0659770    -0.3927070
  N       -0.7248499    -1.3737129    -0.0507612
  C        1.8380290     0.7314390    -0.0343340
  C        1.7187040    -0.7521010    -0.3806110
  C        0.5749500     1.5632640    -0.2598230
  C        0.6466580    -1.4925250     0.4187290
  C       -0.6257670     1.1444980     0.6024810
  C       -1.3868420    -0.0349600     0.0307530
  H        2.6566510     1.1652070    -0.6217190
  H        2.1344690     0.8237010     1.0199600
  H        1.5025340    -0.8781880    -1.4483810
  H        2.6863370    -1.2343500    -0.1898600
  H        0.2863390     1.5300770    -1.3181450
  H        0.8108260     2.6104720    -0.0371320
  H        0.7923570    -2.5718330     0.3164690
  H        0.7525260    -1.2638240     1.4882170
  H       -1.3561390     1.9546950     0.6612310
  H       -0.2921570     0.9237120     1.6255030
  H       -1.2491170    -1.9758090    -0.4428220
units angstrom
no_reorient  #important for SAPT in psi4, default
symmetry c1  #important for SAPT in psi4, default
}

set PROPERTIES_ORIGIN ["COM"]
properties('MP2/aug-cc-pvtz', properties = ['dipole'])
--------------------------------------------------------------------------

    Molecular point group: c1
  Charge       = 0
  Multiplicity = 1
  Basis Set: AUG-CC-PVTZ
    Blend: AUG-CC-PVTZ
  Basis Set: (AUG-CC-PVTZ AUX)
    Blend: AUG-CC-PVTZ-JKFIT

    Orbital Energies [Eh]
    ---------------------

    Doubly Occupied:

       1A    -20.526260     2A    -15.561363     3A    -11.357240
       4A    -11.271385     5A    -11.245001     6A    -11.239588
       7A    -11.233253     8A    -11.231871     9A     -1.367409
      10A     -1.215853    11A     -1.097622    12A     -1.037554
      13A     -0.950679    14A     -0.877603    15A     -0.799955
      16A     -0.769311    17A     -0.680496    18A     -0.679515
      19A     -0.631512    20A     -0.614972    21A     -0.600980
      22A     -0.587819    23A     -0.565251    24A     -0.556738
      25A     -0.520969    26A     -0.513156    27A     -0.481371
      28A     -0.473875    29A     -0.467265    30A     -0.413051
      31A     -0.380143

  @DF-RHF Final Energy:  -363.04275351996114

   => Energetics <=

    Nuclear Repulsion Energy =            391.4045607218201326
    One-Electron Energy =               -1268.9965072875504575
    Two-Electron Energy =                 514.5491930457691296
    Total Energy =                       -363.0427535199611384
  Basis Set: (AUG-CC-PVTZ AUX)
    Blend: AUG-CC-PVTZ-RI
    Molecular point group: c1

    Geometry (in Angstrom), charge = 0, multiplicity = 1:

       Center              X                  Y                   Z               Mass
    ------------   -----------------  -----------------  -----------------  -----------------
         O           -2.463626776360     0.094037414232    -0.380289472229    15.994914619570
         N           -0.646839676360    -1.345652485768    -0.038343672229    14.003074004430
         C            1.916039223640     0.759499414232    -0.021916472229    12.000000000000
         C            1.796714223640    -0.724040585768    -0.368193472229    12.000000000000
         C            0.652960223640     1.591324414232    -0.247405472229    12.000000000000
         C            0.724668223640    -1.464464585768     0.431146527771    12.000000000000
         C           -0.547756776360     1.172558414232     0.614898527771    12.000000000000
         C           -1.308831776360    -0.006899585768     0.043170527771    12.000000000000
         H            2.734661223640     1.193267414232    -0.609301472229     1.007825032230
         H            2.212479223640     0.851761414232     1.032377527771     1.007825032230
         H            1.580544223640    -0.850127585768    -1.435963472229     1.007825032230
         H            2.764347223640    -1.206289585768    -0.177442472229     1.007825032230
         H            0.364349223640     1.558137414232    -1.305727472229     1.007825032230
         H            0.888836223640     2.638532414232    -0.024714472229     1.007825032230
         H            0.870367223640    -2.543772585768     0.328886527771     1.007825032230
         H            0.830536223640    -1.235763585768     1.500634527771     1.007825032230
         H           -1.278128776360     1.982755414232     0.673648527771     1.007825032230
         H           -0.214146776360     0.951772414232     1.637920527771     1.007825032230
         H           -1.171106776360    -1.947748585768    -0.430404472229     1.007825032230

  Basis Set: AUG-CC-PVTZ
    Blend: AUG-CC-PVTZ
  Basis Set: (AUG-CC-PVTZ AUX)
    Blend: AUG-CC-PVTZ-JKFIT
	 Reference Energy          =    -363.0427535199611384 [Eh]
	 Singles Energy            =      -0.0000000000000000 [Eh]
	 Same-Spin Energy          =      -0.3773616158432214 [Eh]
	 Opposite-Spin Energy      =      -1.2485940198168324 [Eh]
	 Correlation Energy        =      -1.6259556356600537 [Eh]
	 Total Energy              =    -364.6687091556211726 [Eh]

	 ================> DF-SCS-MP2 Energies <==================
	-----------------------------------------------------------
	 SCS Same-Spin Scale       =       0.3333333333333333 [-]
	 SCS Opposite-Spin Scale   =       1.2000000000000000 [-]
	 SCS Same-Spin Energy      =      -0.1257872052810738 [Eh]
	 SCS Opposite-Spin Energy  =      -1.4983128237801988 [Eh]
	 SCS Correlation Energy    =      -1.6241000290612726 [Eh]
	 SCS Total Energy          =    -364.6668535490223917 [Eh]
	-----------------------------------------------------------

  Dipole Moment: [D]
     X:     3.6910      Y:    -0.3778      Z:     0.8589     Total:     3.8084

*** Psi4 exiting successfully. Buy a developer a beer!
