                               Psi4 1.3.2 release

  ==> Input File <==

--------------------------------------------------------------------------
#psi4
#
memory 32 gb

molecule  {
0 1
  O       -2.5416370     0.0659770    -0.3927070
  N       -0.7122740    -1.2241950    -0.0249760
  C        1.8380290     0.7314390    -0.0343340
  C        1.7187040    -0.7521010    -0.3806110
  C        0.5749500     1.5632640    -0.2598230
  C        0.6466580    -1.4925250     0.4187290
  C       -0.6257670     1.1444980     0.6024810
  C       -1.4965744    -0.1029189    -0.0313363
  H        2.6566510     1.1652070    -0.6217190
  H        2.1344690     0.8237010     1.0199600
  H        1.5025340    -0.8781880    -1.4483810
  H        2.6863370    -1.2343500    -0.1898600
  H        0.2863390     1.5300770    -1.3181450
  H        0.8108260     2.6104720    -0.0371320
  H        0.7923570    -2.5718330     0.3164690
  H        0.7525260    -1.2638240     1.4882170
  H       -1.3561390     1.9546950     0.6612310
  H       -0.2921570     0.9237120     1.6255030
  H       -1.2491170    -1.9758090    -0.4428220
units angstrom
no_reorient  #important for SAPT in psi4, default
symmetry c1  #important for SAPT in psi4, default
}

set PROPERTIES_ORIGIN ["COM"]
properties('MP2/aug-cc-pvtz', properties = ['dipole'])
--------------------------------------------------------------------------

    Molecular point group: c1
  Charge       = 0
  Multiplicity = 1
  Basis Set: AUG-CC-PVTZ
    Blend: AUG-CC-PVTZ
  Basis Set: (AUG-CC-PVTZ AUX)
    Blend: AUG-CC-PVTZ-JKFIT

    Orbital Energies [Eh]
    ---------------------

    Doubly Occupied:

       1A    -20.527015     2A    -15.572091     3A    -11.336864
       4A    -11.277900     5A    -11.230796     6A    -11.227376
       7A    -11.226711     8A    -11.223521     9A     -1.446800
      10A     -1.233243    11A     -1.085550    12A     -1.027469
      13A     -0.933755    14A     -0.875522    15A     -0.788003
      16A     -0.750806    17A     -0.694282    18A     -0.683527
      19A     -0.633299    20A     -0.613607    21A     -0.605170
      22A     -0.596037    23A     -0.577337    24A     -0.552220
      25A     -0.535775    26A     -0.512212    27A     -0.475595
      28A     -0.471007    29A     -0.461993    30A     -0.393042
      31A     -0.387118

  @DF-RHF Final Energy:  -363.05251326292523

   => Energetics <=

    Nuclear Repulsion Energy =            394.0519138304470061
    One-Electron Energy =               -1274.2975678458983566
    Two-Electron Energy =                 517.1931407525261193
    Total Energy =                       -363.0525132629252312
  Basis Set: (AUG-CC-PVTZ AUX)
    Blend: AUG-CC-PVTZ-RI
    Molecular point group: c1

    Geometry (in Angstrom), charge = 0, multiplicity = 1:

       Center              X                  Y                   Z               Mass
    ------------   -----------------  -----------------  -----------------  -----------------
         O           -2.453539700414     0.082734288276    -0.376893772405    15.994914619570
         N           -0.624176700414    -1.207437711724    -0.009162772405    14.003074004430
         C            1.926126299586     0.748196288276    -0.018520772405    12.000000000000
         C            1.806801299586    -0.735343711724    -0.364797772405    12.000000000000
         C            0.663047299586     1.580021288276    -0.244009772405    12.000000000000
         C            0.734755299586    -1.475767711724     0.434542227595    12.000000000000
         C           -0.537669700414     1.161255288276     0.618294227595    12.000000000000
         C           -1.408477100414    -0.086161611724    -0.015523072405    12.000000000000
         H            2.744748299586     1.181964288276    -0.605905772405     1.007825032230
         H            2.222566299586     0.840458288276     1.035773227595     1.007825032230
         H            1.590631299586    -0.861430711724    -1.432567772405     1.007825032230
         H            2.774434299586    -1.217592711724    -0.174046772405     1.007825032230
         H            0.374436299586     1.546834288276    -1.302331772405     1.007825032230
         H            0.898923299586     2.627229288276    -0.021318772405     1.007825032230
         H            0.880454299586    -2.555075711724     0.332282227595     1.007825032230
         H            0.840623299586    -1.247066711724     1.504030227595     1.007825032230
         H           -1.268041700414     1.971452288276     0.677044227595     1.007825032230
         H           -0.204059700414     0.940469288276     1.641316227595     1.007825032230
         H           -1.161019700414    -1.959051711724    -0.427008772405     1.007825032230

  Basis Set: AUG-CC-PVTZ
    Blend: AUG-CC-PVTZ
  Basis Set: (AUG-CC-PVTZ AUX)
    Blend: AUG-CC-PVTZ-JKFIT
	 Reference Energy          =    -363.0525132629252312 [Eh]
	 Singles Energy            =      -0.0000000000000000 [Eh]
	 Same-Spin Energy          =      -0.3755168321773384 [Eh]
	 Opposite-Spin Energy      =      -1.2434617484587971 [Eh]
	 Correlation Energy        =      -1.6189785806361354 [Eh]
	 Total Energy              =    -364.6714918435613413 [Eh]

	 ================> DF-SCS-MP2 Energies <==================
	-----------------------------------------------------------
	 SCS Same-Spin Scale       =       0.3333333333333333 [-]
	 SCS Opposite-Spin Scale   =       1.2000000000000000 [-]
	 SCS Same-Spin Energy      =      -0.1251722773924461 [Eh]
	 SCS Opposite-Spin Energy  =      -1.4921540981505566 [Eh]
	 SCS Correlation Energy    =      -1.6173263755430027 [Eh]
	 SCS Total Energy          =    -364.6698396384682610 [Eh]
	-----------------------------------------------------------

  Dipole Moment: [D]
     X:     3.2414      Y:    -1.3003      Z:     0.5924     Total:     3.5424

*** Psi4 exiting successfully. Buy a developer a beer!
