                               Psi4 1.3.2 release

  ==> Input File <==

--------------------------------------------------------------------------
#psi4
#
memory 32 gb

molecule  {
0 1
  O       -2.5416370     0.0659770    -0.3927070
  N       -0.6732441    -1.1627347    -0.0957301
  C        1.8380290     0.7314390    -0.0343340
  C        1.7187040    -0.7521010    -0.3806110
  C        0.5749500     1.5632640    -0.2598230
  C        0.6466580    -1.4925250     0.4187290
  C       -0.6257670     1.1444980     0.6024810
  C       -1.3868420    -0.0349600     0.0307530
  H        2.6566510     1.1652070    -0.6217190
  H        2.1344690     0.8237010     1.0199600
  H        1.5025340    -0.8781880    -1.4483810
  H        2.6863370    -1.2343500    -0.1898600
  H        0.2863390     1.5300770    -1.3181450
  H        0.8108260     2.6104720    -0.0371320
  H        0.7923570    -2.5718330     0.3164690
  H        0.7525260    -1.2638240     1.4882170
  H       -1.3561390     1.9546950     0.6612310
  H       -0.2921570     0.9237120     1.6255030
  H       -1.2491170    -1.9758090    -0.4428220
units angstrom
no_reorient  #important for SAPT in psi4, default
symmetry c1  #important for SAPT in psi4, default
}

set PROPERTIES_ORIGIN ["COM"]
properties('MP2/aug-cc-pvtz', properties = ['dipole'])
--------------------------------------------------------------------------

    Molecular point group: c1
  Charge       = 0
  Multiplicity = 1
  Basis Set: AUG-CC-PVTZ
    Blend: AUG-CC-PVTZ
  Basis Set: (AUG-CC-PVTZ AUX)
    Blend: AUG-CC-PVTZ-JKFIT

    Orbital Energies [Eh]
    ---------------------

    Doubly Occupied:

       1A    -20.505989     2A    -15.583492     3A    -11.339538
       4A    -11.279560     5A    -11.235361     6A    -11.233683
       7A    -11.233234     8A    -11.232411     9A     -1.363686
      10A     -1.232913    11A     -1.092305    12A     -1.044104
      13A     -0.944926    14A     -0.889552    15A     -0.794062
      16A     -0.759578    17A     -0.694009    18A     -0.675616
      19A     -0.622605    20A     -0.610178    21A     -0.602682
      22A     -0.594151    23A     -0.570733    24A     -0.538951
      25A     -0.518406    26A     -0.515366    27A     -0.480556
      28A     -0.469841    29A     -0.468354    30A     -0.409696
      31A     -0.384237

  @DF-RHF Final Energy:  -363.07093588289922

   => Energetics <=

    Nuclear Repulsion Energy =            395.1589763539108731
    One-Electron Energy =               -1276.6202785202131054
    Two-Electron Energy =                 518.3903662834029547
    Total Energy =                       -363.0709358828992208
  Basis Set: (AUG-CC-PVTZ AUX)
    Blend: AUG-CC-PVTZ-RI
    Molecular point group: c1

    Geometry (in Angstrom), charge = 0, multiplicity = 1:

       Center              X                  Y                   Z               Mass
    ------------   -----------------  -----------------  -----------------  -----------------
         O           -2.470017065239     0.067912218126    -0.374721023303    15.994914619570
         N           -0.601624165239    -1.160799481874    -0.077744123303    14.003074004430
         C            1.909648934761     0.733374218126    -0.016348023303    12.000000000000
         C            1.790323934761    -0.750165781874    -0.362625023303    12.000000000000
         C            0.646569934761     1.565199218126    -0.241837023303    12.000000000000
         C            0.718277934761    -1.490589781874     0.436714976697    12.000000000000
         C           -0.554147065239     1.146433218126     0.620466976697    12.000000000000
         C           -1.315222065239    -0.033024781874     0.048738976697    12.000000000000
         H            2.728270934761     1.167142218126    -0.603733023303     1.007825032230
         H            2.206088934761     0.825636218126     1.037945976697     1.007825032230
         H            1.574153934761    -0.876252781874    -1.430395023303     1.007825032230
         H            2.757956934761    -1.232414781874    -0.171874023303     1.007825032230
         H            0.357958934761     1.532012218126    -1.300159023303     1.007825032230
         H            0.882445934761     2.612407218126    -0.019146023303     1.007825032230
         H            0.863976934761    -2.569897781874     0.334454976697     1.007825032230
         H            0.824145934761    -1.261888781874     1.506202976697     1.007825032230
         H           -1.284519065239     1.956630218126     0.679216976697     1.007825032230
         H           -0.220537065239     0.925647218126     1.643488976697     1.007825032230
         H           -1.177497065239    -1.973873781874    -0.424836023303     1.007825032230

  Basis Set: AUG-CC-PVTZ
    Blend: AUG-CC-PVTZ
  Basis Set: (AUG-CC-PVTZ AUX)
    Blend: AUG-CC-PVTZ-JKFIT
	 Reference Energy          =    -363.0709358828992208 [Eh]
	 Singles Energy            =      -0.0000000000000000 [Eh]
	 Same-Spin Energy          =      -0.3782211769954628 [Eh]
	 Opposite-Spin Energy      =      -1.2484657574526463 [Eh]
	 Correlation Energy        =      -1.6266869344481090 [Eh]
	 Total Energy              =    -364.6976228173473373 [Eh]

	 ================> DF-SCS-MP2 Energies <==================
	-----------------------------------------------------------
	 SCS Same-Spin Scale       =       0.3333333333333333 [-]
	 SCS Opposite-Spin Scale   =       1.2000000000000000 [-]
	 SCS Same-Spin Energy      =      -0.1260737256651542 [Eh]
	 SCS Opposite-Spin Energy  =      -1.4981589089431755 [Eh]
	 SCS Correlation Energy    =      -1.6242326346083298 [Eh]
	 SCS Total Energy          =    -364.6951685175075681 [Eh]
	-----------------------------------------------------------

  Dipole Moment: [D]
     X:     4.0806      Y:    -1.2220      Z:     1.0513     Total:     4.3875

*** Psi4 exiting successfully. Buy a developer a beer!
