                               Psi4 1.3.2 release

  ==> Input File <==

--------------------------------------------------------------------------
#psi4
#
memory 32 gb

molecule  {
0 1
  O       -2.5416370     0.0659770    -0.3927070
  N       -0.7122740    -1.2241950    -0.0249760
  C        1.8380290     0.7314390    -0.0343340
  C        1.7187040    -0.7521010    -0.3806110
  C        0.5749500     1.5632640    -0.2598230
  C        0.6466580    -1.4925250     0.4187290
  C       -0.6257670     1.1444980     0.6024810
  C       -1.3425326    -0.0637280     0.0335643
  H        2.6566510     1.1652070    -0.6217190
  H        2.1344690     0.8237010     1.0199600
  H        1.5025340    -0.8781880    -1.4483810
  H        2.6863370    -1.2343500    -0.1898600
  H        0.2863390     1.5300770    -1.3181450
  H        0.8108260     2.6104720    -0.0371320
  H        0.7923570    -2.5718330     0.3164690
  H        0.7525260    -1.2638240     1.4882170
  H       -1.3561390     1.9546950     0.6612310
  H       -0.2921570     0.9237120     1.6255030
  H       -1.2491170    -1.9758090    -0.4428220
units angstrom
no_reorient  #important for SAPT in psi4, default
symmetry c1  #important for SAPT in psi4, default
}

set PROPERTIES_ORIGIN ["COM"]
properties('MP2/aug-cc-pvtz', properties = ['dipole'])
--------------------------------------------------------------------------

    Molecular point group: c1
  Charge       = 0
  Multiplicity = 1
  Basis Set: AUG-CC-PVTZ
    Blend: AUG-CC-PVTZ
  Basis Set: (AUG-CC-PVTZ AUX)
    Blend: AUG-CC-PVTZ-JKFIT

    Orbital Energies [Eh]
    ---------------------

    Doubly Occupied:

       1A    -20.497166     2A    -15.588696     3A    -11.341450
       4A    -11.282411     5A    -11.238155     6A    -11.237117
       7A    -11.236473     8A    -11.234858     9A     -1.341508
      10A     -1.235490    11A     -1.097360    12A     -1.045000
      13A     -0.950272    14A     -0.893724    15A     -0.798843
      16A     -0.774645    17A     -0.693657    18A     -0.673230
      19A     -0.630195    20A     -0.614654    21A     -0.603828
      22A     -0.583381    23A     -0.573010    24A     -0.538006
      25A     -0.519545    26A     -0.513533    27A     -0.483110
      28A     -0.471945    29A     -0.467995    30A     -0.402837
      31A     -0.381871

  @DF-RHF Final Energy:  -363.06912488059930

   => Energetics <=

    Nuclear Repulsion Energy =            394.3787045122515451
    One-Electron Energy =               -1275.0077294575544329
    Two-Electron Energy =                 517.5599000647035837
    Total Energy =                       -363.0691248805993609
  Basis Set: (AUG-CC-PVTZ AUX)
    Blend: AUG-CC-PVTZ-RI
    Molecular point group: c1

    Geometry (in Angstrom), charge = 0, multiplicity = 1:

       Center              X                  Y                   Z               Mass
    ------------   -----------------  -----------------  -----------------  -----------------
         O           -2.469885961195     0.078575516621    -0.383780748099    15.994914619570
         N           -0.640522961195    -1.211596483379    -0.016049748099    14.003074004430
         C            1.909780038805     0.744037516621    -0.025407748099    12.000000000000
         C            1.790455038805    -0.739502483379    -0.371684748099    12.000000000000
         C            0.646701038805     1.575862516621    -0.250896748099    12.000000000000
         C            0.718409038805    -1.479926483379     0.427655251901    12.000000000000
         C           -0.554015961195     1.157096516621     0.611407251901    12.000000000000
         C           -1.270781561195    -0.051129483379     0.042490551901    12.000000000000
         H            2.728402038805     1.177805516621    -0.612792748099     1.007825032230
         H            2.206220038805     0.836299516621     1.028886251901     1.007825032230
         H            1.574285038805    -0.865589483379    -1.439454748099     1.007825032230
         H            2.758088038805    -1.221751483379    -0.180933748099     1.007825032230
         H            0.358090038805     1.542675516621    -1.309218748099     1.007825032230
         H            0.882577038805     2.623070516621    -0.028205748099     1.007825032230
         H            0.864108038805    -2.559234483379     0.325395251901     1.007825032230
         H            0.824277038805    -1.251225483379     1.497143251901     1.007825032230
         H           -1.284387961195     1.967293516621     0.670157251901     1.007825032230
         H           -0.220405961195     0.936310516621     1.634429251901     1.007825032230
         H           -1.177365961195    -1.963210483379    -0.433895748099     1.007825032230

  Basis Set: AUG-CC-PVTZ
    Blend: AUG-CC-PVTZ
  Basis Set: (AUG-CC-PVTZ AUX)
    Blend: AUG-CC-PVTZ-JKFIT
	 Reference Energy          =    -363.0691248805993041 [Eh]
	 Singles Energy            =      -0.0000000000000000 [Eh]
	 Same-Spin Energy          =      -0.3784883305168583 [Eh]
	 Opposite-Spin Energy      =      -1.2491004839375024 [Eh]
	 Correlation Energy        =      -1.6275888144543607 [Eh]
	 Total Energy              =    -364.6967136950536883 [Eh]

	 ================> DF-SCS-MP2 Energies <==================
	-----------------------------------------------------------
	 SCS Same-Spin Scale       =       0.3333333333333333 [-]
	 SCS Opposite-Spin Scale   =       1.2000000000000000 [-]
	 SCS Same-Spin Energy      =      -0.1261627768389528 [Eh]
	 SCS Opposite-Spin Energy  =      -1.4989205807250028 [Eh]
	 SCS Correlation Energy    =      -1.6250833575639556 [Eh]
	 SCS Total Energy          =    -364.6942082381632417 [Eh]
	-----------------------------------------------------------

  Dipole Moment: [D]
     X:     4.4859      Y:    -1.2874      Z:     0.9661     Total:     4.7659

*** Psi4 exiting successfully. Buy a developer a beer!
