                               Psi4 1.3.2 release

  ==> Input File <==

--------------------------------------------------------------------------
#psi4
#
memory 32 gb

molecule  {
0 1
  O       -2.5416370     0.0659770    -0.3927070
  N       -0.7122740    -1.2241950    -0.0249760
  C        1.8880368     0.8216531    -0.0069139
  C        1.7187040    -0.7521010    -0.3806110
  C        0.5749500     1.5632640    -0.2598230
  C        0.6466580    -1.4925250     0.4187290
  C       -0.6257670     1.1444980     0.6024810
  C       -1.3868420    -0.0349600     0.0307530
  H        2.6566510     1.1652070    -0.6217190
  H        2.1344690     0.8237010     1.0199600
  H        1.5025340    -0.8781880    -1.4483810
  H        2.6863370    -1.2343500    -0.1898600
  H        0.2863390     1.5300770    -1.3181450
  H        0.8108260     2.6104720    -0.0371320
  H        0.7923570    -2.5718330     0.3164690
  H        0.7525260    -1.2638240     1.4882170
  H       -1.3561390     1.9546950     0.6612310
  H       -0.2921570     0.9237120     1.6255030
  H       -1.2491170    -1.9758090    -0.4428220
units angstrom
no_reorient  #important for SAPT in psi4, default
symmetry c1  #important for SAPT in psi4, default
}

set PROPERTIES_ORIGIN ["COM"]
properties('MP2/aug-cc-pvtz', properties = ['dipole'])
--------------------------------------------------------------------------

    Molecular point group: c1
  Charge       = 0
  Multiplicity = 1
  Basis Set: AUG-CC-PVTZ
    Blend: AUG-CC-PVTZ
  Basis Set: (AUG-CC-PVTZ AUX)
    Blend: AUG-CC-PVTZ-JKFIT

    Orbital Energies [Eh]
    ---------------------

    Doubly Occupied:

       1A    -20.509038     2A    -15.578096     3A    -11.342939
       4A    -11.277225     5A    -11.237392     6A    -11.236069
       7A    -11.235967     8A    -11.230361     9A     -1.363360
      10A     -1.227204    11A     -1.088311    12A     -1.036420
      13A     -0.949180    14A     -0.882731    15A     -0.802291
      16A     -0.763426    17A     -0.686239    18A     -0.678031
      19A     -0.628355    20A     -0.608178    21A     -0.599866
      22A     -0.590112    23A     -0.574135    24A     -0.544577
      25A     -0.524755    26A     -0.515341    27A     -0.489097
      28A     -0.480185    29A     -0.442727    30A     -0.411026
      31A     -0.382556

  @DF-RHF Final Energy:  -363.06621543944448

   => Energetics <=

    Nuclear Repulsion Energy =            392.6854113671928417
    One-Electron Energy =               -1271.6728698422955404
    Two-Electron Energy =                 515.9212430356582217
    Total Energy =                       -363.0662154394444769
  Basis Set: (AUG-CC-PVTZ AUX)
    Blend: AUG-CC-PVTZ-RI
    Molecular point group: c1

    Geometry (in Angstrom), charge = 0, multiplicity = 1:

       Center              X                  Y                   Z               Mass
    ------------   -----------------  -----------------  -----------------  -----------------
         O           -2.470490651172     0.065949642118    -0.386392129310    15.994914619570
         N           -0.641127651172    -1.224222357882    -0.018661129310    14.003074004430
         C            1.959183148828     0.821625742118    -0.000599029310    12.000000000000
         C            1.789850348828    -0.752128357882    -0.374296129310    12.000000000000
         C            0.646096348828     1.563236642118    -0.253508129310    12.000000000000
         C            0.717804348828    -1.492552357882     0.425043870690    12.000000000000
         C           -0.554620651172     1.144470642118     0.608795870690    12.000000000000
         C           -1.315695651172    -0.034987357882     0.037067870690    12.000000000000
         H            2.727797348828     1.165179642118    -0.615404129310     1.007825032230
         H            2.205615348828     0.823673642118     1.026274870690     1.007825032230
         H            1.573680348828    -0.878215357882    -1.442066129310     1.007825032230
         H            2.757483348828    -1.234377357882    -0.183545129310     1.007825032230
         H            0.357485348828     1.530049642118    -1.311830129310     1.007825032230
         H            0.881972348828     2.610444642118    -0.030817129310     1.007825032230
         H            0.863503348828    -2.571860357882     0.322783870690     1.007825032230
         H            0.823672348828    -1.263851357882     1.494531870690     1.007825032230
         H           -1.284992651172     1.954667642118     0.667545870690     1.007825032230
         H           -0.221010651172     0.923684642118     1.631817870690     1.007825032230
         H           -1.177970651172    -1.975836357882    -0.436507129310     1.007825032230

  Basis Set: AUG-CC-PVTZ
    Blend: AUG-CC-PVTZ
  Basis Set: (AUG-CC-PVTZ AUX)
    Blend: AUG-CC-PVTZ-JKFIT
	 Reference Energy          =    -363.0662154394444769 [Eh]
	 Singles Energy            =      -0.0000000000000000 [Eh]
	 Same-Spin Energy          =      -0.3774157168948520 [Eh]
	 Opposite-Spin Energy      =      -1.2477275862402699 [Eh]
	 Correlation Energy        =      -1.6251433031351219 [Eh]
	 Total Energy              =    -364.6913587425796095 [Eh]

	 ================> DF-SCS-MP2 Energies <==================
	-----------------------------------------------------------
	 SCS Same-Spin Scale       =       0.3333333333333333 [-]
	 SCS Opposite-Spin Scale   =       1.2000000000000000 [-]
	 SCS Same-Spin Energy      =      -0.1258052389649507 [Eh]
	 SCS Opposite-Spin Energy  =      -1.4972731034883238 [Eh]
	 SCS Correlation Energy    =      -1.6230783424532744 [Eh]
	 SCS Total Energy          =    -364.6892937818977316 [Eh]
	-----------------------------------------------------------

  Dipole Moment: [D]
     X:     4.0816      Y:    -1.0040      Z:     0.9206     Total:     4.3030

*** Psi4 exiting successfully. Buy a developer a beer!
