                               Psi4 1.3.2 release

  ==> Input File <==

--------------------------------------------------------------------------
#psi4
#
memory 32 gb

molecule  {
0 1
  O       -2.5416370     0.0659770    -0.3927070
  N       -0.7122740    -1.2241950    -0.0249760
  C        1.8380290     0.7314390    -0.0343340
  C        1.7187040    -0.7521010    -0.3806110
  C        0.5749500     1.5632640    -0.2598230
  C        0.6466580    -1.4925250     0.4187290
  C       -0.6257670     1.1444980     0.6024810
  C       -1.3868420    -0.0349600     0.0307530
  H        2.6566510     1.1652070    -0.6217190
  H        2.1344690     0.8237010     1.0199600
  H        1.5025340    -0.8781880    -1.4483810
  H        2.6863370    -1.2343500    -0.1898600
  H        0.2863390     1.5300770    -1.3181450
  H        0.8108260     2.6104720    -0.0371320
  H        0.7923570    -2.5718330     0.3164690
  H        0.7525260    -1.2638240     1.4882170
  H       -1.3643268     1.9474990     0.5474093
  H       -0.2921570     0.9237120     1.6255030
  H       -1.2491170    -1.9758090    -0.4428220
units angstrom
no_reorient  #important for SAPT in psi4, default
symmetry c1  #important for SAPT in psi4, default
}

set PROPERTIES_ORIGIN ["COM"]
properties('MP2/aug-cc-pvtz', properties = ['dipole'])
--------------------------------------------------------------------------

    Molecular point group: c1
  Charge       = 0
  Multiplicity = 1
  Basis Set: AUG-CC-PVTZ
    Blend: AUG-CC-PVTZ
  Basis Set: (AUG-CC-PVTZ AUX)
    Blend: AUG-CC-PVTZ-JKFIT

    Orbital Energies [Eh]
    ---------------------

    Doubly Occupied:

       1A    -20.509355     2A    -15.578387     3A    -11.342604
       4A    -11.277474     5A    -11.236373     6A    -11.235783
       7A    -11.234303     8A    -11.232662     9A     -1.363798
      10A     -1.228202    11A     -1.094142    12A     -1.042606
      13A     -0.945481    14A     -0.888445    15A     -0.795442
      16A     -0.762100    17A     -0.687772    18A     -0.678269
      19A     -0.625316    20A     -0.613376    21A     -0.604080
      22A     -0.591046    23A     -0.568708    24A     -0.544735
      25A     -0.521879    26A     -0.515689    27A     -0.481403
      28A     -0.470329    29A     -0.467064    30A     -0.410961
      31A     -0.382775

  @DF-RHF Final Energy:  -363.07411588664149

   => Energetics <=

    Nuclear Repulsion Energy =            394.2019453244321312
    One-Electron Energy =               -1274.6910062464378370
    Two-Electron Energy =                 517.4149450353642123
    Total Energy =                       -363.0741158866414935
  Basis Set: (AUG-CC-PVTZ AUX)
    Blend: AUG-CC-PVTZ-RI
    Molecular point group: c1

    Geometry (in Angstrom), charge = 0, multiplicity = 1:

       Center              X                  Y                   Z               Mass
    ------------   -----------------  -----------------  -----------------  -----------------
         O           -2.465111064974     0.075586910807    -0.382468025924    15.994914619570
         N           -0.635748064974    -1.214585089193    -0.014737025924    14.003074004430
         C            1.914554935026     0.741048910807    -0.024095025924    12.000000000000
         C            1.795229935026    -0.742491089193    -0.370372025924    12.000000000000
         C            0.651475935026     1.572873910807    -0.249584025924    12.000000000000
         C            0.723183935026    -1.482915089193     0.428967974076    12.000000000000
         C           -0.549241064974     1.154107910807     0.612719974076    12.000000000000
         C           -1.310316064974    -0.025350089193     0.040991974076    12.000000000000
         H            2.733176935026     1.174816910807    -0.611480025924     1.007825032230
         H            2.210994935026     0.833310910807     1.030198974076     1.007825032230
         H            1.579059935026    -0.868578089193    -1.438142025924     1.007825032230
         H            2.762862935026    -1.224740089193    -0.179621025924     1.007825032230
         H            0.362864935026     1.539686910807    -1.307906025924     1.007825032230
         H            0.887351935026     2.620081910807    -0.026893025924     1.007825032230
         H            0.868882935026    -2.562223089193     0.326707974076     1.007825032230
         H            0.829051935026    -1.254214089193     1.498455974076     1.007825032230
         H           -1.287800864974     1.957108910807     0.557648274076     1.007825032230
         H           -0.215631064974     0.933321910807     1.635741974076     1.007825032230
         H           -1.172591064974    -1.966199089193    -0.432583025924     1.007825032230

  Basis Set: AUG-CC-PVTZ
    Blend: AUG-CC-PVTZ
  Basis Set: (AUG-CC-PVTZ AUX)
    Blend: AUG-CC-PVTZ-JKFIT
	 Reference Energy          =    -363.0741158866414935 [Eh]
	 Singles Energy            =      -0.0000000000000000 [Eh]
	 Same-Spin Energy          =      -0.3778434435071296 [Eh]
	 Opposite-Spin Energy      =      -1.2478290420834899 [Eh]
	 Correlation Energy        =      -1.6256724855906195 [Eh]
	 Total Energy              =    -364.6997883722320921 [Eh]

	 ================> DF-SCS-MP2 Energies <==================
	-----------------------------------------------------------
	 SCS Same-Spin Scale       =       0.3333333333333333 [-]
	 SCS Opposite-Spin Scale   =       1.2000000000000000 [-]
	 SCS Same-Spin Energy      =      -0.1259478145023765 [Eh]
	 SCS Opposite-Spin Energy  =      -1.4973948505001877 [Eh]
	 SCS Correlation Energy    =      -1.6233426650025642 [Eh]
	 SCS Total Energy          =    -364.6974585516440470 [Eh]
	-----------------------------------------------------------

  Dipole Moment: [D]
     X:     4.0700      Y:    -1.0491      Z:     0.8571     Total:     4.2895

*** Psi4 exiting successfully. Buy a developer a beer!
