                               Psi4 1.3.2 release

  ==> Input File <==

--------------------------------------------------------------------------
#psi4
#
memory 32 gb

molecule  {
0 1
  O       -2.5416370     0.0659770    -0.3927070
  N       -0.7122740    -1.2241950    -0.0249760
  C        1.8476232     0.7178781     0.0163507
  C        1.7187040    -0.7521010    -0.3806110
  C        0.5749500     1.5632640    -0.2598230
  C        0.6466580    -1.4925250     0.4187290
  C       -0.6257670     1.1444980     0.6024810
  C       -1.3868420    -0.0349600     0.0307530
  H        2.6566510     1.1652070    -0.6217190
  H        2.1344690     0.8237010     1.0199600
  H        1.5025340    -0.8781880    -1.4483810
  H        2.6863370    -1.2343500    -0.1898600
  H        0.2863390     1.5300770    -1.3181450
  H        0.8108260     2.6104720    -0.0371320
  H        0.7923570    -2.5718330     0.3164690
  H        0.7525260    -1.2638240     1.4882170
  H       -1.3561390     1.9546950     0.6612310
  H       -0.2921570     0.9237120     1.6255030
  H       -1.2491170    -1.9758090    -0.4428220
units angstrom
no_reorient  #important for SAPT in psi4, default
symmetry c1  #important for SAPT in psi4, default
}

set PROPERTIES_ORIGIN ["COM"]
properties('MP2/aug-cc-pvtz', properties = ['dipole'])
--------------------------------------------------------------------------

    Molecular point group: c1
  Charge       = 0
  Multiplicity = 1
  Basis Set: AUG-CC-PVTZ
    Blend: AUG-CC-PVTZ
  Basis Set: (AUG-CC-PVTZ AUX)
    Blend: AUG-CC-PVTZ-JKFIT

    Orbital Energies [Eh]
    ---------------------

    Doubly Occupied:

       1A    -20.508814     2A    -15.578468     3A    -11.342723
       4A    -11.276779     5A    -11.237303     6A    -11.235233
       7A    -11.234383     8A    -11.232135     9A     -1.363211
      10A     -1.228062    11A     -1.092082    12A     -1.042135
      13A     -0.943736    14A     -0.887215    15A     -0.799984
      16A     -0.763471    17A     -0.687592    18A     -0.675287
      19A     -0.624550    20A     -0.612665    21A     -0.603781
      22A     -0.591707    23A     -0.568106    24A     -0.543691
      25A     -0.519338    26A     -0.516281    27A     -0.493230
      28A     -0.466489    29A     -0.462709    30A     -0.410049
      31A     -0.382360

  @DF-RHF Final Energy:  -363.07245504477658

   => Energetics <=

    Nuclear Repulsion Energy =            393.9696258592064169
    One-Electron Energy =               -1274.2370197362099589
    Two-Electron Energy =                 517.1949388322269670
    Total Energy =                       -363.0724550447765751
  Basis Set: (AUG-CC-PVTZ AUX)
    Blend: AUG-CC-PVTZ-RI
    Molecular point group: c1

    Geometry (in Angstrom), charge = 0, multiplicity = 1:

       Center              X                  Y                   Z               Mass
    ------------   -----------------  -----------------  -----------------  -----------------
         O           -2.466202131791     0.076961803834    -0.388860869734    15.994914619570
         N           -0.636839131791    -1.213210196166    -0.021129869734    14.003074004430
         C            1.923058068209     0.728862903834     0.020196830266    12.000000000000
         C            1.794138868209    -0.741116196166    -0.376764869734    12.000000000000
         C            0.650384868209     1.574248803834    -0.255976869734    12.000000000000
         C            0.722092868209    -1.481540196166     0.422575130266    12.000000000000
         C           -0.550332131791     1.155482803834     0.606327130266    12.000000000000
         C           -1.311407131791    -0.023975196166     0.034599130266    12.000000000000
         H            2.732085868209     1.176191803834    -0.617872869734     1.007825032230
         H            2.209903868209     0.834685803834     1.023806130266     1.007825032230
         H            1.577968868209    -0.867203196166    -1.444534869734     1.007825032230
         H            2.761771868209    -1.223365196166    -0.186013869734     1.007825032230
         H            0.361773868209     1.541061803834    -1.314298869734     1.007825032230
         H            0.886260868209     2.621456803834    -0.033285869734     1.007825032230
         H            0.867791868209    -2.560848196166     0.320315130266     1.007825032230
         H            0.827960868209    -1.252839196166     1.492063130266     1.007825032230
         H           -1.280704131791     1.965679803834     0.665077130266     1.007825032230
         H           -0.216722131791     0.934696803834     1.629349130266     1.007825032230
         H           -1.173682131791    -1.964824196166    -0.438975869734     1.007825032230

  Basis Set: AUG-CC-PVTZ
    Blend: AUG-CC-PVTZ
  Basis Set: (AUG-CC-PVTZ AUX)
    Blend: AUG-CC-PVTZ-JKFIT
	 Reference Energy          =    -363.0724550447765751 [Eh]
	 Singles Energy            =      -0.0000000000000000 [Eh]
	 Same-Spin Energy          =      -0.3776462801429751 [Eh]
	 Opposite-Spin Energy      =      -1.2477040295168131 [Eh]
	 Correlation Energy        =      -1.6253503096597881 [Eh]
	 Total Energy              =    -364.6978053544363547 [Eh]

	 ================> DF-SCS-MP2 Energies <==================
	-----------------------------------------------------------
	 SCS Same-Spin Scale       =       0.3333333333333333 [-]
	 SCS Opposite-Spin Scale   =       1.2000000000000000 [-]
	 SCS Same-Spin Energy      =      -0.1258820933809917 [Eh]
	 SCS Opposite-Spin Energy  =      -1.4972448354201757 [Eh]
	 SCS Correlation Energy    =      -1.6231269288011674 [Eh]
	 SCS Total Energy          =    -364.6955819735777595 [Eh]
	-----------------------------------------------------------

  Dipole Moment: [D]
     X:     4.0793      Y:    -1.0398      Z:     0.9198     Total:     4.3091

*** Psi4 exiting successfully. Buy a developer a beer!
