                               Psi4 1.3.2 release

  ==> Input File <==

--------------------------------------------------------------------------
#psi4
#
memory 32 gb

molecule  {
0 1
  O       -2.5416370     0.0659770    -0.3927070
  N       -0.7122740    -1.2241950    -0.0249760
  C        1.8380290     0.7314390    -0.0343340
  C        1.7187040    -0.7521010    -0.3806110
  C        0.5749500     1.5632640    -0.2598230
  C        0.6466580    -1.4925250     0.4187290
  C       -0.6257670     1.1444980     0.6024810
  C       -1.3868420    -0.0349600     0.0307530
  H        2.6566510     1.1652070    -0.6217190
  H        2.1344690     0.8237010     1.0199600
  H        1.5025340    -0.8781880    -1.4483810
  H        2.6863370    -1.2343500    -0.1898600
  H        0.2863390     1.5300770    -1.3181450
  H        0.7677947     2.4194279    -0.0777579
  H        0.7923570    -2.5718330     0.3164690
  H        0.7525260    -1.2638240     1.4882170
  H       -1.3561390     1.9546950     0.6612310
  H       -0.2921570     0.9237120     1.6255030
  H       -1.2491170    -1.9758090    -0.4428220
units angstrom
no_reorient  #important for SAPT in psi4, default
symmetry c1  #important for SAPT in psi4, default
}

set PROPERTIES_ORIGIN ["COM"]
properties('MP2/aug-cc-pvtz', properties = ['dipole'])
--------------------------------------------------------------------------

    Molecular point group: c1
  Charge       = 0
  Multiplicity = 1
  Basis Set: AUG-CC-PVTZ
    Blend: AUG-CC-PVTZ
  Basis Set: (AUG-CC-PVTZ AUX)
    Blend: AUG-CC-PVTZ-JKFIT

    Orbital Energies [Eh]
    ---------------------

    Doubly Occupied:

       1A    -20.508096     2A    -15.577767     3A    -11.342120
       4A    -11.276575     5A    -11.234946     6A    -11.233349
       7A    -11.231960     8A    -11.211454     9A     -1.362561
      10A     -1.227382    11A     -1.100976    12A     -1.044061
      13A     -0.946642    14A     -0.902349    15A     -0.801859
      16A     -0.764406    17A     -0.691262    18A     -0.675981
      19A     -0.638223    20A     -0.614482    21A     -0.605715
      22A     -0.592420    23A     -0.570861    24A     -0.545845
      25A     -0.520111    26A     -0.516284    27A     -0.482838
      28A     -0.476085    29A     -0.469068    30A     -0.410560
      31A     -0.381989

  @DF-RHF Final Energy:  -363.04269717081013

   => Energetics <=

    Nuclear Repulsion Energy =            395.2433052857982716
    One-Electron Energy =               -1276.6555478487182427
    Two-Electron Energy =                 518.3695453921098988
    Total Energy =                       -363.0426971708101291
  Basis Set: (AUG-CC-PVTZ AUX)
    Blend: AUG-CC-PVTZ-RI
    Molecular point group: c1

    Geometry (in Angstrom), charge = 0, multiplicity = 1:

       Center              X                  Y                   Z               Mass
    ------------   -----------------  -----------------  -----------------  -----------------
         O           -2.464800533584     0.077225397352    -0.383120359744    15.994914619570
         N           -0.635437533584    -1.212946602648    -0.015389359744    14.003074004430
         C            1.914865466416     0.742687397352    -0.024747359744    12.000000000000
         C            1.795540466416    -0.740852602648    -0.371024359744    12.000000000000
         C            0.651786466416     1.574512397352    -0.250236359744    12.000000000000
         C            0.723494466416    -1.481276602648     0.428315640256    12.000000000000
         C           -0.548930533584     1.155746397352     0.612067640256    12.000000000000
         C           -1.310005533584    -0.023711602648     0.040339640256    12.000000000000
         H            2.733487466416     1.176455397352    -0.612132359744     1.007825032230
         H            2.211305466416     0.834949397352     1.029546640256     1.007825032230
         H            1.579370466416    -0.866939602648    -1.438794359744     1.007825032230
         H            2.763173466416    -1.223101602648    -0.180273359744     1.007825032230
         H            0.363175466416     1.541325397352    -1.308558359744     1.007825032230
         H            0.844631166416     2.430676297352    -0.068171259744     1.007825032230
         H            0.869193466416    -2.560584602648     0.326055640256     1.007825032230
         H            0.829362466416    -1.252575602648     1.497803640256     1.007825032230
         H           -1.279302533584     1.965943397352     0.670817640256     1.007825032230
         H           -0.215320533584     0.934960397352     1.635089640256     1.007825032230
         H           -1.172280533584    -1.964560602648    -0.433235359744     1.007825032230

  Basis Set: AUG-CC-PVTZ
    Blend: AUG-CC-PVTZ
  Basis Set: (AUG-CC-PVTZ AUX)
    Blend: AUG-CC-PVTZ-JKFIT
	 Reference Energy          =    -363.0426971708101291 [Eh]
	 Singles Energy            =      -0.0000000000000000 [Eh]
	 Same-Spin Energy          =      -0.3777329432125214 [Eh]
	 Opposite-Spin Energy      =      -1.2468467771042901 [Eh]
	 Correlation Energy        =      -1.6245797203168115 [Eh]
	 Total Energy              =    -364.6672768911269600 [Eh]

	 ================> DF-SCS-MP2 Energies <==================
	-----------------------------------------------------------
	 SCS Same-Spin Scale       =       0.3333333333333333 [-]
	 SCS Opposite-Spin Scale   =       1.2000000000000000 [-]
	 SCS Same-Spin Energy      =      -0.1259109810708404 [Eh]
	 SCS Opposite-Spin Energy  =      -1.4962161325251482 [Eh]
	 SCS Correlation Energy    =      -1.6221271135959887 [Eh]
	 SCS Total Energy          =    -364.6648242844061087 [Eh]
	-----------------------------------------------------------

  Dipole Moment: [D]
     X:     4.0962      Y:    -0.9300      Z:     0.8970     Total:     4.2951

*** Psi4 exiting successfully. Buy a developer a beer!
