                               Psi4 1.3.2 release

  ==> Input File <==

--------------------------------------------------------------------------
#psi4
#
memory 32 gb

molecule  {
0 1
  O       -2.5416370     0.0659770    -0.3927070
  N       -0.7122740    -1.2241950    -0.0249760
  C        1.8380290     0.7314390    -0.0343340
  C        1.7390295    -0.7495114    -0.3976827
  C        0.5749500     1.5632640    -0.2598230
  C        0.6466580    -1.4925250     0.4187290
  C       -0.6257670     1.1444980     0.6024810
  C       -1.3868420    -0.0349600     0.0307530
  H        2.6566510     1.1652070    -0.6217190
  H        2.1344690     0.8237010     1.0199600
  H        1.5025340    -0.8781880    -1.4483810
  H        2.6863370    -1.2343500    -0.1898600
  H        0.2863390     1.5300770    -1.3181450
  H        0.8108260     2.6104720    -0.0371320
  H        0.7923570    -2.5718330     0.3164690
  H        0.7525260    -1.2638240     1.4882170
  H       -1.3561390     1.9546950     0.6612310
  H       -0.2921570     0.9237120     1.6255030
  H       -1.2491170    -1.9758090    -0.4428220
units angstrom
no_reorient  #important for SAPT in psi4, default
symmetry c1  #important for SAPT in psi4, default
}

set PROPERTIES_ORIGIN ["COM"]
properties('MP2/aug-cc-pvtz', properties = ['dipole'])
--------------------------------------------------------------------------

    Molecular point group: c1
  Charge       = 0
  Multiplicity = 1
  Basis Set: AUG-CC-PVTZ
    Blend: AUG-CC-PVTZ
  Basis Set: (AUG-CC-PVTZ AUX)
    Blend: AUG-CC-PVTZ-JKFIT

    Orbital Energies [Eh]
    ---------------------

    Doubly Occupied:

       1A    -20.509019     2A    -15.578779     3A    -11.342935
       4A    -11.277780     5A    -11.236846     6A    -11.235942
       7A    -11.233524     8A    -11.232756     9A     -1.363376
      10A     -1.227411    11A     -1.093469    12A     -1.040473
      13A     -0.943744    14A     -0.889617    15A     -0.796666
      16A     -0.763661    17A     -0.687334    18A     -0.676077
      19A     -0.625668    20A     -0.611380    21A     -0.602522
      22A     -0.591158    23A     -0.571251    24A     -0.542624
      25A     -0.519318    26A     -0.517829    27A     -0.483256
      28A     -0.472416    29A     -0.466954    30A     -0.410543
      31A     -0.381509

  @DF-RHF Final Energy:  -363.07506337503617

   => Energetics <=

    Nuclear Repulsion Energy =            393.7169850622782974
    One-Electron Energy =               -1273.7324208276727404
    Two-Electron Energy =                 516.9403723903582204
    Total Energy =                       -363.0750633750361658
  Basis Set: (AUG-CC-PVTZ AUX)
    Blend: AUG-CC-PVTZ-RI
    Molecular point group: c1

    Geometry (in Angstrom), charge = 0, multiplicity = 1:

       Center              X                  Y                   Z               Mass
    ------------   -----------------  -----------------  -----------------  -----------------
         O           -2.467340891714     0.075247981451    -0.381670848688    15.994914619570
         N           -0.637977891714    -1.214924018549    -0.013939848688    14.003074004430
         C            1.912325108286     0.740709981451    -0.023297848688    12.000000000000
         C            1.813325608286    -0.740240418549    -0.386646548688    12.000000000000
         C            0.649246108286     1.572534981451    -0.248786848688    12.000000000000
         C            0.720954108286    -1.483254018549     0.429765151312    12.000000000000
         C           -0.551470891714     1.153768981451     0.613517151312    12.000000000000
         C           -1.312545891714    -0.025689018549     0.041789151312    12.000000000000
         H            2.730947108286     1.174477981451    -0.610682848688     1.007825032230
         H            2.208765108286     0.832971981451     1.030996151312     1.007825032230
         H            1.576830108286    -0.868917018549    -1.437344848688     1.007825032230
         H            2.760633108286    -1.225079018549    -0.178823848688     1.007825032230
         H            0.360635108286     1.539347981451    -1.307108848688     1.007825032230
         H            0.885122108286     2.619742981451    -0.026095848688     1.007825032230
         H            0.866653108286    -2.562562018549     0.327505151312     1.007825032230
         H            0.826822108286    -1.254553018549     1.499253151312     1.007825032230
         H           -1.281842891714     1.963965981451     0.672267151312     1.007825032230
         H           -0.217860891714     0.932982981451     1.636539151312     1.007825032230
         H           -1.174820891714    -1.966538018549    -0.431785848688     1.007825032230

  Basis Set: AUG-CC-PVTZ
    Blend: AUG-CC-PVTZ
  Basis Set: (AUG-CC-PVTZ AUX)
    Blend: AUG-CC-PVTZ-JKFIT
	 Reference Energy          =    -363.0750633750361658 [Eh]
	 Singles Energy            =      -0.0000000000000000 [Eh]
	 Same-Spin Energy          =      -0.3775940656686755 [Eh]
	 Opposite-Spin Energy      =      -1.2475610146597336 [Eh]
	 Correlation Energy        =      -1.6251550803284092 [Eh]
	 Total Energy              =    -364.7002184553645634 [Eh]

	 ================> DF-SCS-MP2 Energies <==================
	-----------------------------------------------------------
	 SCS Same-Spin Scale       =       0.3333333333333333 [-]
	 SCS Opposite-Spin Scale   =       1.2000000000000000 [-]
	 SCS Same-Spin Energy      =      -0.1258646885562252 [Eh]
	 SCS Opposite-Spin Energy  =      -1.4970732175916803 [Eh]
	 SCS Correlation Energy    =      -1.6229379061479055 [Eh]
	 SCS Total Energy          =    -364.6980012811840766 [Eh]
	-----------------------------------------------------------

  Dipole Moment: [D]
     X:     4.0707      Y:    -1.0375      Z:     0.8915     Total:     4.2943

*** Psi4 exiting successfully. Buy a developer a beer!
