                               Psi4 1.3.2 release

  ==> Input File <==

--------------------------------------------------------------------------
#psi4
#
memory 32 gb

molecule  {
0 1
  O       -2.5416370     0.0659770    -0.3927070
  N       -0.7122740    -1.2241950    -0.0249760
  C        1.8380290     0.7314390    -0.0343340
  C        1.7187040    -0.7521010    -0.3806110
  C        0.5749500     1.5632640    -0.2598230
  C        0.7869280    -1.3956455     0.3141408
  C       -0.6257670     1.1444980     0.6024810
  C       -1.3868420    -0.0349600     0.0307530
  H        2.6566510     1.1652070    -0.6217190
  H        2.1344690     0.8237010     1.0199600
  H        1.5025340    -0.8781880    -1.4483810
  H        2.6863370    -1.2343500    -0.1898600
  H        0.2863390     1.5300770    -1.3181450
  H        0.8108260     2.6104720    -0.0371320
  H        0.7923570    -2.5718330     0.3164690
  H        0.7525260    -1.2638240     1.4882170
  H       -1.3561390     1.9546950     0.6612310
  H       -0.2921570     0.9237120     1.6255030
  H       -1.2491170    -1.9758090    -0.4428220
units angstrom
no_reorient  #important for SAPT in psi4, default
symmetry c1  #important for SAPT in psi4, default
}

set PROPERTIES_ORIGIN ["COM"]
properties('MP2/aug-cc-pvtz', properties = ['dipole'])
--------------------------------------------------------------------------

    Molecular point group: c1
  Charge       = 0
  Multiplicity = 1
  Basis Set: AUG-CC-PVTZ
    Blend: AUG-CC-PVTZ
  Basis Set: (AUG-CC-PVTZ AUX)
    Blend: AUG-CC-PVTZ-JKFIT

    Orbital Energies [Eh]
    ---------------------

    Doubly Occupied:

       1A    -20.505073     2A    -15.575575     3A    -11.337633
       4A    -11.290232     5A    -11.238340     6A    -11.236982
       7A    -11.234620     8A    -11.229443     9A     -1.358740
      10A     -1.215433    11A     -1.113362    12A     -1.062838
      13A     -0.952886    14A     -0.875237    15A     -0.799038
      16A     -0.757947    17A     -0.686600    18A     -0.675761
      19A     -0.637428    20A     -0.621417    21A     -0.596124
      22A     -0.586286    23A     -0.567664    24A     -0.562278
      25A     -0.514442    26A     -0.500416    27A     -0.479418
      28A     -0.478011    29A     -0.455306    30A     -0.404979
      31A     -0.385195

  @DF-RHF Final Energy:  -363.02550425545678

   => Energetics <=

    Nuclear Repulsion Energy =            395.4852973396460811
    One-Electron Energy =               -1277.1521925133138211
    Two-Electron Energy =                 518.6413909182109592
    Total Energy =                       -363.0255042554567808
  Basis Set: (AUG-CC-PVTZ AUX)
    Blend: AUG-CC-PVTZ-RI
    Molecular point group: c1

    Geometry (in Angstrom), charge = 0, multiplicity = 1:

       Center              X                  Y                   Z               Mass
    ------------   -----------------  -----------------  -----------------  -----------------
         O           -2.480068892012     0.065242338214    -0.372383969856    15.994914619570
         N           -0.650705892012    -1.224929661786    -0.004652969856    14.003074004430
         C            1.899597107988     0.730704338214    -0.014010969856    12.000000000000
         C            1.780272107988    -0.752835661786    -0.360287969856    12.000000000000
         C            0.636518107988     1.562529338214    -0.239499969856    12.000000000000
         C            0.848496107988    -1.396380161786     0.334463830144    12.000000000000
         C           -0.564198892012     1.143763338214     0.622804030144    12.000000000000
         C           -1.325273892012    -0.035694661786     0.051076030144    12.000000000000
         H            2.718219107988     1.164472338214    -0.601395969856     1.007825032230
         H            2.196037107988     0.822966338214     1.040283030144     1.007825032230
         H            1.564102107988    -0.878922661786    -1.428057969856     1.007825032230
         H            2.747905107988    -1.235084661786    -0.169536969856     1.007825032230
         H            0.347907107988     1.529342338214    -1.297821969856     1.007825032230
         H            0.872394107988     2.609737338214    -0.016808969856     1.007825032230
         H            0.853925107988    -2.572567661786     0.336792030144     1.007825032230
         H            0.814094107988    -1.264558661786     1.508540030144     1.007825032230
         H           -1.294570892012     1.953960338214     0.681554030144     1.007825032230
         H           -0.230588892012     0.922977338214     1.645826030144     1.007825032230
         H           -1.187548892012    -1.976543661786    -0.422498969856     1.007825032230

  Basis Set: AUG-CC-PVTZ
    Blend: AUG-CC-PVTZ
  Basis Set: (AUG-CC-PVTZ AUX)
    Blend: AUG-CC-PVTZ-JKFIT
	 Reference Energy          =    -363.0255042554567808 [Eh]
	 Singles Energy            =      -0.0000000000000000 [Eh]
	 Same-Spin Energy          =      -0.3806125872689178 [Eh]
	 Opposite-Spin Energy      =      -1.2520955243192669 [Eh]
	 Correlation Energy        =      -1.6327081115881845 [Eh]
	 Total Energy              =    -364.6582123670449391 [Eh]

	 ================> DF-SCS-MP2 Energies <==================
	-----------------------------------------------------------
	 SCS Same-Spin Scale       =       0.3333333333333333 [-]
	 SCS Opposite-Spin Scale   =       1.2000000000000000 [-]
	 SCS Same-Spin Energy      =      -0.1268708624229726 [Eh]
	 SCS Opposite-Spin Energy  =      -1.5025146291831202 [Eh]
	 SCS Correlation Energy    =      -1.6293854916060928 [Eh]
	 SCS Total Energy          =    -364.6548897470628958 [Eh]
	-----------------------------------------------------------

  Dipole Moment: [D]
     X:     4.4520      Y:    -0.9172      Z:     0.7364     Total:     4.6048

*** Psi4 exiting successfully. Buy a developer a beer!
