                               Psi4 1.3.2 release

  ==> Input File <==

--------------------------------------------------------------------------
#psi4
#
memory 32 gb

molecule  {
0 1
  O       -2.5416370     0.0659770    -0.3927070
  N       -0.7315968    -1.2344675    -0.0345398
  C        1.8380290     0.7314390    -0.0343340
  C        1.7187040    -0.7521010    -0.3806110
  C        0.5749500     1.5632640    -0.2598230
  C        0.6466580    -1.4925250     0.4187290
  C       -0.6257670     1.1444980     0.6024810
  C       -1.3868420    -0.0349600     0.0307530
  H        2.6566510     1.1652070    -0.6217190
  H        2.1344690     0.8237010     1.0199600
  H        1.5025340    -0.8781880    -1.4483810
  H        2.6863370    -1.2343500    -0.1898600
  H        0.2863390     1.5300770    -1.3181450
  H        0.8108260     2.6104720    -0.0371320
  H        0.7923570    -2.5718330     0.3164690
  H        0.7525260    -1.2638240     1.4882170
  H       -1.3561390     1.9546950     0.6612310
  H       -0.2921570     0.9237120     1.6255030
  H       -1.2491170    -1.9758090    -0.4428220
units angstrom
no_reorient  #important for SAPT in psi4, default
symmetry c1  #important for SAPT in psi4, default
}

set PROPERTIES_ORIGIN ["COM"]
properties('MP2/aug-cc-pvtz', properties = ['dipole'])
--------------------------------------------------------------------------

    Molecular point group: c1
  Charge       = 0
  Multiplicity = 1
  Basis Set: AUG-CC-PVTZ
    Blend: AUG-CC-PVTZ
  Basis Set: (AUG-CC-PVTZ AUX)
    Blend: AUG-CC-PVTZ-JKFIT

    Orbital Energies [Eh]
    ---------------------

    Doubly Occupied:

       1A    -20.507663     2A    -15.576804     3A    -11.342319
       4A    -11.278435     5A    -11.237238     6A    -11.236624
       7A    -11.235015     8A    -11.233365     9A     -1.363060
      10A     -1.224819    11A     -1.094906    12A     -1.041685
      13A     -0.946709    14A     -0.886766    15A     -0.795668
      16A     -0.768729    17A     -0.685209    18A     -0.676255
      19A     -0.626955    20A     -0.612232    21A     -0.601495
      22A     -0.590194    23A     -0.570495    24A     -0.545102
      25A     -0.520445    26A     -0.515493    27A     -0.481649
      28A     -0.471111    29A     -0.469498    30A     -0.409916
      31A     -0.383021

  @DF-RHF Final Energy:  -363.07552643416602

   => Energetics <=

    Nuclear Repulsion Energy =            393.7650594014395438
    One-Electron Energy =               -1273.8234188267833815
    Two-Electron Energy =                 516.9828329911778155
    Total Energy =                       -363.0755264341660222
  Basis Set: (AUG-CC-PVTZ AUX)
    Blend: AUG-CC-PVTZ-RI
    Molecular point group: c1

    Geometry (in Angstrom), charge = 0, multiplicity = 1:

       Center              X                  Y                   Z               Mass
    ------------   -----------------  -----------------  -----------------  -----------------
         O           -2.462791315229     0.076794811053    -0.382298150169    15.994914619570
         N           -0.652751115229    -1.223649688947    -0.024130950169    14.003074004430
         C            1.916874684771     0.742256811053    -0.023925150169    12.000000000000
         C            1.797549684771    -0.741283188947    -0.370202150169    12.000000000000
         C            0.653795684771     1.574081811053    -0.249414150169    12.000000000000
         C            0.725503684771    -1.481707188947     0.429137849831    12.000000000000
         C           -0.546921315229     1.155315811053     0.612889849831    12.000000000000
         C           -1.307996315229    -0.024142188947     0.041161849831    12.000000000000
         H            2.735496684771     1.176024811053    -0.611310150169     1.007825032230
         H            2.213314684771     0.834518811053     1.030368849831     1.007825032230
         H            1.581379684771    -0.867370188947    -1.437972150169     1.007825032230
         H            2.765182684771    -1.223532188947    -0.179451150169     1.007825032230
         H            0.365184684771     1.540894811053    -1.307736150169     1.007825032230
         H            0.889671684771     2.621289811053    -0.026723150169     1.007825032230
         H            0.871202684771    -2.561015188947     0.326877849831     1.007825032230
         H            0.831371684771    -1.253006188947     1.498625849831     1.007825032230
         H           -1.277293315229     1.965512811053     0.671639849831     1.007825032230
         H           -0.213311315229     0.934529811053     1.635911849831     1.007825032230
         H           -1.170271315229    -1.964991188947    -0.432413150169     1.007825032230

  Basis Set: AUG-CC-PVTZ
    Blend: AUG-CC-PVTZ
  Basis Set: (AUG-CC-PVTZ AUX)
    Blend: AUG-CC-PVTZ-JKFIT
	 Reference Energy          =    -363.0755264341660222 [Eh]
	 Singles Energy            =      -0.0000000000000000 [Eh]
	 Same-Spin Energy          =      -0.3773880070544356 [Eh]
	 Opposite-Spin Energy      =      -1.2472408602022336 [Eh]
	 Correlation Energy        =      -1.6246288672566691 [Eh]
	 Total Energy              =    -364.7001553014226829 [Eh]

	 ================> DF-SCS-MP2 Energies <==================
	-----------------------------------------------------------
	 SCS Same-Spin Scale       =       0.3333333333333333 [-]
	 SCS Opposite-Spin Scale   =       1.2000000000000000 [-]
	 SCS Same-Spin Energy      =      -0.1257960023514785 [Eh]
	 SCS Opposite-Spin Energy  =      -1.4966890322426802 [Eh]
	 SCS Correlation Energy    =      -1.6224850345941588 [Eh]
	 SCS Total Energy          =    -364.6980114687601713 [Eh]
	-----------------------------------------------------------

  Dipole Moment: [D]
     X:     4.1121      Y:    -1.0099      Z:     0.9083     Total:     4.3306

*** Psi4 exiting successfully. Buy a developer a beer!
