                               Psi4 1.3.2 release

  ==> Input File <==

--------------------------------------------------------------------------
#psi4
#
memory 32 gb

molecule  {
0 1
  O       -2.5416370     0.0659770    -0.3927070
  N       -0.7122740    -1.2241950    -0.0249760
  C        1.8380290     0.7314390    -0.0343340
  C        1.7389247    -0.7992207    -0.3953579
  C        0.5749500     1.5632640    -0.2598230
  C        0.6466580    -1.4925250     0.4187290
  C       -0.6257670     1.1444980     0.6024810
  C       -1.3868420    -0.0349600     0.0307530
  H        2.6566510     1.1652070    -0.6217190
  H        2.1344690     0.8237010     1.0199600
  H        1.5025340    -0.8781880    -1.4483810
  H        2.6863370    -1.2343500    -0.1898600
  H        0.2863390     1.5300770    -1.3181450
  H        0.8108260     2.6104720    -0.0371320
  H        0.7923570    -2.5718330     0.3164690
  H        0.7525260    -1.2638240     1.4882170
  H       -1.3561390     1.9546950     0.6612310
  H       -0.2921570     0.9237120     1.6255030
  H       -1.2491170    -1.9758090    -0.4428220
units angstrom
no_reorient  #important for SAPT in psi4, default
symmetry c1  #important for SAPT in psi4, default
}

set PROPERTIES_ORIGIN ["COM"]
properties('MP2/aug-cc-pvtz', properties = ['dipole'])
--------------------------------------------------------------------------

    Molecular point group: c1
  Charge       = 0
  Multiplicity = 1
  Basis Set: AUG-CC-PVTZ
    Blend: AUG-CC-PVTZ
  Basis Set: (AUG-CC-PVTZ AUX)
    Blend: AUG-CC-PVTZ-JKFIT

    Orbital Energies [Eh]
    ---------------------

    Doubly Occupied:

       1A    -20.509196     2A    -15.579329     3A    -11.343103
       4A    -11.276996     5A    -11.236769     6A    -11.235783
       7A    -11.234369     8A    -11.232345     9A     -1.363560
      10A     -1.228021    11A     -1.089624    12A     -1.041779
      13A     -0.944029    14A     -0.888149    15A     -0.797806
      16A     -0.763668    17A     -0.688625    18A     -0.675652
      19A     -0.625793    20A     -0.611087    21A     -0.600612
      22A     -0.591203    23A     -0.573750    24A     -0.545164
      25A     -0.521085    26A     -0.517151    27A     -0.483201
      28A     -0.472388    29A     -0.459296    30A     -0.410682
      31A     -0.383789

  @DF-RHF Final Energy:  -363.07333668020522

   => Energetics <=

    Nuclear Repulsion Energy =            393.3749002756934487
    One-Electron Energy =               -1273.0484636035535004
    Two-Electron Energy =                 516.6002266476548357
    Total Energy =                       -363.0733366802052160
  Basis Set: (AUG-CC-PVTZ AUX)
    Blend: AUG-CC-PVTZ-RI
    Molecular point group: c1

    Geometry (in Angstrom), charge = 0, multiplicity = 1:

       Center              X                  Y                   Z               Mass
    ------------   -----------------  -----------------  -----------------  -----------------
         O           -2.467329770784     0.080522920987    -0.381917546578    15.994914619570
         N           -0.637966770784    -1.209649079013    -0.014186546578    14.003074004430
         C            1.912336229216     0.745984920987    -0.023544546578    12.000000000000
         C            1.813231929216    -0.784674779013    -0.384568446578    12.000000000000
         C            0.649257229216     1.577809920987    -0.249033546578    12.000000000000
         C            0.720965229216    -1.477979079013     0.429518453422    12.000000000000
         C           -0.551459770784     1.159043920987     0.613270453422    12.000000000000
         C           -1.312534770784    -0.020414079013     0.041542453422    12.000000000000
         H            2.730958229216     1.179752920987    -0.610929546578     1.007825032230
         H            2.208776229216     0.838246920987     1.030749453422     1.007825032230
         H            1.576841229216    -0.863642079013    -1.437591546578     1.007825032230
         H            2.760644229216    -1.219804079013    -0.179070546578     1.007825032230
         H            0.360646229216     1.544622920987    -1.307355546578     1.007825032230
         H            0.885133229216     2.625017920987    -0.026342546578     1.007825032230
         H            0.866664229216    -2.557287079013     0.327258453422     1.007825032230
         H            0.826833229216    -1.249278079013     1.499006453422     1.007825032230
         H           -1.281831770784     1.969240920987     0.672020453422     1.007825032230
         H           -0.217849770784     0.938257920987     1.636292453422     1.007825032230
         H           -1.174809770784    -1.961263079013    -0.432032546578     1.007825032230

  Basis Set: AUG-CC-PVTZ
    Blend: AUG-CC-PVTZ
  Basis Set: (AUG-CC-PVTZ AUX)
    Blend: AUG-CC-PVTZ-JKFIT
	 Reference Energy          =    -363.0733366802052160 [Eh]
	 Singles Energy            =      -0.0000000000000000 [Eh]
	 Same-Spin Energy          =      -0.3774701687641975 [Eh]
	 Opposite-Spin Energy      =      -1.2474913678581114 [Eh]
	 Correlation Energy        =      -1.6249615366223089 [Eh]
	 Total Energy              =    -364.6982982168275385 [Eh]

	 ================> DF-SCS-MP2 Energies <==================
	-----------------------------------------------------------
	 SCS Same-Spin Scale       =       0.3333333333333333 [-]
	 SCS Opposite-Spin Scale   =       1.2000000000000000 [-]
	 SCS Same-Spin Energy      =      -0.1258233895880658 [Eh]
	 SCS Opposite-Spin Energy  =      -1.4969896414297337 [Eh]
	 SCS Correlation Energy    =      -1.6228130310177995 [Eh]
	 SCS Total Energy          =    -364.6961497112230290 [Eh]
	-----------------------------------------------------------

  Dipole Moment: [D]
     X:     4.0724      Y:    -1.0450      Z:     0.8888     Total:     4.2972

*** Psi4 exiting successfully. Buy a developer a beer!
