                               Psi4 1.3.2 release

  ==> Input File <==

--------------------------------------------------------------------------
#psi4
#
memory 32 gb

molecule  {
0 1
  O       -2.5416370     0.0659770    -0.3927070
  N       -0.7122740    -1.2241950    -0.0249760
  C        1.7203101     0.7076289     0.0712998
  C        1.7187040    -0.7521010    -0.3806110
  C        0.5749500     1.5632640    -0.2598230
  C        0.6466580    -1.4925250     0.4187290
  C       -0.6257670     1.1444980     0.6024810
  C       -1.3868420    -0.0349600     0.0307530
  H        2.6566510     1.1652070    -0.6217190
  H        2.1344690     0.8237010     1.0199600
  H        1.5025340    -0.8781880    -1.4483810
  H        2.6863370    -1.2343500    -0.1898600
  H        0.2863390     1.5300770    -1.3181450
  H        0.8108260     2.6104720    -0.0371320
  H        0.7923570    -2.5718330     0.3164690
  H        0.7525260    -1.2638240     1.4882170
  H       -1.3561390     1.9546950     0.6612310
  H       -0.2921570     0.9237120     1.6255030
  H       -1.2491170    -1.9758090    -0.4428220
units angstrom
no_reorient  #important for SAPT in psi4, default
symmetry c1  #important for SAPT in psi4, default
}

set PROPERTIES_ORIGIN ["COM"]
properties('MP2/aug-cc-pvtz', properties = ['dipole'])
--------------------------------------------------------------------------

    Molecular point group: c1
  Charge       = 0
  Multiplicity = 1
  Basis Set: AUG-CC-PVTZ
    Blend: AUG-CC-PVTZ
  Basis Set: (AUG-CC-PVTZ AUX)
    Blend: AUG-CC-PVTZ-JKFIT

    Orbital Energies [Eh]
    ---------------------

    Doubly Occupied:

       1A    -20.509322     2A    -15.579138     3A    -11.343422
       4A    -11.275165     5A    -11.239645     6A    -11.237128
       7A    -11.236576     8A    -11.234367     9A     -1.363813
      10A     -1.229283    11A     -1.104718    12A     -1.044118
      13A     -0.943917    14A     -0.890171    15A     -0.800099
      16A     -0.764333    17A     -0.690196    18A     -0.673789
      19A     -0.626325    20A     -0.618405    21A     -0.612062
      22A     -0.592468    23A     -0.563838    24A     -0.542604
      25A     -0.520899    26A     -0.514669    27A     -0.503034
      28A     -0.478685    29A     -0.434727    30A     -0.408719
      31A     -0.381019

  @DF-RHF Final Energy:  -363.04972629354819

   => Energetics <=

    Nuclear Repulsion Energy =            395.8499198955233851
    One-Electron Energy =               -1277.8859861349847051
    Two-Electron Energy =                 518.9863399459131870
    Total Energy =                       -363.0497262935481331
  Basis Set: (AUG-CC-PVTZ AUX)
    Blend: AUG-CC-PVTZ-RI
    Molecular point group: c1

    Geometry (in Angstrom), charge = 0, multiplicity = 1:

       Center              X                  Y                   Z               Mass
    ------------   -----------------  -----------------  -----------------  -----------------
         O           -2.452692206995     0.078049405355    -0.394691834565    15.994914619570
         N           -0.623329206995    -1.212122594645    -0.026960834565    14.003074004430
         C            1.809254893005     0.719701305355     0.069314965435    12.000000000000
         C            1.807648793005    -0.740028594645    -0.382595834565    12.000000000000
         C            0.663894793005     1.575336405355    -0.261807834565    12.000000000000
         C            0.735602793005    -1.480452594645     0.416744165435    12.000000000000
         C           -0.536822206995     1.156570405355     0.600496165435    12.000000000000
         C           -1.297897206995    -0.022887594645     0.028768165435    12.000000000000
         H            2.745595793005     1.177279405355    -0.623703834565     1.007825032230
         H            2.223413793005     0.835773405355     1.017975165435     1.007825032230
         H            1.591478793005    -0.866115594645    -1.450365834565     1.007825032230
         H            2.775281793005    -1.222277594645    -0.191844834565     1.007825032230
         H            0.375283793005     1.542149405355    -1.320129834565     1.007825032230
         H            0.899770793005     2.622544405355    -0.039116834565     1.007825032230
         H            0.881301793005    -2.559760594645     0.314484165435     1.007825032230
         H            0.841470793005    -1.251751594645     1.486232165435     1.007825032230
         H           -1.267194206995     1.966767405355     0.659246165435     1.007825032230
         H           -0.203212206995     0.935784405355     1.623518165435     1.007825032230
         H           -1.160172206995    -1.963736594645    -0.444806834565     1.007825032230

  Basis Set: AUG-CC-PVTZ
    Blend: AUG-CC-PVTZ
  Basis Set: (AUG-CC-PVTZ AUX)
    Blend: AUG-CC-PVTZ-JKFIT
	 Reference Energy          =    -363.0497262935481899 [Eh]
	 Singles Energy            =      -0.0000000000000000 [Eh]
	 Same-Spin Energy          =      -0.3789134139665902 [Eh]
	 Opposite-Spin Energy      =      -1.2499233677535186 [Eh]
	 Correlation Energy        =      -1.6288367817201088 [Eh]
	 Total Energy              =    -364.6785630752683005 [Eh]

	 ================> DF-SCS-MP2 Energies <==================
	-----------------------------------------------------------
	 SCS Same-Spin Scale       =       0.3333333333333333 [-]
	 SCS Opposite-Spin Scale   =       1.2000000000000000 [-]
	 SCS Same-Spin Energy      =      -0.1263044713221967 [Eh]
	 SCS Opposite-Spin Energy  =      -1.4999080413042223 [Eh]
	 SCS Correlation Energy    =      -1.6262125126264191 [Eh]
	 SCS Total Energy          =    -364.6759388061745994 [Eh]
	-----------------------------------------------------------

  Dipole Moment: [D]
     X:     3.9921      Y:    -1.0648      Z:     0.9422     Total:     4.2378

*** Psi4 exiting successfully. Buy a developer a beer!
