                               Psi4 1.4a3.dev225

  ==> Input File <==

--------------------------------------------------------------------------
#psi4
#
memory 32 gb

molecule  {
0 1
  O       -2.5416370     0.0659770    -0.3927070
  N       -0.7122740    -1.2241950    -0.0249760
  C        1.8380290     0.7314390    -0.0343340
  C        1.7187040    -0.7521010    -0.3806110
  C        0.5749500     1.5632640    -0.2598230
  C        0.6466580    -1.4925250     0.4187290
  C       -0.6257670     1.1444980     0.6024810
  C       -1.3868420    -0.0349600     0.0307530
  H        2.6566510     1.1652070    -0.6217190
  H        2.1344690     0.8237010     1.0199600
  H        1.5064762    -0.8758886    -1.4289087
  H        2.6863370    -1.2343500    -0.1898600
  H        0.2863390     1.5300770    -1.3181450
  H        0.8108260     2.6104720    -0.0371320
  H        0.7923570    -2.5718330     0.3164690
  H        0.7525260    -1.2638240     1.4882170
  H       -1.3561390     1.9546950     0.6612310
  H       -0.2921570     0.9237120     1.6255030
  H       -1.2491170    -1.9758090    -0.4428220
units angstrom
no_reorient  #important for SAPT in psi4, default
symmetry c1  #important for SAPT in psi4, default
}

set PROPERTIES_ORIGIN ["COM"]
properties('MP2/aug-cc-pvtz', properties = ['dipole'])
--------------------------------------------------------------------------

    Molecular point group: c1
  Charge       = 0
  Multiplicity = 1
  Basis Set: AUG-CC-PVTZ
    Blend: AUG-CC-PVTZ
  Basis Set: (AUG-CC-PVTZ AUX)
    Blend: AUG-CC-PVTZ-JKFIT

    Orbital Energies [Eh]
    ---------------------

    Doubly Occupied:

       1A    -20.509059     2A    -15.578682     3A    -11.343030
       4A    -11.277121     5A    -11.236630     6A    -11.235931
       7A    -11.232985     8A    -11.231734     9A     -1.363457
      10A     -1.228289    11A     -1.094175    12A     -1.042645
      13A     -0.945331    14A     -0.889087    15A     -0.796793
      16A     -0.764061    17A     -0.688195    18A     -0.676798
      19A     -0.626369    20A     -0.612329    21A     -0.602162
      22A     -0.591851    23A     -0.569956    24A     -0.545150
      25A     -0.519462    26A     -0.517146    27A     -0.482085
      28A     -0.470486    29A     -0.469252    30A     -0.410581
      31A     -0.382699

  @DF-RHF Final Energy:  -363.07552324208331

   => Energetics <=

    Nuclear Repulsion Energy =            394.1801468781123958
    One-Electron Energy =               -1274.6442846435040792
    Two-Electron Energy =                 517.3886145233083198
    Total Energy =                       -363.0755232420833636
  Basis Set: (AUG-CC-PVTZ AUX)
    Blend: AUG-CC-PVTZ-RI
    Molecular point group: c1

    Geometry (in Angstrom), charge = 0, multiplicity = 1:

       Center              X                  Y                   Z               Mass
    ------------   -----------------  -----------------  -----------------  -----------------
         O           -2.465219169663     0.075502286135    -0.383655965454    15.994914619570
         N           -0.635856169663    -1.214669713865    -0.015924965454    14.003074004430
         C            1.914446830337     0.740964286135    -0.025282965454    12.000000000000
         C            1.795121830337    -0.742575713865    -0.371559965454    12.000000000000
         C            0.651367830337     1.572789286135    -0.250771965454    12.000000000000
         C            0.723075830337    -1.482999713865     0.427780034546    12.000000000000
         C           -0.549349169663     1.154023286135     0.611532034546    12.000000000000
         C           -1.310424169663    -0.025434713865     0.039804034546    12.000000000000
         H            2.733068830337     1.174732286135    -0.612667965454     1.007825032230
         H            2.210886830337     0.833226286135     1.029011034546     1.007825032230
         H            1.582894030337    -0.866363313865    -1.419857665454     1.007825032230
         H            2.762754830337    -1.224824713865    -0.180808965454     1.007825032230
         H            0.362756830337     1.539602286135    -1.309093965454     1.007825032230
         H            0.887243830337     2.619997286135    -0.028080965454     1.007825032230
         H            0.868774830337    -2.562307713865     0.325520034546     1.007825032230
         H            0.828943830337    -1.254298713865     1.497268034546     1.007825032230
         H           -1.279721169663     1.964220286135     0.670282034546     1.007825032230
         H           -0.215739169663     0.933237286135     1.634554034546     1.007825032230
         H           -1.172699169663    -1.966283713865    -0.433770965454     1.007825032230

  Basis Set: AUG-CC-PVTZ
    Blend: AUG-CC-PVTZ
  Basis Set: (AUG-CC-PVTZ AUX)
    Blend: AUG-CC-PVTZ-JKFIT
	 Reference Energy          =    -363.0755232420833067 [Eh]
	 Singles Energy            =      -0.0000000000000000 [Eh]
	 Same-Spin Energy          =      -0.3777172857670090 [Eh]
	 Opposite-Spin Energy      =      -1.2475378651152080 [Eh]
	 Correlation Energy        =      -1.6252551508822171 [Eh]
	 Total Energy              =    -364.7007783929655034 [Eh]

	 ================> DF-SCS-MP2 Energies <==================
	-----------------------------------------------------------
	 SCS Same-Spin Scale       =       0.3333333333333333 [-]
	 SCS Opposite-Spin Scale   =       1.2000000000000000 [-]
	 SCS Same-Spin Energy      =      -0.1259057619223363 [Eh]
	 SCS Opposite-Spin Energy  =      -1.4970454381382496 [Eh]
	 SCS Correlation Energy    =      -1.6229512000605859 [Eh]
	 SCS Total Energy          =    -364.6984744421438904 [Eh]
	-----------------------------------------------------------

  Dipole Moment: [D]
     X:     4.0722      Y:    -1.0397      Z:     0.8848     Total:     4.2950

*** Psi4 exiting successfully. Buy a developer a beer!
