                               Psi4 1.4a3.dev225

  ==> Input File <==

--------------------------------------------------------------------------
#psi4
#
memory 32 gb

molecule  {
0 1
  O       -2.5416370     0.0659770    -0.3927070
  N       -0.7122740    -1.2241950    -0.0249760
  C        1.8380290     0.7314390    -0.0343340
  C        1.7187040    -0.7521010    -0.3806110
  C        0.5749500     1.5632640    -0.2598230
  C        0.6466580    -1.4925250     0.4187290
  C       -0.6648416     1.1308702     0.6305427
  C       -1.3868420    -0.0349600     0.0307530
  H        2.6566510     1.1652070    -0.6217190
  H        2.1344690     0.8237010     1.0199600
  H        1.5025340    -0.8781880    -1.4483810
  H        2.6863370    -1.2343500    -0.1898600
  H        0.2863390     1.5300770    -1.3181450
  H        0.8108260     2.6104720    -0.0371320
  H        0.7923570    -2.5718330     0.3164690
  H        0.7525260    -1.2638240     1.4882170
  H       -1.3561390     1.9546950     0.6612310
  H       -0.2921570     0.9237120     1.6255030
  H       -1.2491170    -1.9758090    -0.4428220
units angstrom
no_reorient  #important for SAPT in psi4, default
symmetry c1  #important for SAPT in psi4, default
}

set PROPERTIES_ORIGIN ["COM"]
properties('MP2/aug-cc-pvtz', properties = ['dipole'])
--------------------------------------------------------------------------

    Molecular point group: c1
  Charge       = 0
  Multiplicity = 1
  Basis Set: AUG-CC-PVTZ
    Blend: AUG-CC-PVTZ
  Basis Set: (AUG-CC-PVTZ AUX)
    Blend: AUG-CC-PVTZ-JKFIT

    Orbital Energies [Eh]
    ---------------------

    Doubly Occupied:

       1A    -20.507885     2A    -15.578576     3A    -11.342020
       4A    -11.277378     5A    -11.239358     6A    -11.234452
       7A    -11.234306     8A    -11.233256     9A     -1.363434
      10A     -1.228085    11A     -1.090508    12A     -1.040741
      13A     -0.947615    14A     -0.888232    15A     -0.794382
      16A     -0.766038    17A     -0.687769    18A     -0.678155
      19A     -0.624725    20A     -0.611059    21A     -0.603086
      22A     -0.591160    23A     -0.574257    24A     -0.541617
      25A     -0.520664    26A     -0.517029    27A     -0.481773
      28A     -0.472645    29A     -0.462909    30A     -0.411200
      31A     -0.382574

  @DF-RHF Final Energy:  -363.07413819463000

   => Energetics <=

    Nuclear Repulsion Energy =            393.7945179439749381
    One-Electron Energy =               -1273.8835305069369497
    Two-Electron Energy =                 517.0148743683320163
    Total Energy =                       -363.0741381946299953
  Basis Set: (AUG-CC-PVTZ AUX)
    Blend: AUG-CC-PVTZ-RI
    Molecular point group: c1

    Geometry (in Angstrom), charge = 0, multiplicity = 1:

       Center              X                  Y                   Z               Mass
    ------------   -----------------  -----------------  -----------------  -----------------
         O           -2.461037605690     0.076968902978    -0.386460213174    15.994914619570
         N           -0.631674605690    -1.213203097022    -0.018729213174    14.003074004430
         C            1.918628394310     0.742430902978    -0.028087213174    12.000000000000
         C            1.799303394310    -0.741109097022    -0.374364213174    12.000000000000
         C            0.655549394310     1.574255902978    -0.253576213174    12.000000000000
         C            0.727257394310    -1.481533097022     0.424975786826    12.000000000000
         C           -0.584242205690     1.141862102978     0.636789486826    12.000000000000
         C           -1.306242605690    -0.023968097022     0.036999786826    12.000000000000
         H            2.737250394310     1.176198902978    -0.615472213174     1.007825032230
         H            2.215068394310     0.834692902978     1.026206786826     1.007825032230
         H            1.583133394310    -0.867196097022    -1.442134213174     1.007825032230
         H            2.766936394310    -1.223358097022    -0.183613213174     1.007825032230
         H            0.366938394310     1.541068902978    -1.311898213174     1.007825032230
         H            0.891425394310     2.621463902978    -0.030885213174     1.007825032230
         H            0.872956394310    -2.560841097022     0.322715786826     1.007825032230
         H            0.833125394310    -1.252832097022     1.494463786826     1.007825032230
         H           -1.275539605690     1.965686902978     0.667477786826     1.007825032230
         H           -0.211557605690     0.934703902978     1.631749786826     1.007825032230
         H           -1.168517605690    -1.964817097022    -0.436575213174     1.007825032230

  Basis Set: AUG-CC-PVTZ
    Blend: AUG-CC-PVTZ
  Basis Set: (AUG-CC-PVTZ AUX)
    Blend: AUG-CC-PVTZ-JKFIT
	 Reference Energy          =    -363.0741381946299953 [Eh]
	 Singles Energy            =      -0.0000000000000000 [Eh]
	 Same-Spin Energy          =      -0.3775257375813119 [Eh]
	 Opposite-Spin Energy      =      -1.2474595263391146 [Eh]
	 Correlation Energy        =      -1.6249852639204265 [Eh]
	 Total Energy              =    -364.6991234585504458 [Eh]

	 ================> DF-SCS-MP2 Energies <==================
	-----------------------------------------------------------
	 SCS Same-Spin Scale       =       0.3333333333333333 [-]
	 SCS Opposite-Spin Scale   =       1.2000000000000000 [-]
	 SCS Same-Spin Energy      =      -0.1258419125271039 [Eh]
	 SCS Opposite-Spin Energy  =      -1.4969514316069374 [Eh]
	 SCS Correlation Energy    =      -1.6227933441340414 [Eh]
	 SCS Total Energy          =    -364.6969315387640336 [Eh]
	-----------------------------------------------------------

  Dipole Moment: [D]
     X:     4.0971      Y:    -1.0126      Z:     0.9192     Total:     4.3193

*** Psi4 exiting successfully. Buy a developer a beer!
