                               Psi4 1.4a3.dev225

  ==> Input File <==

--------------------------------------------------------------------------
#psi4
#
memory 32 gb

molecule  {
0 1
  O       -2.5416370     0.0659770    -0.3927070
  N       -0.7122740    -1.2241950    -0.0249760
  C        1.8380290     0.7314390    -0.0343340
  C        1.7187040    -0.7521010    -0.3806110
  C        0.5749500     1.5632640    -0.2598230
  C        0.6466580    -1.4925250     0.4187290
  C       -0.6257670     1.1444980     0.6024810
  C       -1.3868420    -0.0349600     0.0307530
  H        2.6566510     1.1652070    -0.6217190
  H        2.1344690     0.8237010     1.0199600
  H        1.5025340    -0.8781880    -1.4483810
  H        2.6863370    -1.2343500    -0.1898600
  H        0.2863390     1.5300770    -1.3181450
  H        0.8108260     2.6104720    -0.0371320
  H        0.7923570    -2.5718330     0.3164690
  H        0.7525260    -1.2638240     1.4882170
  H       -1.3561390     1.9546950     0.6612310
  H       -0.2921570     0.9237120     1.6255030
  H       -1.2755947    -2.0128794    -0.4634306
units angstrom
no_reorient  #important for SAPT in psi4, default
symmetry c1  #important for SAPT in psi4, default
}

set PROPERTIES_ORIGIN ["COM"]
properties('MP2/aug-cc-pvtz', properties = ['dipole'])
--------------------------------------------------------------------------

    Molecular point group: c1
  Charge       = 0
  Multiplicity = 1
  Basis Set: AUG-CC-PVTZ
    Blend: AUG-CC-PVTZ
  Basis Set: (AUG-CC-PVTZ AUX)
    Blend: AUG-CC-PVTZ-JKFIT

    Orbital Energies [Eh]
    ---------------------

    Doubly Occupied:

       1A    -20.508524     2A    -15.582890     3A    -11.342793
       4A    -11.277152     5A    -11.236590     6A    -11.235976
       7A    -11.234167     8A    -11.232897     9A     -1.362414
      10A     -1.223914    11A     -1.092859    12A     -1.041972
      13A     -0.943378    14A     -0.888015    15A     -0.794530
      16A     -0.755775    17A     -0.686703    18A     -0.675871
      19A     -0.624529    20A     -0.610659    21A     -0.601191
      22A     -0.591529    23A     -0.569486    24A     -0.543743
      25A     -0.518494    26A     -0.515064    27A     -0.481015
      28A     -0.470208    29A     -0.469206    30A     -0.410266
      31A     -0.381796

  @DF-RHF Final Energy:  -363.07170475343793

   => Energetics <=

    Nuclear Repulsion Energy =            393.7867939596565634
    One-Electron Energy =               -1273.9097868239753097
    Two-Electron Energy =                 517.0512881108808187
    Total Energy =                       -363.0717047534379844
  Basis Set: (AUG-CC-PVTZ AUX)
    Blend: AUG-CC-PVTZ-RI
    Molecular point group: c1

    Geometry (in Angstrom), charge = 0, multiplicity = 1:

       Center              X                  Y                   Z               Mass
    ------------   -----------------  -----------------  -----------------  -----------------
         O           -2.464948062174     0.075853156705    -0.383298757436    15.994914619570
         N           -0.635585062174    -1.214318843295    -0.015567757436    14.003074004430
         C            1.914717937826     0.741315156705    -0.024925757436    12.000000000000
         C            1.795392937826    -0.742224843295    -0.371202757436    12.000000000000
         C            0.651638937826     1.573140156705    -0.250414757436    12.000000000000
         C            0.723346937826    -1.482648843295     0.428137242564    12.000000000000
         C           -0.549078062174     1.154374156705     0.611889242564    12.000000000000
         C           -1.310153062174    -0.025083843295     0.040161242564    12.000000000000
         H            2.733339937826     1.175083156705    -0.612310757436     1.007825032230
         H            2.211157937826     0.833577156705     1.029368242564     1.007825032230
         H            1.579222937826    -0.868311843295    -1.438972757436     1.007825032230
         H            2.763025937826    -1.224473843295    -0.180451757436     1.007825032230
         H            0.363027937826     1.539953156705    -1.308736757436     1.007825032230
         H            0.887514937826     2.620348156705    -0.027723757436     1.007825032230
         H            0.869045937826    -2.561956843295     0.325877242564     1.007825032230
         H            0.829214937826    -1.253947843295     1.497625242564     1.007825032230
         H           -1.279450062174     1.964571156705     0.670639242564     1.007825032230
         H           -0.215468062174     0.933588156705     1.634911242564     1.007825032230
         H           -1.198905762174    -2.003003243295    -0.454022357436     1.007825032230

  Basis Set: AUG-CC-PVTZ
    Blend: AUG-CC-PVTZ
  Basis Set: (AUG-CC-PVTZ AUX)
    Blend: AUG-CC-PVTZ-JKFIT
	 Reference Energy          =    -363.0717047534379276 [Eh]
	 Singles Energy            =      -0.0000000000000000 [Eh]
	 Same-Spin Energy          =      -0.3781289732080297 [Eh]
	 Opposite-Spin Energy      =      -1.2486240673658417 [Eh]
	 Correlation Energy        =      -1.6267530405738715 [Eh]
	 Total Energy              =    -364.6984577940118015 [Eh]

	 ================> DF-SCS-MP2 Energies <==================
	-----------------------------------------------------------
	 SCS Same-Spin Scale       =       0.3333333333333333 [-]
	 SCS Opposite-Spin Scale   =       1.2000000000000000 [-]
	 SCS Same-Spin Energy      =      -0.1260429910693432 [Eh]
	 SCS Opposite-Spin Energy  =      -1.4983488808390100 [Eh]
	 SCS Correlation Energy    =      -1.6243918719083532 [Eh]
	 SCS Total Energy          =    -364.6960966253462857 [Eh]
	-----------------------------------------------------------

  Dipole Moment: [D]
     X:     4.0547      Y:    -1.0699      Z:     0.8801     Total:     4.2848

*** Psi4 exiting successfully. Buy a developer a beer!
