                               Psi4 1.4a3.dev225

  ==> Input File <==

--------------------------------------------------------------------------
#psi4
#
memory 32 gb

molecule  {
0 1
  O       -2.5416370     0.0659770    -0.3927070
  N       -0.7122740    -1.2241950    -0.0249760
  C        1.8380290     0.7314390    -0.0343340
  C        1.7187040    -0.7521010    -0.3806110
  C        0.5749500     1.5632640    -0.2598230
  C        0.6466580    -1.4925250     0.4187290
  C       -0.5866924     1.1581258     0.5744193
  C       -1.3868420    -0.0349600     0.0307530
  H        2.6566510     1.1652070    -0.6217190
  H        2.1344690     0.8237010     1.0199600
  H        1.5025340    -0.8781880    -1.4483810
  H        2.6863370    -1.2343500    -0.1898600
  H        0.2863390     1.5300770    -1.3181450
  H        0.8108260     2.6104720    -0.0371320
  H        0.7923570    -2.5718330     0.3164690
  H        0.7525260    -1.2638240     1.4882170
  H       -1.3561390     1.9546950     0.6612310
  H       -0.2921570     0.9237120     1.6255030
  H       -1.2491170    -1.9758090    -0.4428220
units angstrom
no_reorient  #important for SAPT in psi4, default
symmetry c1  #important for SAPT in psi4, default
}

set PROPERTIES_ORIGIN ["COM"]
properties('MP2/aug-cc-pvtz', properties = ['dipole'])
--------------------------------------------------------------------------

    Molecular point group: c1
  Charge       = 0
  Multiplicity = 1
  Basis Set: AUG-CC-PVTZ
    Blend: AUG-CC-PVTZ
  Basis Set: (AUG-CC-PVTZ AUX)
    Blend: AUG-CC-PVTZ-JKFIT

    Orbital Energies [Eh]
    ---------------------

    Doubly Occupied:

       1A    -20.510234     2A    -15.578747     3A    -11.344160
       4A    -11.277291     5A    -11.238303     6A    -11.234486
       7A    -11.233625     8A    -11.232856     9A     -1.363510
      10A     -1.228432    11A     -1.098517    12A     -1.043859
      13A     -0.943315    14A     -0.888637    15A     -0.796714
      16A     -0.761897    17A     -0.688221    18A     -0.676079
      19A     -0.628130    20A     -0.613109    21A     -0.600831
      22A     -0.592515    23A     -0.566237    24A     -0.550356
      25A     -0.518553    26A     -0.513190    27A     -0.480946
      28A     -0.475589    29A     -0.466093    30A     -0.409108
      31A     -0.382953

  @DF-RHF Final Energy:  -363.07229414284785

   => Energetics <=

    Nuclear Repulsion Energy =            394.3892118690209259
    One-Electron Energy =               -1275.0500299083130358
    Two-Electron Energy =                 517.5885238964441442
    Total Energy =                       -363.0722941428479089
  Basis Set: (AUG-CC-PVTZ AUX)
    Blend: AUG-CC-PVTZ-RI
    Molecular point group: c1

    Geometry (in Angstrom), charge = 0, multiplicity = 1:

       Center              X                  Y                   Z               Mass
    ------------   -----------------  -----------------  -----------------  -----------------
         O           -2.469330466479     0.074076654605    -0.380504636621    15.994914619570
         N           -0.639967466479    -1.216095345395    -0.012773636621    14.003074004430
         C            1.910335533521     0.739538654605    -0.022131636621    12.000000000000
         C            1.791010533521    -0.744001345395    -0.368408636621    12.000000000000
         C            0.647256533521     1.571363654605    -0.247620636621    12.000000000000
         C            0.718964533521    -1.484425345395     0.430931363379    12.000000000000
         C           -0.514385866479     1.166225454605     0.586621663379    12.000000000000
         C           -1.314535466479    -0.026860345395     0.042955363379    12.000000000000
         H            2.728957533521     1.173306654605    -0.609516636621     1.007825032230
         H            2.206775533521     0.831800654605     1.032162363379     1.007825032230
         H            1.574840533521    -0.870088345395    -1.436178636621     1.007825032230
         H            2.758643533521    -1.226250345395    -0.177657636621     1.007825032230
         H            0.358645533521     1.538176654605    -1.305942636621     1.007825032230
         H            0.883132533521     2.618571654605    -0.024929636621     1.007825032230
         H            0.864663533521    -2.563733345395     0.328671363379     1.007825032230
         H            0.824832533521    -1.255724345395     1.500419363379     1.007825032230
         H           -1.283832466479     1.962794654605     0.673433363379     1.007825032230
         H           -0.219850466479     0.931811654605     1.637705363379     1.007825032230
         H           -1.176810466479    -1.967709345395    -0.430619636621     1.007825032230

  Basis Set: AUG-CC-PVTZ
    Blend: AUG-CC-PVTZ
  Basis Set: (AUG-CC-PVTZ AUX)
    Blend: AUG-CC-PVTZ-JKFIT
	 Reference Energy          =    -363.0722941428478521 [Eh]
	 Singles Energy            =      -0.0000000000000000 [Eh]
	 Same-Spin Energy          =      -0.3781279935220367 [Eh]
	 Opposite-Spin Energy      =      -1.2482214948821369 [Eh]
	 Correlation Energy        =      -1.6263494884041736 [Eh]
	 Total Energy              =    -364.6986436312520254 [Eh]

	 ================> DF-SCS-MP2 Energies <==================
	-----------------------------------------------------------
	 SCS Same-Spin Scale       =       0.3333333333333333 [-]
	 SCS Opposite-Spin Scale   =       1.2000000000000000 [-]
	 SCS Same-Spin Energy      =      -0.1260426645073456 [Eh]
	 SCS Opposite-Spin Energy  =      -1.4978657938585642 [Eh]
	 SCS Correlation Energy    =      -1.6239084583659098 [Eh]
	 SCS Total Energy          =    -364.6962026012137699 [Eh]
	-----------------------------------------------------------

  Dipole Moment: [D]
     X:     4.0527      Y:    -1.0589      Z:     0.8672     Total:     4.2776

*** Psi4 exiting successfully. Buy a developer a beer!
