                               Psi4 1.3.2 release

  ==> Input File <==

--------------------------------------------------------------------------
#psi4
#
memory 32 gb

molecule  {
0 1
  O       -2.5416370     0.0659770    -0.3927070
  N       -0.7122740    -1.2241950    -0.0249760
  C        1.7539890     0.6485230     0.0737375
  C        1.7187040    -0.7521010    -0.3806110
  C        0.5749500     1.5632640    -0.2598230
  C        0.6466580    -1.4925250     0.4187290
  C       -0.6257670     1.1444980     0.6024810
  C       -1.3868420    -0.0349600     0.0307530
  H        2.6566510     1.1652070    -0.6217190
  H        2.1344690     0.8237010     1.0199600
  H        1.5025340    -0.8781880    -1.4483810
  H        2.6863370    -1.2343500    -0.1898600
  H        0.2863390     1.5300770    -1.3181450
  H        0.8108260     2.6104720    -0.0371320
  H        0.7923570    -2.5718330     0.3164690
  H        0.7525260    -1.2638240     1.4882170
  H       -1.3561390     1.9546950     0.6612310
  H       -0.2921570     0.9237120     1.6255030
  H       -1.2491170    -1.9758090    -0.4428220
units angstrom
no_reorient  #important for SAPT in psi4, default
symmetry c1  #important for SAPT in psi4, default
}

set PROPERTIES_ORIGIN ["COM"]
properties('MP2/aug-cc-pvtz', properties = ['dipole'])
--------------------------------------------------------------------------

    Molecular point group: c1
  Charge       = 0
  Multiplicity = 1
  Basis Set: AUG-CC-PVTZ
    Blend: AUG-CC-PVTZ
  Basis Set: (AUG-CC-PVTZ AUX)
    Blend: AUG-CC-PVTZ-JKFIT

    Orbital Energies [Eh]
    ---------------------

    Doubly Occupied:

       1A    -20.509161     2A    -15.579280     3A    -11.343186
       4A    -11.275706     5A    -11.239548     6A    -11.238938
       7A    -11.234736     8A    -11.233795     9A     -1.363657
      10A     -1.229664    11A     -1.101916    12A     -1.047236
      13A     -0.940410    14A     -0.891637    15A     -0.801113
      16A     -0.764095    17A     -0.690967    18A     -0.673066
      19A     -0.624921    20A     -0.620749    21A     -0.610398
      22A     -0.594084    23A     -0.562434    24A     -0.542781
      25A     -0.520328    26A     -0.513389    27A     -0.503726
      28A     -0.479187    29A     -0.435394    30A     -0.408398
      31A     -0.380950

  @DF-RHF Final Energy:  -363.04960547485570

   => Energetics <=

    Nuclear Repulsion Energy =            395.7457669569035943
    One-Electron Energy =               -1277.6810526000806476
    Two-Electron Energy =                 518.8856801683214144
    Total Energy =                       -363.0496054748556389
  Basis Set: (AUG-CC-PVTZ AUX)
    Blend: AUG-CC-PVTZ-RI
    Molecular point group: c1

    Geometry (in Angstrom), charge = 0, multiplicity = 1:

       Center              X                  Y                   Z               Mass
    ------------   -----------------  -----------------  -----------------  -----------------
         O           -2.456266068650     0.084321472126    -0.394950512923    15.994914619570
         N           -0.626903068650    -1.205850527874    -0.027219512923    14.003074004430
         C            1.839359931350     0.666867472126     0.071493987077    12.000000000000
         C            1.804074931350    -0.733756527874    -0.382854512923    12.000000000000
         C            0.660320931350     1.581608472126    -0.262066512923    12.000000000000
         C            0.732028931350    -1.474180527874     0.416485487077    12.000000000000
         C           -0.540396068650     1.162842472126     0.600237487077    12.000000000000
         C           -1.301471068650    -0.016615527874     0.028509487077    12.000000000000
         H            2.742021931350     1.183551472126    -0.623962512923     1.007825032230
         H            2.219839931350     0.842045472126     1.017716487077     1.007825032230
         H            1.587904931350    -0.859843527874    -1.450624512923     1.007825032230
         H            2.771707931350    -1.216005527874    -0.192103512923     1.007825032230
         H            0.371709931350     1.548421472126    -1.320388512923     1.007825032230
         H            0.896196931350     2.628816472126    -0.039375512923     1.007825032230
         H            0.877727931350    -2.553488527874     0.314225487077     1.007825032230
         H            0.837896931350    -1.245479527874     1.485973487077     1.007825032230
         H           -1.270768068650     1.973039472126     0.658987487077     1.007825032230
         H           -0.206786068650     0.942056472126     1.623259487077     1.007825032230
         H           -1.163746068650    -1.957464527874    -0.445065512923     1.007825032230

  Basis Set: AUG-CC-PVTZ
    Blend: AUG-CC-PVTZ
  Basis Set: (AUG-CC-PVTZ AUX)
    Blend: AUG-CC-PVTZ-JKFIT
	 Reference Energy          =    -363.0496054748556958 [Eh]
	 Singles Energy            =      -0.0000000000000000 [Eh]
	 Same-Spin Energy          =      -0.3788447791713332 [Eh]
	 Opposite-Spin Energy      =      -1.2498503556964558 [Eh]
	 Correlation Energy        =      -1.6286951348677889 [Eh]
	 Total Energy              =    -364.6783006097234647 [Eh]

	 ================> DF-SCS-MP2 Energies <==================
	-----------------------------------------------------------
	 SCS Same-Spin Scale       =       0.3333333333333333 [-]
	 SCS Opposite-Spin Scale   =       1.2000000000000000 [-]
	 SCS Same-Spin Energy      =      -0.1262815930571111 [Eh]
	 SCS Opposite-Spin Energy  =      -1.4998204268357469 [Eh]
	 SCS Correlation Energy    =      -1.6261020198928580 [Eh]
	 SCS Total Energy          =    -364.6757074947485648 [Eh]
	-----------------------------------------------------------

  Dipole Moment: [D]
     X:     4.0044      Y:    -1.0871      Z:     0.9415     Total:     4.2548

*** Psi4 exiting successfully. Buy a developer a beer!
