                               Psi4 1.3.2 release

  ==> Input File <==

--------------------------------------------------------------------------
#psi4
#
memory 32 gb

molecule  {
0 1
  O       -2.5416370     0.0659770    -0.3927070
  N       -0.7122740    -1.2241950    -0.0249760
  C        1.8380290     0.7314390    -0.0343340
  C        1.7187040    -0.7521010    -0.3806110
  C        0.5749500     1.5632640    -0.2598230
  C        0.6466580    -1.4925250     0.4187290
  C       -0.6247193     1.1200001     0.5916259
  C       -1.3868420    -0.0349600     0.0307530
  H        2.6566510     1.1652070    -0.6217190
  H        2.1344690     0.8237010     1.0199600
  H        1.5025340    -0.8781880    -1.4483810
  H        2.6863370    -1.2343500    -0.1898600
  H        0.2863390     1.5300770    -1.3181450
  H        0.8108260     2.6104720    -0.0371320
  H        0.7923570    -2.5718330     0.3164690
  H        0.7525260    -1.2638240     1.4882170
  H       -1.3561390     1.9546950     0.6612310
  H       -0.2921570     0.9237120     1.6255030
  H       -1.2491170    -1.9758090    -0.4428220
units angstrom
no_reorient  #important for SAPT in psi4, default
symmetry c1  #important for SAPT in psi4, default
}

set PROPERTIES_ORIGIN ["COM"]
properties('MP2/aug-cc-pvtz', properties = ['dipole'])
--------------------------------------------------------------------------

    Molecular point group: c1
  Charge       = 0
  Multiplicity = 1
  Basis Set: AUG-CC-PVTZ
    Blend: AUG-CC-PVTZ
  Basis Set: (AUG-CC-PVTZ AUX)
    Blend: AUG-CC-PVTZ-JKFIT

    Orbital Energies [Eh]
    ---------------------

    Doubly Occupied:

       1A    -20.509255     2A    -15.578359     3A    -11.342491
       4A    -11.277296     5A    -11.237239     6A    -11.236531
       7A    -11.234374     8A    -11.232856     9A     -1.364135
      10A     -1.228689    11A     -1.094283    12A     -1.043453
      13A     -0.945875    14A     -0.890214    15A     -0.795896
      16A     -0.762734    17A     -0.688531    18A     -0.678523
      19A     -0.626687    20A     -0.611850    21A     -0.601010
      22A     -0.592984    23A     -0.568143    24A     -0.545972
      25A     -0.518016    26A     -0.515340    27A     -0.480992
      28A     -0.469796    29A     -0.467952    30A     -0.412965
      31A     -0.382728

  @DF-RHF Final Energy:  -363.07428130993168

   => Energetics <=

    Nuclear Repulsion Energy =            394.5070323601814835
    One-Electron Energy =               -1275.2922880657663427
    Two-Electron Energy =                 517.7109743956532384
    Total Energy =                       -363.0742813099316209
  Basis Set: (AUG-CC-PVTZ AUX)
    Blend: AUG-CC-PVTZ-RI
    Molecular point group: c1

    Geometry (in Angstrom), charge = 0, multiplicity = 1:

       Center              X                  Y                   Z               Mass
    ------------   -----------------  -----------------  -----------------  -----------------
         O           -2.465295213554     0.078122391766    -0.382330527845    15.994914619570
         N           -0.635932213554    -1.212049608234    -0.014599527845    14.003074004430
         C            1.914370786446     0.743584391766    -0.023957527845    12.000000000000
         C            1.795045786446    -0.739955608234    -0.370234527845    12.000000000000
         C            0.651291786446     1.575409391766    -0.249446527845    12.000000000000
         C            0.722999786446    -1.480379608234     0.429105472155    12.000000000000
         C           -0.548377513554     1.132145491766     0.602002372155    12.000000000000
         C           -1.310500213554    -0.022814608234     0.041129472155    12.000000000000
         H            2.732992786446     1.177352391766    -0.611342527845     1.007825032230
         H            2.210810786446     0.835846391766     1.030336472155     1.007825032230
         H            1.578875786446    -0.866042608234    -1.438004527845     1.007825032230
         H            2.762678786446    -1.222204608234    -0.179483527845     1.007825032230
         H            0.362680786446     1.542222391766    -1.307768527845     1.007825032230
         H            0.887167786446     2.622617391766    -0.026755527845     1.007825032230
         H            0.868698786446    -2.559687608234     0.326845472155     1.007825032230
         H            0.828867786446    -1.251678608234     1.498593472155     1.007825032230
         H           -1.279797213554     1.966840391766     0.671607472155     1.007825032230
         H           -0.215815213554     0.935857391766     1.635879472155     1.007825032230
         H           -1.172775213554    -1.963663608234    -0.432445527845     1.007825032230

  Basis Set: AUG-CC-PVTZ
    Blend: AUG-CC-PVTZ
  Basis Set: (AUG-CC-PVTZ AUX)
    Blend: AUG-CC-PVTZ-JKFIT
	 Reference Energy          =    -363.0742813099316777 [Eh]
	 Singles Energy            =      -0.0000000000000000 [Eh]
	 Same-Spin Energy          =      -0.3779761072967965 [Eh]
	 Opposite-Spin Energy      =      -1.2479936695644329 [Eh]
	 Correlation Energy        =      -1.6259697768612296 [Eh]
	 Total Energy              =    -364.7002510867928891 [Eh]

	 ================> DF-SCS-MP2 Energies <==================
	-----------------------------------------------------------
	 SCS Same-Spin Scale       =       0.3333333333333333 [-]
	 SCS Opposite-Spin Scale   =       1.2000000000000000 [-]
	 SCS Same-Spin Energy      =      -0.1259920357655988 [Eh]
	 SCS Opposite-Spin Energy  =      -1.4975924034773194 [Eh]
	 SCS Correlation Energy    =      -1.6235844392429182 [Eh]
	 SCS Total Energy          =    -364.6978657491745821 [Eh]
	-----------------------------------------------------------

  Dipole Moment: [D]
     X:     4.0840      Y:    -1.0233      Z:     0.8986     Total:     4.3051

*** Psi4 exiting successfully. Buy a developer a beer!
