                               Psi4 1.4a3.dev225

  ==> Input File <==

--------------------------------------------------------------------------
#psi4
#
memory 32 gb

molecule  {
0 1
  O       -2.5416370     0.0659770    -0.3927070
  N       -0.7122740    -1.2241950    -0.0249760
  C        1.8380290     0.7314390    -0.0343340
  C        1.7187040    -0.7521010    -0.3806110
  C        0.5749500     1.5632640    -0.2598230
  C        0.6466580    -1.4925250     0.4187290
  C       -0.6257670     1.1444980     0.6024810
  C       -1.3868420    -0.0349600     0.0307530
  H        2.6566510     1.1652070    -0.6217190
  H        2.1344690     0.8237010     1.0199600
  H        1.5025340    -0.8781880    -1.4483810
  H        2.6863370    -1.2343500    -0.1898600
  H        0.2863390     1.5300770    -1.3181450
  H        0.8108260     2.6104720    -0.0371320
  H        0.7923570    -2.5718330     0.3164690
  H        0.7525260    -1.2638240     1.4882170
  H       -1.3561390     1.9546950     0.6612310
  H       -0.2921570     0.9237120     1.6255030
  H       -1.2597081    -1.9906372    -0.4510654
units angstrom
no_reorient  #important for SAPT in psi4, default
symmetry c1  #important for SAPT in psi4, default
}

set PROPERTIES_ORIGIN ["COM"]
properties('MP2/aug-cc-pvtz', properties = ['dipole'])
--------------------------------------------------------------------------

    Molecular point group: c1
  Charge       = 0
  Multiplicity = 1
  Basis Set: AUG-CC-PVTZ
    Blend: AUG-CC-PVTZ
  Basis Set: (AUG-CC-PVTZ AUX)
    Blend: AUG-CC-PVTZ-JKFIT

    Orbital Energies [Eh]
    ---------------------

    Doubly Occupied:

       1A    -20.508846     2A    -15.580410     3A    -11.342938
       4A    -11.277264     5A    -11.236629     6A    -11.235968
       7A    -11.234284     8A    -11.232987     9A     -1.363026
      10A     -1.226438    11A     -1.093513    12A     -1.042102
      13A     -0.944558    14A     -0.888327    15A     -0.795035
      16A     -0.760664    17A     -0.687416    18A     -0.676478
      19A     -0.625536    20A     -0.611395    21A     -0.601631
      22A     -0.591711    23A     -0.569822    24A     -0.544623
      25A     -0.519026    26A     -0.515529    27A     -0.481153
      28A     -0.470423    29A     -0.469339    30A     -0.410462
      31A     -0.382367

  @DF-RHF Final Energy:  -363.07440098812407

   => Energetics <=

    Nuclear Repulsion Energy =            393.9646015523525762
    One-Electron Energy =               -1274.2382014698494004
    Two-Electron Energy =                 517.1991989293726419
    Total Energy =                       -363.0744009881241254
  Basis Set: (AUG-CC-PVTZ AUX)
    Blend: AUG-CC-PVTZ-RI
    Molecular point group: c1

    Geometry (in Angstrom), charge = 0, multiplicity = 1:

       Center              X                  Y                   Z               Mass
    ------------   -----------------  -----------------  -----------------  -----------------
         O           -2.465089646342     0.075654930313    -0.383408958269    15.994914619570
         N           -0.635726646342    -1.214517069687    -0.015677958269    14.003074004430
         C            1.914576353658     0.741116930313    -0.025035958269    12.000000000000
         C            1.795251353658    -0.742423069687    -0.371312958269    12.000000000000
         C            0.651497353658     1.572941930313    -0.250524958269    12.000000000000
         C            0.723205353658    -1.482847069687     0.428027041731    12.000000000000
         C           -0.549219646342     1.154175930313     0.611779041731    12.000000000000
         C           -1.310294646342    -0.025282069687     0.040051041731    12.000000000000
         H            2.733198353658     1.174884930313    -0.612420958269     1.007825032230
         H            2.211016353658     0.833378930313     1.029258041731     1.007825032230
         H            1.579081353658    -0.868510069687    -1.439082958269     1.007825032230
         H            2.762884353658    -1.224672069687    -0.180561958269     1.007825032230
         H            0.362886353658     1.539754930313    -1.308846958269     1.007825032230
         H            0.887373353658     2.620149930313    -0.027833958269     1.007825032230
         H            0.868904353658    -2.562155069687     0.325767041731     1.007825032230
         H            0.829073353658    -1.254146069687     1.497515041731     1.007825032230
         H           -1.279591646342     1.964372930313     0.670529041731     1.007825032230
         H           -0.215609646342     0.933389930313     1.634801041731     1.007825032230
         H           -1.183160746342    -1.980959269687    -0.441767358269     1.007825032230

  Basis Set: AUG-CC-PVTZ
    Blend: AUG-CC-PVTZ
  Basis Set: (AUG-CC-PVTZ AUX)
    Blend: AUG-CC-PVTZ-JKFIT
	 Reference Energy          =    -363.0744009881240686 [Eh]
	 Singles Energy            =      -0.0000000000000000 [Eh]
	 Same-Spin Energy          =      -0.3778849029787797 [Eh]
	 Opposite-Spin Energy      =      -1.2480366765202251 [Eh]
	 Correlation Energy        =      -1.6259215794990047 [Eh]
	 Total Energy              =    -364.7003225676230613 [Eh]

	 ================> DF-SCS-MP2 Energies <==================
	-----------------------------------------------------------
	 SCS Same-Spin Scale       =       0.3333333333333333 [-]
	 SCS Opposite-Spin Scale   =       1.2000000000000000 [-]
	 SCS Same-Spin Energy      =      -0.1259616343262599 [Eh]
	 SCS Opposite-Spin Energy  =      -1.4976440118242700 [Eh]
	 SCS Correlation Energy    =      -1.6236056461505299 [Eh]
	 SCS Total Energy          =    -364.6980066342745772 [Eh]
	-----------------------------------------------------------

  Dipole Moment: [D]
     X:     4.0652      Y:    -1.0499      Z:     0.8896     Total:     4.2918

*** Psi4 exiting successfully. Buy a developer a beer!
