                               Psi4 1.3.2 release

  ==> Input File <==

--------------------------------------------------------------------------
#psi4
#
memory 32 gb

molecule  {
0 1
  O       -2.5416370     0.0659770    -0.3927070
  N       -0.7122740    -1.2241950    -0.0249760
  C        1.8575564     0.7338316    -0.0523404
  C        1.7187040    -0.7521010    -0.3806110
  C        0.5749500     1.5632640    -0.2598230
  C        0.6466580    -1.4925250     0.4187290
  C       -0.6257670     1.1444980     0.6024810
  C       -1.3868420    -0.0349600     0.0307530
  H        2.6566510     1.1652070    -0.6217190
  H        2.1344690     0.8237010     1.0199600
  H        1.5025340    -0.8781880    -1.4483810
  H        2.6863370    -1.2343500    -0.1898600
  H        0.2863390     1.5300770    -1.3181450
  H        0.8108260     2.6104720    -0.0371320
  H        0.7923570    -2.5718330     0.3164690
  H        0.7525260    -1.2638240     1.4882170
  H       -1.3561390     1.9546950     0.6612310
  H       -0.2921570     0.9237120     1.6255030
  H       -1.2491170    -1.9758090    -0.4428220
units angstrom
no_reorient  #important for SAPT in psi4, default
symmetry c1  #important for SAPT in psi4, default
}

set PROPERTIES_ORIGIN ["COM"]
properties('MP2/aug-cc-pvtz', properties = ['dipole'])
--------------------------------------------------------------------------

    Molecular point group: c1
  Charge       = 0
  Multiplicity = 1
  Basis Set: AUG-CC-PVTZ
    Blend: AUG-CC-PVTZ
  Basis Set: (AUG-CC-PVTZ AUX)
    Blend: AUG-CC-PVTZ-JKFIT

    Orbital Energies [Eh]
    ---------------------

    Doubly Occupied:

       1A    -20.509123     2A    -15.578717     3A    -11.343089
       4A    -11.277879     5A    -11.236979     6A    -11.236341
       7A    -11.234234     8A    -11.232711     9A     -1.363503
      10A     -1.228256    11A     -1.092464    12A     -1.042107
      13A     -0.945936    14A     -0.888286    15A     -0.795537
      16A     -0.764171    17A     -0.687711    18A     -0.677674
      19A     -0.627047    20A     -0.611139    21A     -0.600126
      22A     -0.592165    23A     -0.571098    24A     -0.545704
      25A     -0.520698    26A     -0.515276    27A     -0.477621
      28A     -0.474464    29A     -0.467290    30A     -0.410733
      31A     -0.382973

  @DF-RHF Final Energy:  -363.07490153079840

   => Energetics <=

    Nuclear Repulsion Energy =            393.7952053731960973
    One-Electron Energy =               -1273.8781082581122064
    Two-Electron Energy =                 517.0080013541178232
    Total Energy =                       -363.0749015307983427
  Basis Set: (AUG-CC-PVTZ AUX)
    Blend: AUG-CC-PVTZ-RI
    Molecular point group: c1

    Geometry (in Angstrom), charge = 0, multiplicity = 1:

       Center              X                  Y                   Z               Mass
    ------------   -----------------  -----------------  -----------------  -----------------
         O           -2.467256200736     0.075268886253    -0.381571662298    15.994914619570
         N           -0.637893200736    -1.214903113747    -0.013840662298    14.003074004430
         C            1.931937199264     0.743123486253    -0.041205062298    12.000000000000
         C            1.793084799264    -0.742809113747    -0.369475662298    12.000000000000
         C            0.649330799264     1.572555886253    -0.248687662298    12.000000000000
         C            0.721038799264    -1.483233113747     0.429864337702    12.000000000000
         C           -0.551386200736     1.153789886253     0.613616337702    12.000000000000
         C           -1.312461200736    -0.025668113747     0.041888337702    12.000000000000
         H            2.731031799264     1.174498886253    -0.610583662298     1.007825032230
         H            2.208849799264     0.832992886253     1.031095337702     1.007825032230
         H            1.576914799264    -0.868896113747    -1.437245662298     1.007825032230
         H            2.760717799264    -1.225058113747    -0.178724662298     1.007825032230
         H            0.360719799264     1.539368886253    -1.307009662298     1.007825032230
         H            0.885206799264     2.619763886253    -0.025996662298     1.007825032230
         H            0.866737799264    -2.562541113747     0.327604337702     1.007825032230
         H            0.826906799264    -1.254532113747     1.499352337702     1.007825032230
         H           -1.281758200736     1.963986886253     0.672366337702     1.007825032230
         H           -0.217776200736     0.933003886253     1.636638337702     1.007825032230
         H           -1.174736200736    -1.966517113747    -0.431686662298     1.007825032230

  Basis Set: AUG-CC-PVTZ
    Blend: AUG-CC-PVTZ
  Basis Set: (AUG-CC-PVTZ AUX)
    Blend: AUG-CC-PVTZ-JKFIT
	 Reference Energy          =    -363.0749015307983996 [Eh]
	 Singles Energy            =      -0.0000000000000000 [Eh]
	 Same-Spin Energy          =      -0.3776367619567210 [Eh]
	 Opposite-Spin Energy      =      -1.2475921115585855 [Eh]
	 Correlation Energy        =      -1.6252288735153066 [Eh]
	 Total Energy              =    -364.7001304043137111 [Eh]

	 ================> DF-SCS-MP2 Energies <==================
	-----------------------------------------------------------
	 SCS Same-Spin Scale       =       0.3333333333333333 [-]
	 SCS Opposite-Spin Scale   =       1.2000000000000000 [-]
	 SCS Same-Spin Energy      =      -0.1258789206522403 [Eh]
	 SCS Opposite-Spin Energy  =      -1.4971105338703026 [Eh]
	 SCS Correlation Energy    =      -1.6229894545225430 [Eh]
	 SCS Total Energy          =    -364.6978909853209530 [Eh]
	-----------------------------------------------------------

  Dipole Moment: [D]
     X:     4.0740      Y:    -1.0369      Z:     0.8888     Total:     4.2968

*** Psi4 exiting successfully. Buy a developer a beer!
