                               Psi4 1.3.2 release

  ==> Input File <==

--------------------------------------------------------------------------
#psi4
#
memory 32 gb

molecule  {
0 1
  O       -2.5416370     0.0659770    -0.3927070
  N       -0.7122740    -1.2241950    -0.0249760
  C        1.8380290     0.7314390    -0.0343340
  C        1.7187040    -0.7521010    -0.3806110
  C        0.5749500     1.5632640    -0.2598230
  C        0.6466580    -1.4925250     0.4187290
  C       -0.6257670     1.1444980     0.6024810
  C       -1.3868420    -0.0349600     0.0307530
  H        2.6566510     1.1652070    -0.6217190
  H        2.1344690     0.8237010     1.0199600
  H        1.5025340    -0.8781880    -1.4483810
  H        2.6863370    -1.2343500    -0.1898600
  H        0.2863390     1.5300770    -1.3181450
  H        0.8108260     2.6104720    -0.0371320
  H        0.7923570    -2.5718330     0.3164690
  H        0.7525260    -1.2638240     1.4882170
  H       -1.3462257     1.9545617     0.7368314
  H       -0.2921570     0.9237120     1.6255030
  H       -1.2491170    -1.9758090    -0.4428220
units angstrom
no_reorient  #important for SAPT in psi4, default
symmetry c1  #important for SAPT in psi4, default
}

set PROPERTIES_ORIGIN ["COM"]
properties('MP2/aug-cc-pvtz', properties = ['dipole'])
--------------------------------------------------------------------------

    Molecular point group: c1
  Charge       = 0
  Multiplicity = 1
  Basis Set: AUG-CC-PVTZ
    Blend: AUG-CC-PVTZ
  Basis Set: (AUG-CC-PVTZ AUX)
    Blend: AUG-CC-PVTZ-JKFIT

    Orbital Energies [Eh]
    ---------------------

    Doubly Occupied:

       1A    -20.508906     2A    -15.578860     3A    -11.343381
       4A    -11.277238     5A    -11.236970     6A    -11.236030
       7A    -11.234394     8A    -11.233258     9A     -1.363282
      10A     -1.228313    11A     -1.093909    12A     -1.042003
      13A     -0.945438    14A     -0.888631    15A     -0.795505
      16A     -0.765429    17A     -0.688032    18A     -0.676158
      19A     -0.626915    20A     -0.611447    21A     -0.600291
      22A     -0.592442    23A     -0.570381    24A     -0.545414
      25A     -0.518353    26A     -0.514923    27A     -0.481074
      28A     -0.472438    29A     -0.468640    30A     -0.410371
      31A     -0.382744

  @DF-RHF Final Energy:  -363.07494042903579

   => Energetics <=

    Nuclear Repulsion Energy =            394.0207558930970322
    One-Electron Energy =               -1274.3290512723303891
    Two-Electron Energy =                 517.2333549501976222
    Total Energy =                       -363.0749404290357916
  Basis Set: (AUG-CC-PVTZ AUX)
    Blend: AUG-CC-PVTZ-RI
    Molecular point group: c1

    Geometry (in Angstrom), charge = 0, multiplicity = 1:

       Center              X                  Y                   Z               Mass
    ------------   -----------------  -----------------  -----------------  -----------------
         O           -2.465272385155     0.075523966784    -0.384156188935    15.994914619570
         N           -0.635909385155    -1.214648033216    -0.016425188935    14.003074004430
         C            1.914393614845     0.740985966784    -0.025783188935    12.000000000000
         C            1.795068614845    -0.742554033216    -0.372060188935    12.000000000000
         C            0.651314614845     1.572810966784    -0.251272188935    12.000000000000
         C            0.723022614845    -1.482978033216     0.427279811065    12.000000000000
         C           -0.549402385155     1.154044966784     0.611031811065    12.000000000000
         C           -1.310477385155    -0.025413033216     0.039303811065    12.000000000000
         H            2.733015614845     1.174753966784    -0.613168188935     1.007825032230
         H            2.210833614845     0.833247966784     1.028510811065     1.007825032230
         H            1.578898614845    -0.868641033216    -1.439830188935     1.007825032230
         H            2.762701614845    -1.224803033216    -0.181309188935     1.007825032230
         H            0.362703614845     1.539623966784    -1.309594188935     1.007825032230
         H            0.887190614845     2.620018966784    -0.028581188935     1.007825032230
         H            0.868721614845    -2.562286033216     0.325019811065     1.007825032230
         H            0.828890614845    -1.254277033216     1.496767811065     1.007825032230
         H           -1.269861085155     1.964108666784     0.745382211065     1.007825032230
         H           -0.215792385155     0.933258966784     1.634053811065     1.007825032230
         H           -1.172752385155    -1.966262033216    -0.434271188935     1.007825032230

  Basis Set: AUG-CC-PVTZ
    Blend: AUG-CC-PVTZ
  Basis Set: (AUG-CC-PVTZ AUX)
    Blend: AUG-CC-PVTZ-JKFIT
	 Reference Energy          =    -363.0749404290357916 [Eh]
	 Singles Energy            =      -0.0000000000000000 [Eh]
	 Same-Spin Energy          =      -0.3777201448386370 [Eh]
	 Opposite-Spin Energy      =      -1.2476661946233607 [Eh]
	 Correlation Energy        =      -1.6253863394619976 [Eh]
	 Total Energy              =    -364.7003267684978027 [Eh]

	 ================> DF-SCS-MP2 Energies <==================
	-----------------------------------------------------------
	 SCS Same-Spin Scale       =       0.3333333333333333 [-]
	 SCS Opposite-Spin Scale   =       1.2000000000000000 [-]
	 SCS Same-Spin Energy      =      -0.1259067149462123 [Eh]
	 SCS Opposite-Spin Energy  =      -1.4971994335480328 [Eh]
	 SCS Correlation Energy    =      -1.6231061484942451 [Eh]
	 SCS Total Energy          =    -364.6980465775300218 [Eh]
	-----------------------------------------------------------

  Dipole Moment: [D]
     X:     4.0754      Y:    -1.0303      Z:     0.9238     Total:     4.3039

*** Psi4 exiting successfully. Buy a developer a beer!
