                               Psi4 1.3.2 release

  ==> Input File <==

--------------------------------------------------------------------------
#psi4
#
memory 32 gb

molecule  {
0 1
  O       -2.5416370     0.0659770    -0.3927070
  N       -0.7122740    -1.2241950    -0.0249760
  C        1.8380290     0.7314390    -0.0343340
  C        1.7187040    -0.7521010    -0.3806110
  C        0.5749500     1.5632640    -0.2598230
  C        0.6466580    -1.4925250     0.4187290
  C       -0.6257670     1.1444980     0.6024810
  C       -1.2864139     0.1206761     0.1061957
  H        2.6566510     1.1652070    -0.6217190
  H        2.1344690     0.8237010     1.0199600
  H        1.5025340    -0.8781880    -1.4483810
  H        2.6863370    -1.2343500    -0.1898600
  H        0.2863390     1.5300770    -1.3181450
  H        0.8108260     2.6104720    -0.0371320
  H        0.7923570    -2.5718330     0.3164690
  H        0.7525260    -1.2638240     1.4882170
  H       -1.3561390     1.9546950     0.6612310
  H       -0.2921570     0.9237120     1.6255030
  H       -1.2491170    -1.9758090    -0.4428220
units angstrom
no_reorient  #important for SAPT in psi4, default
symmetry c1  #important for SAPT in psi4, default
}

set PROPERTIES_ORIGIN ["COM"]
properties('MP2/aug-cc-pvtz', properties = ['dipole'])
--------------------------------------------------------------------------

    Molecular point group: c1
  Charge       = 0
  Multiplicity = 1
  Basis Set: AUG-CC-PVTZ
    Blend: AUG-CC-PVTZ
  Basis Set: (AUG-CC-PVTZ AUX)
    Blend: AUG-CC-PVTZ-JKFIT

    Orbital Energies [Eh]
    ---------------------

    Doubly Occupied:

       1A    -20.504913     2A    -15.574011     3A    -11.360132
       4A    -11.268278     5A    -11.252184     6A    -11.241226
       7A    -11.239293     8A    -11.233146     9A     -1.305999
      10A     -1.196011    11A     -1.118386    12A     -1.064179
      13A     -0.961457    14A     -0.890558    15A     -0.799685
      16A     -0.765104    17A     -0.699838    18A     -0.670747
      19A     -0.633334    20A     -0.616833    21A     -0.607772
      22A     -0.590881    23A     -0.567180    24A     -0.537830
      25A     -0.520857    26A     -0.496591    27A     -0.485910
      28A     -0.479081    29A     -0.449997    30A     -0.408882
      31A     -0.363962

  @DF-RHF Final Energy:  -363.00242543723067

   => Energetics <=

    Nuclear Repulsion Energy =            394.2336385200488849
    One-Electron Energy =               -1274.6636126445584978
    Two-Electron Energy =                 517.4275486872789998
    Total Energy =                       -363.0024254372306132
  Basis Set: (AUG-CC-PVTZ AUX)
    Blend: AUG-CC-PVTZ-RI
    Molecular point group: c1

    Geometry (in Angstrom), charge = 0, multiplicity = 1:

       Center              X                  Y                   Z               Mass
    ------------   -----------------  -----------------  -----------------  -----------------
         O           -2.475841039005     0.059007337674    -0.391488083415    15.994914619570
         N           -0.646478039005    -1.231164662326    -0.023757083415    14.003074004430
         C            1.903824960995     0.724469337674    -0.033115083415    12.000000000000
         C            1.784499960995    -0.759070662326    -0.379392083415    12.000000000000
         C            0.640745960995     1.556294337674    -0.258604083415    12.000000000000
         C            0.712453960995    -1.499494662326     0.419947916585    12.000000000000
         C           -0.559971039005     1.137528337674     0.603699916585    12.000000000000
         C           -1.220617939005     0.113706437674     0.107414616585    12.000000000000
         H            2.722446960995     1.158237337674    -0.620500083415     1.007825032230
         H            2.200264960995     0.816731337674     1.021178916585     1.007825032230
         H            1.568329960995    -0.885157662326    -1.447162083415     1.007825032230
         H            2.752132960995    -1.241319662326    -0.188641083415     1.007825032230
         H            0.352134960995     1.523107337674    -1.316926083415     1.007825032230
         H            0.876621960995     2.603502337674    -0.035913083415     1.007825032230
         H            0.858152960995    -2.578802662326     0.317687916585     1.007825032230
         H            0.818321960995    -1.270793662326     1.489435916585     1.007825032230
         H           -1.290343039005     1.947725337674     0.662449916585     1.007825032230
         H           -0.226361039005     0.916742337674     1.626721916585     1.007825032230
         H           -1.183321039005    -1.982778662326    -0.441603083415     1.007825032230

  Basis Set: AUG-CC-PVTZ
    Blend: AUG-CC-PVTZ
  Basis Set: (AUG-CC-PVTZ AUX)
    Blend: AUG-CC-PVTZ-JKFIT
	 Reference Energy          =    -363.0024254372306700 [Eh]
	 Singles Energy            =      -0.0000000000000000 [Eh]
	 Same-Spin Energy          =      -0.3837016530180410 [Eh]
	 Opposite-Spin Energy      =      -1.2586529124458221 [Eh]
	 Correlation Energy        =      -1.6423545654638632 [Eh]
	 Total Energy              =    -364.6447800026945174 [Eh]

	 ================> DF-SCS-MP2 Energies <==================
	-----------------------------------------------------------
	 SCS Same-Spin Scale       =       0.3333333333333333 [-]
	 SCS Opposite-Spin Scale   =       1.2000000000000000 [-]
	 SCS Same-Spin Energy      =      -0.1279005510060137 [Eh]
	 SCS Opposite-Spin Energy  =      -1.5103834949349866 [Eh]
	 SCS Correlation Energy    =      -1.6382840459410002 [Eh]
	 SCS Total Energy          =    -364.6407094831716904 [Eh]
	-----------------------------------------------------------

  Dipole Moment: [D]
     X:     4.4151      Y:    -0.2548      Z:     1.1303     Total:     4.5646

*** Psi4 exiting successfully. Buy a developer a beer!
