                               Psi4 1.3.2 release

  ==> Input File <==

--------------------------------------------------------------------------
#psi4
#
memory 32 gb

molecule  {
0 1
  O       -2.5416370     0.0659770    -0.3927070
  N       -0.7122740    -1.2241950    -0.0249760
  C        1.8380290     0.7314390    -0.0343340
  C        1.7187040    -0.7521010    -0.3806110
  C        0.5749500     1.5632640    -0.2598230
  C        0.6466580    -1.4925250     0.4187290
  C       -0.6257670     1.1444980     0.6024810
  C       -1.3868420    -0.0349600     0.0307530
  H        2.6566510     1.1652070    -0.6217190
  H        2.1344690     0.8237010     1.0199600
  H        1.5025340    -0.8781880    -1.4483810
  H        2.6863370    -1.2343500    -0.1898600
  H        0.2863390     1.5300770    -1.3181450
  H        0.8108260     2.6104720    -0.0371320
  H        0.7923570    -2.5718330     0.3164690
  H        0.7525260    -1.2638240     1.4882170
  H       -1.2892789     1.8805276     0.6558529
  H       -0.2921570     0.9237120     1.6255030
  H       -1.2491170    -1.9758090    -0.4428220
units angstrom
no_reorient  #important for SAPT in psi4, default
symmetry c1  #important for SAPT in psi4, default
}

set PROPERTIES_ORIGIN ["COM"]
properties('MP2/aug-cc-pvtz', properties = ['dipole'])
--------------------------------------------------------------------------

    Molecular point group: c1
  Charge       = 0
  Multiplicity = 1
  Basis Set: AUG-CC-PVTZ
    Blend: AUG-CC-PVTZ
  Basis Set: (AUG-CC-PVTZ AUX)
    Blend: AUG-CC-PVTZ-JKFIT

    Orbital Energies [Eh]
    ---------------------

    Doubly Occupied:

       1A    -20.509326     2A    -15.578140     3A    -11.342559
       4A    -11.276983     5A    -11.236107     6A    -11.234066
       7A    -11.232680     8A    -11.224488     9A     -1.363659
      10A     -1.227873    11A     -1.095169    12A     -1.045327
      13A     -0.949529    14A     -0.888467    15A     -0.795195
      16A     -0.770745    17A     -0.687694    18A     -0.677060
      19A     -0.627178    20A     -0.612056    21A     -0.604501
      22A     -0.592861    23A     -0.578196    24A     -0.545457
      25A     -0.521512    26A     -0.515509    27A     -0.481438
      28A     -0.473814    29A     -0.469153    30A     -0.410436
      31A     -0.382581

  @DF-RHF Final Energy:  -363.06969102225287

   => Energetics <=

    Nuclear Repulsion Energy =            394.6324076034830455
    One-Electron Energy =               -1275.5046843277966673
    Two-Electron Energy =                 517.8025857020608100
    Total Energy =                       -363.0696910222528686
  Basis Set: (AUG-CC-PVTZ AUX)
    Blend: AUG-CC-PVTZ-RI
    Molecular point group: c1

    Geometry (in Angstrom), charge = 0, multiplicity = 1:

       Center              X                  Y                   Z               Mass
    ------------   -----------------  -----------------  -----------------  -----------------
         O           -2.465779905035     0.076183771682    -0.383434494326    15.994914619570
         N           -0.636416905035    -1.213988228318    -0.015703494326    14.003074004430
         C            1.913886094965     0.741645771682    -0.025061494326    12.000000000000
         C            1.794561094965    -0.741894228318    -0.371338494326    12.000000000000
         C            0.650807094965     1.573470771682    -0.250550494326    12.000000000000
         C            0.722515094965    -1.482318228318     0.428001505674    12.000000000000
         C           -0.549909905035     1.154704771682     0.611753505674    12.000000000000
         C           -1.310984905035    -0.024753228318     0.040025505674    12.000000000000
         H            2.732508094965     1.175413771682    -0.612446494326     1.007825032230
         H            2.210326094965     0.833907771682     1.029232505674     1.007825032230
         H            1.578391094965    -0.867981228318    -1.439108494326     1.007825032230
         H            2.762194094965    -1.224143228318    -0.180587494326     1.007825032230
         H            0.362196094965     1.540283771682    -1.308872494326     1.007825032230
         H            0.886683094965     2.620678771682    -0.027859494326     1.007825032230
         H            0.868214094965    -2.561626228318     0.325741505674     1.007825032230
         H            0.828383094965    -1.253617228318     1.497489505674     1.007825032230
         H           -1.213421805035     1.890734371682     0.665125405674     1.007825032230
         H           -0.216299905035     0.933918771682     1.634775505674     1.007825032230
         H           -1.173259905035    -1.965602228318    -0.433549494326     1.007825032230

  Basis Set: AUG-CC-PVTZ
    Blend: AUG-CC-PVTZ
  Basis Set: (AUG-CC-PVTZ AUX)
    Blend: AUG-CC-PVTZ-JKFIT
	 Reference Energy          =    -363.0696910222528686 [Eh]
	 Singles Energy            =      -0.0000000000000000 [Eh]
	 Same-Spin Energy          =      -0.3776430695966617 [Eh]
	 Opposite-Spin Energy      =      -1.2470192074979045 [Eh]
	 Correlation Energy        =      -1.6246622770945662 [Eh]
	 Total Energy              =    -364.6943532993474264 [Eh]

	 ================> DF-SCS-MP2 Energies <==================
	-----------------------------------------------------------
	 SCS Same-Spin Scale       =       0.3333333333333333 [-]
	 SCS Opposite-Spin Scale   =       1.2000000000000000 [-]
	 SCS Same-Spin Energy      =      -0.1258810231988872 [Eh]
	 SCS Opposite-Spin Energy  =      -1.4964230489974855 [Eh]
	 SCS Correlation Energy    =      -1.6223040721963726 [Eh]
	 SCS Total Energy          =    -364.6919950944492257 [Eh]
	-----------------------------------------------------------

  Dipole Moment: [D]
     X:     4.0571      Y:    -1.0182      Z:     0.9091     Total:     4.2806

*** Psi4 exiting successfully. Buy a developer a beer!
