                               Psi4 1.3.2 release

  ==> Input File <==

--------------------------------------------------------------------------
#psi4
#
memory 32 gb

molecule  {
0 1
  O       -2.5416370     0.0659770    -0.3927070
  N       -0.7122740    -1.2241950    -0.0249760
  C        1.8380290     0.7314390    -0.0343340
  C        1.7187040    -0.7521010    -0.3806110
  C        0.5749500     1.5632640    -0.2598230
  C        0.6487022    -1.4683925     0.4263361
  C       -0.6257670     1.1444980     0.6024810
  C       -1.3868420    -0.0349600     0.0307530
  H        2.6566510     1.1652070    -0.6217190
  H        2.1344690     0.8237010     1.0199600
  H        1.5025340    -0.8781880    -1.4483810
  H        2.6863370    -1.2343500    -0.1898600
  H        0.2863390     1.5300770    -1.3181450
  H        0.8108260     2.6104720    -0.0371320
  H        0.7923570    -2.5718330     0.3164690
  H        0.7525260    -1.2638240     1.4882170
  H       -1.3561390     1.9546950     0.6612310
  H       -0.2921570     0.9237120     1.6255030
  H       -1.2491170    -1.9758090    -0.4428220
units angstrom
no_reorient  #important for SAPT in psi4, default
symmetry c1  #important for SAPT in psi4, default
}

set PROPERTIES_ORIGIN ["COM"]
properties('MP2/aug-cc-pvtz', properties = ['dipole'])
--------------------------------------------------------------------------

    Molecular point group: c1
  Charge       = 0
  Multiplicity = 1
  Basis Set: AUG-CC-PVTZ
    Blend: AUG-CC-PVTZ
  Basis Set: (AUG-CC-PVTZ AUX)
    Blend: AUG-CC-PVTZ-JKFIT

    Orbital Energies [Eh]
    ---------------------

    Doubly Occupied:

       1A    -20.508937     2A    -15.578828     3A    -11.342501
       4A    -11.277745     5A    -11.236752     6A    -11.236050
       7A    -11.234159     8A    -11.232737     9A     -1.363399
      10A     -1.228581    11A     -1.094595    12A     -1.042776
      13A     -0.945353    14A     -0.887458    15A     -0.796343
      16A     -0.764489    17A     -0.688765    18A     -0.675497
      19A     -0.627545    20A     -0.612550    21A     -0.601651
      22A     -0.588851    23A     -0.570165    24A     -0.546380
      25A     -0.518365    26A     -0.517218    27A     -0.481345
      28A     -0.471280    29A     -0.467043    30A     -0.410223
      31A     -0.383931

  @DF-RHF Final Energy:  -363.07456069973068

   => Energetics <=

    Nuclear Repulsion Energy =            394.3566227412710532
    One-Electron Energy =               -1274.9993462881570849
    Two-Electron Energy =                 517.5681628471553495
    Total Energy =                       -363.0745606997306822
  Basis Set: (AUG-CC-PVTZ AUX)
    Blend: AUG-CC-PVTZ-RI
    Molecular point group: c1

    Geometry (in Angstrom), charge = 0, multiplicity = 1:

       Center              X                  Y                   Z               Mass
    ------------   -----------------  -----------------  -----------------  -----------------
         O           -2.465400957896     0.072961940510    -0.384289658002    15.994914619570
         N           -0.636037957896    -1.217210059490    -0.016558658002    14.003074004430
         C            1.914265042104     0.738423940510    -0.025916658002    12.000000000000
         C            1.794940042104    -0.745116059490    -0.372193658002    12.000000000000
         C            0.651186042104     1.570248940510    -0.251405658002    12.000000000000
         C            0.724938242104    -1.461407559490     0.434753441998    12.000000000000
         C           -0.549530957896     1.151482940510     0.610898341998    12.000000000000
         C           -1.310605957896    -0.027975059490     0.039170341998    12.000000000000
         H            2.732887042104     1.172191940510    -0.613301658002     1.007825032230
         H            2.210705042104     0.830685940510     1.028377341998     1.007825032230
         H            1.578770042104    -0.871203059490    -1.439963658002     1.007825032230
         H            2.762573042104    -1.227365059490    -0.181442658002     1.007825032230
         H            0.362575042104     1.537061940510    -1.309727658002     1.007825032230
         H            0.887062042104     2.617456940510    -0.028714658002     1.007825032230
         H            0.868593042104    -2.564848059490     0.324886341998     1.007825032230
         H            0.828762042104    -1.256839059490     1.496634341998     1.007825032230
         H           -1.279902957896     1.961679940510     0.669648341998     1.007825032230
         H           -0.215920957896     0.930696940510     1.633920341998     1.007825032230
         H           -1.172880957896    -1.968824059490    -0.434404658002     1.007825032230

  Basis Set: AUG-CC-PVTZ
    Blend: AUG-CC-PVTZ
  Basis Set: (AUG-CC-PVTZ AUX)
    Blend: AUG-CC-PVTZ-JKFIT
	 Reference Energy          =    -363.0745606997306822 [Eh]
	 Singles Energy            =      -0.0000000000000000 [Eh]
	 Same-Spin Energy          =      -0.3778386308711024 [Eh]
	 Opposite-Spin Energy      =      -1.2478217553001454 [Eh]
	 Correlation Energy        =      -1.6256603861712478 [Eh]
	 Total Energy              =    -364.7002210859019442 [Eh]

	 ================> DF-SCS-MP2 Energies <==================
	-----------------------------------------------------------
	 SCS Same-Spin Scale       =       0.3333333333333333 [-]
	 SCS Opposite-Spin Scale   =       1.2000000000000000 [-]
	 SCS Same-Spin Energy      =      -0.1259462102903675 [Eh]
	 SCS Opposite-Spin Energy  =      -1.4973861063601743 [Eh]
	 SCS Correlation Energy    =      -1.6233323166505418 [Eh]
	 SCS Total Energy          =    -364.6978930163812151 [Eh]
	-----------------------------------------------------------

  Dipole Moment: [D]
     X:     4.0760      Y:    -1.0181      Z:     0.9018     Total:     4.2969

*** Psi4 exiting successfully. Buy a developer a beer!
