                               Psi4 1.3.2 release

  ==> Input File <==

--------------------------------------------------------------------------
#psi4
#
memory 32 gb

molecule  {
0 1
  O       -2.5416370     0.0659770    -0.3927070
  N       -0.7122740    -1.2241950    -0.0249760
  C        1.8380290     0.7314390    -0.0343340
  C        1.7187040    -0.7521010    -0.3806110
  C        0.5690765     1.5436315    -0.2771188
  C        0.6466580    -1.4925250     0.4187290
  C       -0.6257670     1.1444980     0.6024810
  C       -1.3868420    -0.0349600     0.0307530
  H        2.6566510     1.1652070    -0.6217190
  H        2.1344690     0.8237010     1.0199600
  H        1.5025340    -0.8781880    -1.4483810
  H        2.6863370    -1.2343500    -0.1898600
  H        0.2863390     1.5300770    -1.3181450
  H        0.8108260     2.6104720    -0.0371320
  H        0.7923570    -2.5718330     0.3164690
  H        0.7525260    -1.2638240     1.4882170
  H       -1.3561390     1.9546950     0.6612310
  H       -0.2921570     0.9237120     1.6255030
  H       -1.2491170    -1.9758090    -0.4428220
units angstrom
no_reorient  #important for SAPT in psi4, default
symmetry c1  #important for SAPT in psi4, default
}

set PROPERTIES_ORIGIN ["COM"]
properties('MP2/aug-cc-pvtz', properties = ['dipole'])
--------------------------------------------------------------------------

    Molecular point group: c1
  Charge       = 0
  Multiplicity = 1
  Basis Set: AUG-CC-PVTZ
    Blend: AUG-CC-PVTZ
  Basis Set: (AUG-CC-PVTZ AUX)
    Blend: AUG-CC-PVTZ-JKFIT

    Orbital Energies [Eh]
    ---------------------

    Doubly Occupied:

       1A    -20.508786     2A    -15.578543     3A    -11.342554
       4A    -11.277291     5A    -11.236929     6A    -11.236180
       7A    -11.233965     8A    -11.233097     9A     -1.363280
      10A     -1.228236    11A     -1.094539    12A     -1.042191
      13A     -0.945567    14A     -0.887689    15A     -0.795950
      16A     -0.764495    17A     -0.687549    18A     -0.677092
      19A     -0.625545    20A     -0.612445    21A     -0.601460
      22A     -0.591234    23A     -0.569645    24A     -0.544544
      25A     -0.519285    26A     -0.517820    27A     -0.484788
      28A     -0.471484    29A     -0.465190    30A     -0.409764
      31A     -0.382689

  @DF-RHF Final Energy:  -363.07463881646089

   => Energetics <=

    Nuclear Repulsion Energy =            394.3014038620198676
    One-Electron Energy =               -1274.8924331488697135
    Two-Electron Energy =                 517.5163904703889557
    Total Energy =                       -363.0746388164608334
  Basis Set: (AUG-CC-PVTZ AUX)
    Blend: AUG-CC-PVTZ-RI
    Molecular point group: c1

    Geometry (in Angstrom), charge = 0, multiplicity = 1:

       Center              X                  Y                   Z               Mass
    ------------   -----------------  -----------------  -----------------  -----------------
         O           -2.464560765241     0.077606096208    -0.381647068149    15.994914619570
         N           -0.635197765241    -1.212565903792    -0.013916068149    14.003074004430
         C            1.915105234759     0.743068096208    -0.023274068149    12.000000000000
         C            1.795780234759    -0.740471903792    -0.369551068149    12.000000000000
         C            0.646152734759     1.555260596208    -0.266058868149    12.000000000000
         C            0.723734234759    -1.480895903792     0.429788931851    12.000000000000
         C           -0.548690765241     1.156127096208     0.613540931851    12.000000000000
         C           -1.309765765241    -0.023330903792     0.041812931851    12.000000000000
         H            2.733727234759     1.176836096208    -0.610659068149     1.007825032230
         H            2.211545234759     0.835330096208     1.031019931851     1.007825032230
         H            1.579610234759    -0.866558903792    -1.437321068149     1.007825032230
         H            2.763413234759    -1.222720903792    -0.178800068149     1.007825032230
         H            0.363415234759     1.541706096208    -1.307085068149     1.007825032230
         H            0.887902234759     2.622101096208    -0.026072068149     1.007825032230
         H            0.869433234759    -2.560203903792     0.327528931851     1.007825032230
         H            0.829602234759    -1.252194903792     1.499276931851     1.007825032230
         H           -1.279062765241     1.966324096208     0.672290931851     1.007825032230
         H           -0.215080765241     0.935341096208     1.636562931851     1.007825032230
         H           -1.172040765241    -1.964179903792    -0.431762068149     1.007825032230

  Basis Set: AUG-CC-PVTZ
    Blend: AUG-CC-PVTZ
  Basis Set: (AUG-CC-PVTZ AUX)
    Blend: AUG-CC-PVTZ-JKFIT
	 Reference Energy          =    -363.0746388164608902 [Eh]
	 Singles Energy            =      -0.0000000000000000 [Eh]
	 Same-Spin Energy          =      -0.3777767604515040 [Eh]
	 Opposite-Spin Energy      =      -1.2477360545017615 [Eh]
	 Correlation Energy        =      -1.6255128149532656 [Eh]
	 Total Energy              =    -364.7001516314141440 [Eh]

	 ================> DF-SCS-MP2 Energies <==================
	-----------------------------------------------------------
	 SCS Same-Spin Scale       =       0.3333333333333333 [-]
	 SCS Opposite-Spin Scale   =       1.2000000000000000 [-]
	 SCS Same-Spin Energy      =      -0.1259255868171680 [Eh]
	 SCS Opposite-Spin Energy  =      -1.4972832654021138 [Eh]
	 SCS Correlation Energy    =      -1.6232088522192818 [Eh]
	 SCS Total Energy          =    -364.6978476686801969 [Eh]
	-----------------------------------------------------------

  Dipole Moment: [D]
     X:     4.0720      Y:    -1.0396      Z:     0.8933     Total:     4.2965

*** Psi4 exiting successfully. Buy a developer a beer!
