                               Psi4 1.3.2 release

  ==> Input File <==

--------------------------------------------------------------------------
#psi4
#
memory 32 gb

molecule  {
0 1
  O       -2.5416370     0.0659770    -0.3927070
  N       -0.7122740    -1.2241950    -0.0249760
  C        1.8380290     0.7314390    -0.0343340
  C        1.7187040    -0.7521010    -0.3806110
  C        0.5749500     1.5632640    -0.2598230
  C        0.6466580    -1.4925250     0.4187290
  C       -0.6257670     1.1444980     0.6024810
  C       -1.3868420    -0.0349600     0.0307530
  H        2.5073979     1.0861214    -0.5146256
  H        2.1344690     0.8237010     1.0199600
  H        1.5025340    -0.8781880    -1.4483810
  H        2.6863370    -1.2343500    -0.1898600
  H        0.2863390     1.5300770    -1.3181450
  H        0.8108260     2.6104720    -0.0371320
  H        0.7923570    -2.5718330     0.3164690
  H        0.7525260    -1.2638240     1.4882170
  H       -1.3561390     1.9546950     0.6612310
  H       -0.2921570     0.9237120     1.6255030
  H       -1.2491170    -1.9758090    -0.4428220
units angstrom
no_reorient  #important for SAPT in psi4, default
symmetry c1  #important for SAPT in psi4, default
}

set PROPERTIES_ORIGIN ["COM"]
properties('MP2/aug-cc-pvtz', properties = ['dipole'])
--------------------------------------------------------------------------

    Molecular point group: c1
  Charge       = 0
  Multiplicity = 1
  Basis Set: AUG-CC-PVTZ
    Blend: AUG-CC-PVTZ
  Basis Set: (AUG-CC-PVTZ AUX)
    Blend: AUG-CC-PVTZ-JKFIT

    Orbital Energies [Eh]
    ---------------------

    Doubly Occupied:

       1A    -20.508300     2A    -15.577881     3A    -11.342214
       4A    -11.276185     5A    -11.235370     6A    -11.234731
       7A    -11.232988     8A    -11.207810     9A     -1.362692
      10A     -1.227418    11A     -1.100891    12A     -1.041885
      13A     -0.956672    14A     -0.888114    15A     -0.807970
      16A     -0.764040    17A     -0.688933    18A     -0.683264
      19A     -0.635631    20A     -0.611041    21A     -0.600802
      22A     -0.592741    23A     -0.575577    24A     -0.544606
      25A     -0.522643    26A     -0.515053    27A     -0.479999
      28A     -0.479123    29A     -0.468316    30A     -0.410020
      31A     -0.382282

  @DF-RHF Final Energy:  -363.04265194785819

   => Energetics <=

    Nuclear Repulsion Energy =            395.2282000815566789
    One-Electron Energy =               -1276.6313207799503289
    Two-Electron Energy =                 518.3604687505354605
    Total Energy =                       -363.0426519478581895
  Basis Set: (AUG-CC-PVTZ AUX)
    Blend: AUG-CC-PVTZ-RI
    Molecular point group: c1

    Geometry (in Angstrom), charge = 0, multiplicity = 1:

       Center              X                  Y                   Z               Mass
    ------------   -----------------  -----------------  -----------------  -----------------
         O           -2.463853866253     0.076227603544    -0.384436860081    15.994914619570
         N           -0.634490866253    -1.213944396456    -0.016705860081    14.003074004430
         C            1.915812133747     0.741689603544    -0.026063860081    12.000000000000
         C            1.796487133747    -0.741850396456    -0.372340860081    12.000000000000
         C            0.652733133747     1.573514603544    -0.251552860081    12.000000000000
         C            0.724441133747    -1.482274396456     0.426999139919    12.000000000000
         C           -0.547983866253     1.154748603544     0.610751139919    12.000000000000
         C           -1.309058866253    -0.024709396456     0.039023139919    12.000000000000
         H            2.585181033747     1.096372003544    -0.506355460081     1.007825032230
         H            2.212252133747     0.833951603544     1.028230139919     1.007825032230
         H            1.580317133747    -0.867937396456    -1.440110860081     1.007825032230
         H            2.764120133747    -1.224099396456    -0.181589860081     1.007825032230
         H            0.364122133747     1.540327603544    -1.309874860081     1.007825032230
         H            0.888609133747     2.620722603544    -0.028861860081     1.007825032230
         H            0.870140133747    -2.561582396456     0.324739139919     1.007825032230
         H            0.830309133747    -1.253573396456     1.496487139919     1.007825032230
         H           -1.278355866253     1.964945603544     0.669501139919     1.007825032230
         H           -0.214373866253     0.933962603544     1.633773139919     1.007825032230
         H           -1.171333866253    -1.965558396456    -0.434551860081     1.007825032230

  Basis Set: AUG-CC-PVTZ
    Blend: AUG-CC-PVTZ
  Basis Set: (AUG-CC-PVTZ AUX)
    Blend: AUG-CC-PVTZ-JKFIT
	 Reference Energy          =    -363.0426519478581895 [Eh]
	 Singles Energy            =      -0.0000000000000000 [Eh]
	 Same-Spin Energy          =      -0.3777573376010038 [Eh]
	 Opposite-Spin Energy      =      -1.2469245307673305 [Eh]
	 Correlation Energy        =      -1.6246818683683344 [Eh]
	 Total Energy              =    -364.6673338162265168 [Eh]

	 ================> DF-SCS-MP2 Energies <==================
	-----------------------------------------------------------
	 SCS Same-Spin Scale       =       0.3333333333333333 [-]
	 SCS Opposite-Spin Scale   =       1.2000000000000000 [-]
	 SCS Same-Spin Energy      =      -0.1259191125336679 [Eh]
	 SCS Opposite-Spin Energy  =      -1.4963094369207965 [Eh]
	 SCS Correlation Energy    =      -1.6222285494544644 [Eh]
	 SCS Total Energy          =    -364.6648804973126516 [Eh]
	-----------------------------------------------------------

  Dipole Moment: [D]
     X:     4.1755      Y:    -0.9875      Z:     0.8592     Total:     4.3759

*** Psi4 exiting successfully. Buy a developer a beer!
