                               Psi4 1.3.2 release

  ==> Input File <==

--------------------------------------------------------------------------
#psi4
#
memory 32 gb

molecule  {
0 1
  O       -2.5416370     0.0659770    -0.3927070
  N       -0.7223241    -1.3236476    -0.0427248
  C        1.8380290     0.7314390    -0.0343340
  C        1.7187040    -0.7521010    -0.3806110
  C        0.5749500     1.5632640    -0.2598230
  C        0.6466580    -1.4925250     0.4187290
  C       -0.6257670     1.1444980     0.6024810
  C       -1.3868420    -0.0349600     0.0307530
  H        2.6566510     1.1652070    -0.6217190
  H        2.1344690     0.8237010     1.0199600
  H        1.5025340    -0.8781880    -1.4483810
  H        2.6863370    -1.2343500    -0.1898600
  H        0.2863390     1.5300770    -1.3181450
  H        0.8108260     2.6104720    -0.0371320
  H        0.7923570    -2.5718330     0.3164690
  H        0.7525260    -1.2638240     1.4882170
  H       -1.3561390     1.9546950     0.6612310
  H       -0.2921570     0.9237120     1.6255030
  H       -1.2491170    -1.9758090    -0.4428220
units angstrom
no_reorient  #important for SAPT in psi4, default
symmetry c1  #important for SAPT in psi4, default
}

set PROPERTIES_ORIGIN ["COM"]
properties('MP2/aug-cc-pvtz', properties = ['dipole'])
--------------------------------------------------------------------------

    Molecular point group: c1
  Charge       = 0
  Multiplicity = 1
  Basis Set: AUG-CC-PVTZ
    Blend: AUG-CC-PVTZ
  Basis Set: (AUG-CC-PVTZ AUX)
    Blend: AUG-CC-PVTZ-JKFIT

    Orbital Energies [Eh]
    ---------------------

    Doubly Occupied:

       1A    -20.520701     2A    -15.567028     3A    -11.353023
       4A    -11.272723     5A    -11.242206     6A    -11.238557
       7A    -11.233211     8A    -11.232370     9A     -1.365806
      10A     -1.218924    11A     -1.096154    12A     -1.038539
      13A     -0.948067    14A     -0.880647    15A     -0.797597
      16A     -0.769350    17A     -0.681544    18A     -0.679432
      19A     -0.629072    20A     -0.614255    21A     -0.601273
      22A     -0.588556    23A     -0.567352    24A     -0.553478
      25A     -0.519885    26A     -0.514927    27A     -0.481267
      28A     -0.472881    29A     -0.467964    30A     -0.413461
      31A     -0.380922

  @DF-RHF Final Energy:  -363.06123999594820

   => Energetics <=

    Nuclear Repulsion Energy =            392.2702495947316947
    One-Electron Energy =               -1270.7806336017181366
    Two-Electron Energy =                 515.4491440110382428
    Total Energy =                       -363.0612399959481991
  Basis Set: (AUG-CC-PVTZ AUX)
    Blend: AUG-CC-PVTZ-RI
    Molecular point group: c1

    Geometry (in Angstrom), charge = 0, multiplicity = 1:

       Center              X                  Y                   Z               Mass
    ------------   -----------------  -----------------  -----------------  -----------------
         O           -2.463939543368     0.087837883756    -0.381284610713    15.994914619570
         N           -0.644626643368    -1.301786716244    -0.031302410713    14.003074004430
         C            1.915726456632     0.753299883756    -0.022911610713    12.000000000000
         C            1.796401456632    -0.730240116244    -0.369188610713    12.000000000000
         C            0.652647456632     1.585124883756    -0.248400610713    12.000000000000
         C            0.724355456632    -1.470664116244     0.430151389287    12.000000000000
         C           -0.548069543368     1.166358883756     0.613903389287    12.000000000000
         C           -1.309144543368    -0.013099116244     0.042175389287    12.000000000000
         H            2.734348456632     1.187067883756    -0.610296610713     1.007825032230
         H            2.212166456632     0.845561883756     1.031382389287     1.007825032230
         H            1.580231456632    -0.856327116244    -1.436958610713     1.007825032230
         H            2.764034456632    -1.212489116244    -0.178437610713     1.007825032230
         H            0.364036456632     1.551937883756    -1.306722610713     1.007825032230
         H            0.888523456632     2.632332883756    -0.025709610713     1.007825032230
         H            0.870054456632    -2.549972116244     0.327891389287     1.007825032230
         H            0.830223456632    -1.241963116244     1.499639389287     1.007825032230
         H           -1.278441543368     1.976555883756     0.672653389287     1.007825032230
         H           -0.214459543368     0.945572883756     1.636925389287     1.007825032230
         H           -1.171419543368    -1.953948116244    -0.431399610713     1.007825032230

  Basis Set: AUG-CC-PVTZ
    Blend: AUG-CC-PVTZ
  Basis Set: (AUG-CC-PVTZ AUX)
    Blend: AUG-CC-PVTZ-JKFIT
	 Reference Energy          =    -363.0612399959481991 [Eh]
	 Singles Energy            =      -0.0000000000000000 [Eh]
	 Same-Spin Energy          =      -0.3773479478310260 [Eh]
	 Opposite-Spin Energy      =      -1.2478830997048129 [Eh]
	 Correlation Energy        =      -1.6252310475358389 [Eh]
	 Total Energy              =    -364.6864710434840617 [Eh]

	 ================> DF-SCS-MP2 Energies <==================
	-----------------------------------------------------------
	 SCS Same-Spin Scale       =       0.3333333333333333 [-]
	 SCS Opposite-Spin Scale   =       1.2000000000000000 [-]
	 SCS Same-Spin Energy      =      -0.1257826492770087 [Eh]
	 SCS Opposite-Spin Energy  =      -1.4974597196457755 [Eh]
	 SCS Correlation Energy    =      -1.6232423689227842 [Eh]
	 SCS Total Energy          =    -364.6844823648709735 [Eh]
	-----------------------------------------------------------

  Dipole Moment: [D]
     X:     3.8072      Y:    -0.6028      Z:     0.8689     Total:     3.9514

*** Psi4 exiting successfully. Buy a developer a beer!
