                               Psi4 1.3.2 release

  ==> Input File <==

--------------------------------------------------------------------------
#psi4
#
memory 32 gb

molecule  {
0 1
  O       -2.5416370     0.0659770    -0.3927070
  N       -0.7031303    -1.2086955    -0.0428808
  C        1.8380290     0.7314390    -0.0343340
  C        1.7187040    -0.7521010    -0.3806110
  C        0.5749500     1.5632640    -0.2598230
  C        0.6466580    -1.4925250     0.4187290
  C       -0.6257670     1.1444980     0.6024810
  C       -1.3868420    -0.0349600     0.0307530
  H        2.6566510     1.1652070    -0.6217190
  H        2.1344690     0.8237010     1.0199600
  H        1.5025340    -0.8781880    -1.4483810
  H        2.6863370    -1.2343500    -0.1898600
  H        0.2863390     1.5300770    -1.3181450
  H        0.8108260     2.6104720    -0.0371320
  H        0.7923570    -2.5718330     0.3164690
  H        0.7525260    -1.2638240     1.4882170
  H       -1.3561390     1.9546950     0.6612310
  H       -0.2921570     0.9237120     1.6255030
  H       -1.2491170    -1.9758090    -0.4428220
units angstrom
no_reorient  #important for SAPT in psi4, default
symmetry c1  #important for SAPT in psi4, default
}

set PROPERTIES_ORIGIN ["COM"]
properties('MP2/aug-cc-pvtz', properties = ['dipole'])
--------------------------------------------------------------------------

    Molecular point group: c1
  Charge       = 0
  Multiplicity = 1
  Basis Set: AUG-CC-PVTZ
    Blend: AUG-CC-PVTZ
  Basis Set: (AUG-CC-PVTZ AUX)
    Blend: AUG-CC-PVTZ-JKFIT

    Orbital Energies [Eh]
    ---------------------

    Doubly Occupied:

       1A    -20.507953     2A    -15.579835     3A    -11.341990
       4A    -11.277980     5A    -11.236289     6A    -11.235372
       7A    -11.234107     8A    -11.232901     9A     -1.363382
      10A     -1.229520    11A     -1.093578    12A     -1.042654
      13A     -0.945324    14A     -0.888953    15A     -0.795082
      16A     -0.763292    17A     -0.689491    18A     -0.676534
      19A     -0.625280    20A     -0.611556    21A     -0.602201
      22A     -0.592292    23A     -0.570299    24A     -0.543639
      25A     -0.519178    26A     -0.515757    27A     -0.481084
      28A     -0.470171    29A     -0.469441    30A     -0.410212
      31A     -0.382983

  @DF-RHF Final Energy:  -363.07512684401837

   => Energetics <=

    Nuclear Repulsion Energy =            394.3711446063085759
    One-Electron Energy =               -1275.0358834139374267
    Two-Electron Energy =                 517.5896119636104231
    Total Energy =                       -363.0751268440184276
  Basis Set: (AUG-CC-PVTZ AUX)
    Blend: AUG-CC-PVTZ-RI
    Molecular point group: c1

    Geometry (in Angstrom), charge = 0, multiplicity = 1:

       Center              X                  Y                   Z               Mass
    ------------   -----------------  -----------------  -----------------  -----------------
         O           -2.466316290297     0.073603492927    -0.381265293406    15.994914619570
         N           -0.627809590297    -1.201069007073    -0.031439093406    14.003074004430
         C            1.913349709703     0.739065492927    -0.022892293406    12.000000000000
         C            1.794024709703    -0.744474507073    -0.369169293406    12.000000000000
         C            0.650270709703     1.570890492927    -0.248381293406    12.000000000000
         C            0.721978709703    -1.484898507073     0.430170706594    12.000000000000
         C           -0.550446290297     1.152124492927     0.613922706594    12.000000000000
         C           -1.311521290297    -0.027333507073     0.042194706594    12.000000000000
         H            2.731971709703     1.172833492927    -0.610277293406     1.007825032230
         H            2.209789709703     0.831327492927     1.031401706594     1.007825032230
         H            1.577854709703    -0.870561507073    -1.436939293406     1.007825032230
         H            2.761657709703    -1.226723507073    -0.178418293406     1.007825032230
         H            0.361659709703     1.537703492927    -1.306703293406     1.007825032230
         H            0.886146709703     2.618098492927    -0.025690293406     1.007825032230
         H            0.867677709703    -2.564206507073     0.327910706594     1.007825032230
         H            0.827846709703    -1.256197507073     1.499658706594     1.007825032230
         H           -1.280818290297     1.962321492927     0.672672706594     1.007825032230
         H           -0.216836290297     0.931338492927     1.636944706594     1.007825032230
         H           -1.173796290297    -1.968182507073    -0.431380293406     1.007825032230

  Basis Set: AUG-CC-PVTZ
    Blend: AUG-CC-PVTZ
  Basis Set: (AUG-CC-PVTZ AUX)
    Blend: AUG-CC-PVTZ-JKFIT
	 Reference Energy          =    -363.0751268440183708 [Eh]
	 Singles Energy            =      -0.0000000000000000 [Eh]
	 Same-Spin Energy          =      -0.3778196072870257 [Eh]
	 Opposite-Spin Energy      =      -1.2477789095759551 [Eh]
	 Correlation Energy        =      -1.6255985168629807 [Eh]
	 Total Energy              =    -364.7007253608813357 [Eh]

	 ================> DF-SCS-MP2 Energies <==================
	-----------------------------------------------------------
	 SCS Same-Spin Scale       =       0.3333333333333333 [-]
	 SCS Opposite-Spin Scale   =       1.2000000000000000 [-]
	 SCS Same-Spin Energy      =      -0.1259398690956752 [Eh]
	 SCS Opposite-Spin Energy  =      -1.4973346914911461 [Eh]
	 SCS Correlation Energy    =      -1.6232745605868213 [Eh]
	 SCS Total Energy          =    -364.6984014046051925 [Eh]
	-----------------------------------------------------------

  Dipole Moment: [D]
     X:     4.0805      Y:    -1.0906      Z:     0.9370     Total:     4.3264

*** Psi4 exiting successfully. Buy a developer a beer!
