                               Psi4 1.4a3.dev225

  ==> Input File <==

--------------------------------------------------------------------------
#psi4
#
memory 32 gb

molecule  {
0 1
  O       -2.5416370     0.0659770    -0.3927070
  N       -0.7122740    -1.2241950    -0.0249760
  C        1.8380290     0.7314390    -0.0343340
  C        1.7187040    -0.7521010    -0.3806110
  C        0.5749500     1.5632640    -0.2598230
  C        0.6653439    -1.4962147     0.4248301
  C       -0.6257670     1.1444980     0.6024810
  C       -1.3868420    -0.0349600     0.0307530
  H        2.6566510     1.1652070    -0.6217190
  H        2.1344690     0.8237010     1.0199600
  H        1.5025340    -0.8781880    -1.4483810
  H        2.6863370    -1.2343500    -0.1898600
  H        0.2863390     1.5300770    -1.3181450
  H        0.8108260     2.6104720    -0.0371320
  H        0.7923570    -2.5718330     0.3164690
  H        0.7525260    -1.2638240     1.4882170
  H       -1.3561390     1.9546950     0.6612310
  H       -0.2921570     0.9237120     1.6255030
  H       -1.2491170    -1.9758090    -0.4428220
units angstrom
no_reorient  #important for SAPT in psi4, default
symmetry c1  #important for SAPT in psi4, default
}

set PROPERTIES_ORIGIN ["COM"]
properties('MP2/aug-cc-pvtz', properties = ['dipole'])
--------------------------------------------------------------------------

    Molecular point group: c1
  Charge       = 0
  Multiplicity = 1
  Basis Set: AUG-CC-PVTZ
    Blend: AUG-CC-PVTZ
  Basis Set: (AUG-CC-PVTZ AUX)
    Blend: AUG-CC-PVTZ-JKFIT

    Orbital Energies [Eh]
    ---------------------

    Doubly Occupied:

       1A    -20.508052     2A    -15.577742     3A    -11.342093
       4A    -11.277796     5A    -11.236572     6A    -11.235660
       7A    -11.234701     8A    -11.233463     9A     -1.362232
      10A     -1.223678    11A     -1.094189    12A     -1.043284
      13A     -0.946240    14A     -0.887560    15A     -0.795780
      16A     -0.762737    17A     -0.685175    18A     -0.676518
      19A     -0.625585    20A     -0.613154    21A     -0.601201
      22A     -0.592113    23A     -0.569117    24A     -0.545059
      25A     -0.520071    26A     -0.516169    27A     -0.481747
      28A     -0.470855    29A     -0.469966    30A     -0.409587
      31A     -0.382992

  @DF-RHF Final Energy:  -363.07514830950038

   => Energetics <=

    Nuclear Repulsion Energy =            393.8611812874964357
    One-Electron Energy =               -1274.0304867766378720
    Two-Electron Energy =                 517.0941571796410017
    Total Energy =                       -363.0751483095003778
  Basis Set: (AUG-CC-PVTZ AUX)
    Blend: AUG-CC-PVTZ-RI
    Molecular point group: c1

    Geometry (in Angstrom), charge = 0, multiplicity = 1:

       Center              X                  Y                   Z               Mass
    ------------   -----------------  -----------------  -----------------  -----------------
         O           -2.467166904334     0.075914314066    -0.384129847686    15.994914619570
         N           -0.637803904334    -1.214257685934    -0.016398847686    14.003074004430
         C            1.912499095666     0.741376314066    -0.025756847686    12.000000000000
         C            1.793174095666    -0.742163685934    -0.372033847686    12.000000000000
         C            0.649420095666     1.573201314066    -0.251245847686    12.000000000000
         C            0.739813995666    -1.486277385934     0.433407252314    12.000000000000
         C           -0.551296904334     1.154435314066     0.611058152314    12.000000000000
         C           -1.312371904334    -0.025022685934     0.039330152314    12.000000000000
         H            2.731121095666     1.175144314066    -0.613141847686     1.007825032230
         H            2.208939095666     0.833638314066     1.028537152314     1.007825032230
         H            1.577004095666    -0.868250685934    -1.439803847686     1.007825032230
         H            2.760807095666    -1.224412685934    -0.181282847686     1.007825032230
         H            0.360809095666     1.540014314066    -1.309567847686     1.007825032230
         H            0.885296095666     2.620409314066    -0.028554847686     1.007825032230
         H            0.866827095666    -2.561895685934     0.325046152314     1.007825032230
         H            0.826996095666    -1.253886685934     1.496794152314     1.007825032230
         H           -1.281668904334     1.964632314066     0.669808152314     1.007825032230
         H           -0.217686904334     0.933649314066     1.634080152314     1.007825032230
         H           -1.174646904334    -1.965871685934    -0.434244847686     1.007825032230

  Basis Set: AUG-CC-PVTZ
    Blend: AUG-CC-PVTZ
  Basis Set: (AUG-CC-PVTZ AUX)
    Blend: AUG-CC-PVTZ-JKFIT
	 Reference Energy          =    -363.0751483095003778 [Eh]
	 Singles Energy            =      -0.0000000000000000 [Eh]
	 Same-Spin Energy          =      -0.3776563468515277 [Eh]
	 Opposite-Spin Energy      =      -1.2476941299287172 [Eh]
	 Correlation Energy        =      -1.6253504767802449 [Eh]
	 Total Energy              =    -364.7004987862806047 [Eh]

	 ================> DF-SCS-MP2 Energies <==================
	-----------------------------------------------------------
	 SCS Same-Spin Scale       =       0.3333333333333333 [-]
	 SCS Opposite-Spin Scale   =       1.2000000000000000 [-]
	 SCS Same-Spin Energy      =      -0.1258854489505092 [Eh]
	 SCS Opposite-Spin Energy  =      -1.4972329559144606 [Eh]
	 SCS Correlation Energy    =      -1.6231184048649698 [Eh]
	 SCS Total Energy          =    -364.6982667143653316 [Eh]
	-----------------------------------------------------------

  Dipole Moment: [D]
     X:     4.1341      Y:    -1.0482      Z:     0.9099     Total:     4.3609

*** Psi4 exiting successfully. Buy a developer a beer!
