                               Psi4 1.4a3.dev225

  ==> Input File <==

--------------------------------------------------------------------------
#psi4
#
memory 32 gb

molecule  {
0 1
  O       -2.5416370     0.0659770    -0.3927070
  N       -0.7122740    -1.2241950    -0.0249760
  C        1.8380290     0.7314390    -0.0343340
  C        1.7226084    -0.7035585    -0.3692806
  C        0.5749500     1.5632640    -0.2598230
  C        0.6466580    -1.4925250     0.4187290
  C       -0.6257670     1.1444980     0.6024810
  C       -1.3868420    -0.0349600     0.0307530
  H        2.6566510     1.1652070    -0.6217190
  H        2.1344690     0.8237010     1.0199600
  H        1.5025340    -0.8781880    -1.4483810
  H        2.6863370    -1.2343500    -0.1898600
  H        0.2863390     1.5300770    -1.3181450
  H        0.8108260     2.6104720    -0.0371320
  H        0.7923570    -2.5718330     0.3164690
  H        0.7525260    -1.2638240     1.4882170
  H       -1.3561390     1.9546950     0.6612310
  H       -0.2921570     0.9237120     1.6255030
  H       -1.2491170    -1.9758090    -0.4428220
units angstrom
no_reorient  #important for SAPT in psi4, default
symmetry c1  #important for SAPT in psi4, default
}

set PROPERTIES_ORIGIN ["COM"]
properties('MP2/aug-cc-pvtz', properties = ['dipole'])
--------------------------------------------------------------------------

    Molecular point group: c1
  Charge       = 0
  Multiplicity = 1
  Basis Set: AUG-CC-PVTZ
    Blend: AUG-CC-PVTZ
  Basis Set: (AUG-CC-PVTZ AUX)
    Blend: AUG-CC-PVTZ-JKFIT

    Orbital Energies [Eh]
    ---------------------

    Doubly Occupied:

       1A    -20.509051     2A    -15.578426     3A    -11.343036
       4A    -11.278387     5A    -11.236986     6A    -11.236277
       7A    -11.236231     8A    -11.231319     9A     -1.363426
      10A     -1.227884    11A     -1.099162    12A     -1.041673
      13A     -0.945680    14A     -0.890347    15A     -0.793234
      16A     -0.764306    17A     -0.687108    18A     -0.677710
      19A     -0.627767    20A     -0.612583    21A     -0.603633
      22A     -0.592046    23A     -0.568597    24A     -0.543612
      25A     -0.521088    26A     -0.512658    27A     -0.485230
      28A     -0.471636    29A     -0.467715    30A     -0.410608
      31A     -0.380737

  @DF-RHF Final Energy:  -363.07247822379190

   => Energetics <=

    Nuclear Repulsion Energy =            394.4710858299499137
    One-Electron Energy =               -1275.2108276176602430
    Two-Electron Energy =                 517.6672635639183682
    Total Energy =                       -363.0724782237919044
  Basis Set: (AUG-CC-PVTZ AUX)
    Blend: AUG-CC-PVTZ-RI
    Molecular point group: c1

    Geometry (in Angstrom), charge = 0, multiplicity = 1:

       Center              X                  Y                   Z               Mass
    ------------   -----------------  -----------------  -----------------  -----------------
         O           -2.465598354410     0.070371655109    -0.384684758765    15.994914619570
         N           -0.636235354410    -1.219800344891    -0.016953758765    14.003074004430
         C            1.914067645590     0.735833655109    -0.026311758765    12.000000000000
         C            1.798647045590    -0.699163844891    -0.361258358765    12.000000000000
         C            0.650988645590     1.567658655109    -0.251800758765    12.000000000000
         C            0.722696645590    -1.488130344891     0.426751241235    12.000000000000
         C           -0.549728354410     1.148892655109     0.610503241235    12.000000000000
         C           -1.310803354410    -0.030565344891     0.038775241235    12.000000000000
         H            2.732689645590     1.169601655109    -0.613696758765     1.007825032230
         H            2.210507645590     0.828095655109     1.027982241235     1.007825032230
         H            1.578572645590    -0.873793344891    -1.440358758765     1.007825032230
         H            2.762375645590    -1.229955344891    -0.181837758765     1.007825032230
         H            0.362377645590     1.534471655109    -1.310122758765     1.007825032230
         H            0.886864645590     2.614866655109    -0.029109758765     1.007825032230
         H            0.868395645590    -2.567438344891     0.324491241235     1.007825032230
         H            0.828564645590    -1.259429344891     1.496239241235     1.007825032230
         H           -1.280100354410     1.959089655109     0.669253241235     1.007825032230
         H           -0.216118354410     0.928106655109     1.633525241235     1.007825032230
         H           -1.173078354410    -1.971414344891    -0.434799758765     1.007825032230

  Basis Set: AUG-CC-PVTZ
    Blend: AUG-CC-PVTZ
  Basis Set: (AUG-CC-PVTZ AUX)
    Blend: AUG-CC-PVTZ-JKFIT
	 Reference Energy          =    -363.0724782237919044 [Eh]
	 Singles Energy            =      -0.0000000000000000 [Eh]
	 Same-Spin Energy          =      -0.3780702957352958 [Eh]
	 Opposite-Spin Energy      =      -1.2480968008129312 [Eh]
	 Correlation Energy        =      -1.6261670965482269 [Eh]
	 Total Energy              =    -364.6986453203401197 [Eh]

	 ================> DF-SCS-MP2 Energies <==================
	-----------------------------------------------------------
	 SCS Same-Spin Scale       =       0.3333333333333333 [-]
	 SCS Opposite-Spin Scale   =       1.2000000000000000 [-]
	 SCS Same-Spin Energy      =      -0.1260234319117652 [Eh]
	 SCS Opposite-Spin Energy  =      -1.4977161609755174 [Eh]
	 SCS Correlation Energy    =      -1.6237395928872826 [Eh]
	 SCS Total Energy          =    -364.6962178166791659 [Eh]
	-----------------------------------------------------------

  Dipole Moment: [D]
     X:     4.0671      Y:    -1.0209      Z:     0.9054     Total:     4.2899

*** Psi4 exiting successfully. Buy a developer a beer!
