                               Psi4 1.3.2 release

  ==> Input File <==

--------------------------------------------------------------------------
#psi4
#
memory 32 gb

molecule  {
0 1
  O       -2.5416370     0.0659770    -0.3927070
  N       -0.7122740    -1.2241950    -0.0249760
  C        1.8380290     0.7314390    -0.0343340
  C        1.7187040    -0.7521010    -0.3806110
  C        0.5749500     1.5632640    -0.2598230
  C        0.6257304    -1.6353481     0.3703323
  C       -0.6257670     1.1444980     0.6024810
  C       -1.3868420    -0.0349600     0.0307530
  H        2.6566510     1.1652070    -0.6217190
  H        2.1344690     0.8237010     1.0199600
  H        1.5025340    -0.8781880    -1.4483810
  H        2.6863370    -1.2343500    -0.1898600
  H        0.2863390     1.5300770    -1.3181450
  H        0.8108260     2.6104720    -0.0371320
  H        0.7923570    -2.5718330     0.3164690
  H        0.7525260    -1.2638240     1.4882170
  H       -1.3561390     1.9546950     0.6612310
  H       -0.2921570     0.9237120     1.6255030
  H       -1.2491170    -1.9758090    -0.4428220
units angstrom
no_reorient  #important for SAPT in psi4, default
symmetry c1  #important for SAPT in psi4, default
}

set PROPERTIES_ORIGIN ["COM"]
properties('MP2/aug-cc-pvtz', properties = ['dipole'])
--------------------------------------------------------------------------

    Molecular point group: c1
  Charge       = 0
  Multiplicity = 1
  Basis Set: AUG-CC-PVTZ
    Blend: AUG-CC-PVTZ
  Basis Set: (AUG-CC-PVTZ AUX)
    Blend: AUG-CC-PVTZ-JKFIT

    Orbital Energies [Eh]
    ---------------------

    Doubly Occupied:

       1A    -20.510460     2A    -15.579664     3A    -11.347167
       4A    -11.278579     5A    -11.237350     6A    -11.236677
       7A    -11.236044     8A    -11.235374     9A     -1.364561
      10A     -1.227796    11A     -1.091614    12A     -1.039520
      13A     -0.948748    14A     -0.896132    15A     -0.792545
      16A     -0.761659    17A     -0.703165    18A     -0.678935
      19A     -0.621969    20A     -0.618822    21A     -0.602517
      22A     -0.594739    23A     -0.568773    24A     -0.536957
      25A     -0.524757    26A     -0.504727    27A     -0.483485
      28A     -0.474719    29A     -0.465305    30A     -0.413072
      31A     -0.373807

  @DF-RHF Final Energy:  -363.04513454844385

   => Energetics <=

    Nuclear Repulsion Energy =            392.5173901331069146
    One-Electron Energy =               -1271.2257730189612630
    Two-Electron Energy =                 515.6632483374104368
    Total Energy =                       -363.0451345484439116
  Basis Set: (AUG-CC-PVTZ AUX)
    Blend: AUG-CC-PVTZ-RI
    Molecular point group: c1

    Geometry (in Angstrom), charge = 0, multiplicity = 1:

       Center              X                  Y                   Z               Mass
    ------------   -----------------  -----------------  -----------------  -----------------
         O           -2.462963288164     0.090678558834    -0.378346772892    15.994914619570
         N           -0.633600288164    -1.199493441166    -0.010615772892    14.003074004430
         C            1.916702711836     0.756140558834    -0.019973772892    12.000000000000
         C            1.797377711836    -0.727399441166    -0.366250772892    12.000000000000
         C            0.653623711836     1.587965558834    -0.245462772892    12.000000000000
         C            0.704404111836    -1.610646541166     0.384692527108    12.000000000000
         C           -0.547093288164     1.169199558834     0.616841227108    12.000000000000
         C           -1.308168288164    -0.010258441166     0.045113227108    12.000000000000
         H            2.735324711836     1.189908558834    -0.607358772892     1.007825032230
         H            2.213142711836     0.848402558834     1.034320227108     1.007825032230
         H            1.581207711836    -0.853486441166    -1.434020772892     1.007825032230
         H            2.765010711836    -1.209648441166    -0.175499772892     1.007825032230
         H            0.365012711836     1.554778558834    -1.303784772892     1.007825032230
         H            0.889499711836     2.635173558834    -0.022771772892     1.007825032230
         H            0.871030711836    -2.547131441166     0.330829227108     1.007825032230
         H            0.831199711836    -1.239122441166     1.502577227108     1.007825032230
         H           -1.277465288164     1.979396558834     0.675591227108     1.007825032230
         H           -0.213483288164     0.948413558834     1.639863227108     1.007825032230
         H           -1.170443288164    -1.951107441166    -0.428461772892     1.007825032230

  Basis Set: AUG-CC-PVTZ
    Blend: AUG-CC-PVTZ
  Basis Set: (AUG-CC-PVTZ AUX)
    Blend: AUG-CC-PVTZ-JKFIT
	 Reference Energy          =    -363.0451345484438548 [Eh]
	 Singles Energy            =      -0.0000000000000000 [Eh]
	 Same-Spin Energy          =      -0.3778042053240932 [Eh]
	 Opposite-Spin Energy      =      -1.2487350227862852 [Eh]
	 Correlation Energy        =      -1.6265392281103783 [Eh]
	 Total Energy              =    -364.6716737765542575 [Eh]

	 ================> DF-SCS-MP2 Energies <==================
	-----------------------------------------------------------
	 SCS Same-Spin Scale       =       0.3333333333333333 [-]
	 SCS Opposite-Spin Scale   =       1.2000000000000000 [-]
	 SCS Same-Spin Energy      =      -0.1259347351080310 [Eh]
	 SCS Opposite-Spin Energy  =      -1.4984820273435422 [Eh]
	 SCS Correlation Energy    =      -1.6244167624515733 [Eh]
	 SCS Total Energy          =    -364.6695513108954287 [Eh]
	-----------------------------------------------------------

  Dipole Moment: [D]
     X:     4.0184      Y:    -1.0889      Z:     0.8291     Total:     4.2451

*** Psi4 exiting successfully. Buy a developer a beer!
