                               Psi4 1.3.2 release

  ==> Input File <==

--------------------------------------------------------------------------
#psi4
#
memory 32 gb

molecule  {
0 1
  O       -2.5416370     0.0659770    -0.3927070
  N       -0.7122740    -1.2241950    -0.0249760
  C        1.8380290     0.7314390    -0.0343340
  C        1.7187040    -0.7521010    -0.3806110
  C        0.5749500     1.5632640    -0.2598230
  C        0.6466580    -1.4925250     0.4187290
  C       -0.6257670     1.1444980     0.6024810
  C       -1.3868420    -0.0349600     0.0307530
  H        2.6927531     1.1796372    -0.5557580
  H        2.1344690     0.8237010     1.0199600
  H        1.5025340    -0.8781880    -1.4483810
  H        2.6863370    -1.2343500    -0.1898600
  H        0.2863390     1.5300770    -1.3181450
  H        0.8108260     2.6104720    -0.0371320
  H        0.7923570    -2.5718330     0.3164690
  H        0.7525260    -1.2638240     1.4882170
  H       -1.3561390     1.9546950     0.6612310
  H       -0.2921570     0.9237120     1.6255030
  H       -1.2491170    -1.9758090    -0.4428220
units angstrom
no_reorient  #important for SAPT in psi4, default
symmetry c1  #important for SAPT in psi4, default
}

set PROPERTIES_ORIGIN ["COM"]
properties('MP2/aug-cc-pvtz', properties = ['dipole'])
--------------------------------------------------------------------------

    Molecular point group: c1
  Charge       = 0
  Multiplicity = 1
  Basis Set: AUG-CC-PVTZ
    Blend: AUG-CC-PVTZ
  Basis Set: (AUG-CC-PVTZ AUX)
    Blend: AUG-CC-PVTZ-JKFIT

    Orbital Energies [Eh]
    ---------------------

    Doubly Occupied:

       1A    -20.509140     2A    -15.578761     3A    -11.343120
       4A    -11.277592     5A    -11.236988     6A    -11.236223
       7A    -11.234705     8A    -11.232891     9A     -1.363539
      10A     -1.228370    11A     -1.093706    12A     -1.042281
      13A     -0.945425    14A     -0.888562    15A     -0.797024
      16A     -0.764241    17A     -0.687697    18A     -0.676598
      19A     -0.625684    20A     -0.612083    21A     -0.601559
      22A     -0.592383    23A     -0.568889    24A     -0.545227
      25A     -0.518669    26A     -0.515807    27A     -0.482013
      28A     -0.470329    29A     -0.469477    30A     -0.410713
      31A     -0.382919

  @DF-RHF Final Energy:  -363.07489149173267

   => Energetics <=

    Nuclear Repulsion Energy =            394.0318974925361886
    One-Electron Energy =               -1274.3483459668009345
    Two-Electron Energy =                 517.2415569825320745
    Total Energy =                       -363.0748914917326147
  Basis Set: (AUG-CC-PVTZ AUX)
    Blend: AUG-CC-PVTZ-RI
    Molecular point group: c1

    Geometry (in Angstrom), charge = 0, multiplicity = 1:

       Center              X                  Y                   Z               Mass
    ------------   -----------------  -----------------  -----------------  -----------------
         O           -2.465505784338     0.075394174315    -0.384070280910    15.994914619570
         N           -0.636142784338    -1.214777825685    -0.016339280910    14.003074004430
         C            1.914160215662     0.740856174315    -0.025697280910    12.000000000000
         C            1.794835215662    -0.742683825685    -0.371974280910    12.000000000000
         C            0.651081215662     1.572681174315    -0.251186280910    12.000000000000
         C            0.722789215662    -1.483107825685     0.427365719090    12.000000000000
         C           -0.549635784338     1.153915174315     0.611117719090    12.000000000000
         C           -1.310710784338    -0.025542825685     0.039389719090    12.000000000000
         H            2.768884315662     1.189054374315    -0.547121280910     1.007825032230
         H            2.210600215662     0.833118174315     1.028596719090     1.007825032230
         H            1.578665215662    -0.868770825685    -1.439744280910     1.007825032230
         H            2.762468215662    -1.224932825685    -0.181223280910     1.007825032230
         H            0.362470215662     1.539494174315    -1.309508280910     1.007825032230
         H            0.886957215662     2.619889174315    -0.028495280910     1.007825032230
         H            0.868488215662    -2.562415825685     0.325105719090     1.007825032230
         H            0.828657215662    -1.254406825685     1.496853719090     1.007825032230
         H           -1.280007784338     1.964112174315     0.669867719090     1.007825032230
         H           -0.216025784338     0.933129174315     1.634139719090     1.007825032230
         H           -1.172985784338    -1.966391825685    -0.434185280910     1.007825032230

  Basis Set: AUG-CC-PVTZ
    Blend: AUG-CC-PVTZ
  Basis Set: (AUG-CC-PVTZ AUX)
    Blend: AUG-CC-PVTZ-JKFIT
	 Reference Energy          =    -363.0748914917326715 [Eh]
	 Singles Energy            =      -0.0000000000000000 [Eh]
	 Same-Spin Energy          =      -0.3777575570210417 [Eh]
	 Opposite-Spin Energy      =      -1.2476682713938534 [Eh]
	 Correlation Energy        =      -1.6254258284148950 [Eh]
	 Total Energy              =    -364.7003173201475761 [Eh]

	 ================> DF-SCS-MP2 Energies <==================
	-----------------------------------------------------------
	 SCS Same-Spin Scale       =       0.3333333333333333 [-]
	 SCS Opposite-Spin Scale   =       1.2000000000000000 [-]
	 SCS Same-Spin Energy      =      -0.1259191856736805 [Eh]
	 SCS Opposite-Spin Energy  =      -1.4972019256726241 [Eh]
	 SCS Correlation Energy    =      -1.6231211113463047 [Eh]
	 SCS Total Energy          =    -364.6980126030789506 [Eh]
	-----------------------------------------------------------

  Dipole Moment: [D]
     X:     4.0806      Y:    -1.0330      Z:     0.9165     Total:     4.3079

*** Psi4 exiting successfully. Buy a developer a beer!
