                               Psi4 1.3.2 release

  ==> Input File <==

--------------------------------------------------------------------------
#psi4
#
memory 32 gb

molecule  {
0 1
  O       -2.5416370     0.0659770    -0.3927070
  N       -0.7122740    -1.2241950    -0.0249760
  C        1.8380290     0.7314390    -0.0343340
  C        1.7187040    -0.7521010    -0.3806110
  C        0.5749500     1.5632640    -0.2598230
  C        0.6466580    -1.4925250     0.4187290
  C       -0.6257670     1.1444980     0.6024810
  C       -1.4302241    -0.0047550     0.0286383
  H        2.6566510     1.1652070    -0.6217190
  H        2.1344690     0.8237010     1.0199600
  H        1.5025340    -0.8781880    -1.4483810
  H        2.6863370    -1.2343500    -0.1898600
  H        0.2863390     1.5300770    -1.3181450
  H        0.8108260     2.6104720    -0.0371320
  H        0.7923570    -2.5718330     0.3164690
  H        0.7525260    -1.2638240     1.4882170
  H       -1.3561390     1.9546950     0.6612310
  H       -0.2921570     0.9237120     1.6255030
  H       -1.2491170    -1.9758090    -0.4428220
units angstrom
no_reorient  #important for SAPT in psi4, default
symmetry c1  #important for SAPT in psi4, default
}

set PROPERTIES_ORIGIN ["COM"]
properties('MP2/aug-cc-pvtz', properties = ['dipole'])
--------------------------------------------------------------------------

    Molecular point group: c1
  Charge       = 0
  Multiplicity = 1
  Basis Set: AUG-CC-PVTZ
    Blend: AUG-CC-PVTZ
  Basis Set: (AUG-CC-PVTZ AUX)
    Blend: AUG-CC-PVTZ-JKFIT

    Orbital Energies [Eh]
    ---------------------

    Doubly Occupied:

       1A    -20.520700     2A    -15.568141     3A    -11.344037
       4A    -11.272031     5A    -11.236647     6A    -11.235805
       7A    -11.231509     8A    -11.230388     9A     -1.393728
      10A     -1.215547    11A     -1.090855    12A     -1.039341
      13A     -0.940995    14A     -0.883342    15A     -0.792363
      16A     -0.754160    17A     -0.683862    18A     -0.681194
      19A     -0.624465    20A     -0.612978    21A     -0.600034
      22A     -0.597140    23A     -0.570404    24A     -0.550308
      25A     -0.523303    26A     -0.515434    27A     -0.479088
      28A     -0.472176    29A     -0.467839    30A     -0.414925
      31A     -0.379821

  @DF-RHF Final Energy:  -363.07378373224526

   => Energetics <=

    Nuclear Repulsion Energy =            393.8610596559769874
    One-Electron Energy =               -1274.0245699171000524
    Two-Electron Energy =                 517.0897265288778044
    Total Energy =                       -363.0737837322452606
  Basis Set: (AUG-CC-PVTZ AUX)
    Blend: AUG-CC-PVTZ-RI
    Molecular point group: c1

    Geometry (in Angstrom), charge = 0, multiplicity = 1:

       Center              X                  Y                   Z               Mass
    ------------   -----------------  -----------------  -----------------  -----------------
         O           -2.460580512107     0.072317552633    -0.383258021926    15.994914619570
         N           -0.631217512107    -1.217854447367    -0.015527021926    14.003074004430
         C            1.919085487893     0.737779552633    -0.024885021926    12.000000000000
         C            1.799760487893    -0.745760447367    -0.371162021926    12.000000000000
         C            0.656006487893     1.569604552633    -0.250374021926    12.000000000000
         C            0.727714487893    -1.486184447367     0.428177978074    12.000000000000
         C           -0.544710512107     1.150838552633     0.611929978074    12.000000000000
         C           -1.349167612107     0.001585552633     0.038087278074    12.000000000000
         H            2.737707487893     1.171547552633    -0.612270021926     1.007825032230
         H            2.215525487893     0.830041552633     1.029408978074     1.007825032230
         H            1.583590487893    -0.871847447367    -1.438932021926     1.007825032230
         H            2.767393487893    -1.228009447367    -0.180411021926     1.007825032230
         H            0.367395487893     1.536417552633    -1.308696021926     1.007825032230
         H            0.891882487893     2.616812552633    -0.027683021926     1.007825032230
         H            0.873413487893    -2.565492447367     0.325917978074     1.007825032230
         H            0.833582487893    -1.257483447367     1.497665978074     1.007825032230
         H           -1.275082512107     1.961035552633     0.670679978074     1.007825032230
         H           -0.211100512107     0.930052552633     1.634951978074     1.007825032230
         H           -1.168060512107    -1.969468447367    -0.433373021926     1.007825032230

  Basis Set: AUG-CC-PVTZ
    Blend: AUG-CC-PVTZ
  Basis Set: (AUG-CC-PVTZ AUX)
    Blend: AUG-CC-PVTZ-JKFIT
	 Reference Energy          =    -363.0737837322452606 [Eh]
	 Singles Energy            =      -0.0000000000000000 [Eh]
	 Same-Spin Energy          =      -0.3770253844514504 [Eh]
	 Opposite-Spin Energy      =      -1.2463432621689265 [Eh]
	 Correlation Energy        =      -1.6233686466203769 [Eh]
	 Total Energy              =    -364.6971523788656100 [Eh]

	 ================> DF-SCS-MP2 Energies <==================
	-----------------------------------------------------------
	 SCS Same-Spin Scale       =       0.3333333333333333 [-]
	 SCS Opposite-Spin Scale   =       1.2000000000000000 [-]
	 SCS Same-Spin Energy      =      -0.1256751281504835 [Eh]
	 SCS Opposite-Spin Energy  =      -1.4956119146027118 [Eh]
	 SCS Correlation Energy    =      -1.6212870427531954 [Eh]
	 SCS Total Energy          =    -364.6950707749984417 [Eh]
	-----------------------------------------------------------

  Dipole Moment: [D]
     X:     3.6503      Y:    -0.7590      Z:     0.8293     Total:     3.8195

*** Psi4 exiting successfully. Buy a developer a beer!
