                               Psi4 1.3.2 release

  ==> Input File <==

--------------------------------------------------------------------------
#psi4
#
memory 32 gb

molecule  {
0 1
  O       -2.5416370     0.0659770    -0.3927070
  N       -0.6742507    -1.2025665    -0.0058004
  C        1.8380290     0.7314390    -0.0343340
  C        1.7187040    -0.7521010    -0.3806110
  C        0.5749500     1.5632640    -0.2598230
  C        0.6466580    -1.4925250     0.4187290
  C       -0.6257670     1.1444980     0.6024810
  C       -1.3868420    -0.0349600     0.0307530
  H        2.6566510     1.1652070    -0.6217190
  H        2.1344690     0.8237010     1.0199600
  H        1.5025340    -0.8781880    -1.4483810
  H        2.6863370    -1.2343500    -0.1898600
  H        0.2863390     1.5300770    -1.3181450
  H        0.8108260     2.6104720    -0.0371320
  H        0.7923570    -2.5718330     0.3164690
  H        0.7525260    -1.2638240     1.4882170
  H       -1.3561390     1.9546950     0.6612310
  H       -0.2921570     0.9237120     1.6255030
  H       -1.2491170    -1.9758090    -0.4428220
units angstrom
no_reorient  #important for SAPT in psi4, default
symmetry c1  #important for SAPT in psi4, default
}

set PROPERTIES_ORIGIN ["COM"]
properties('MP2/aug-cc-pvtz', properties = ['dipole'])
--------------------------------------------------------------------------

    Molecular point group: c1
  Charge       = 0
  Multiplicity = 1
  Basis Set: AUG-CC-PVTZ
    Blend: AUG-CC-PVTZ
  Basis Set: (AUG-CC-PVTZ AUX)
    Blend: AUG-CC-PVTZ-JKFIT

    Orbital Energies [Eh]
    ---------------------

    Doubly Occupied:

       1A    -20.511955     2A    -15.582318     3A    -11.344846
       4A    -11.275191     5A    -11.235946     6A    -11.234352
       7A    -11.233132     8A    -11.232396     9A     -1.364468
      10A     -1.235954    11A     -1.092249    12A     -1.043486
      13A     -0.943003    14A     -0.892348    15A     -0.795409
      16A     -0.755290    17A     -0.693592    18A     -0.677784
      19A     -0.626224    20A     -0.609981    21A     -0.602884
      22A     -0.595074    23A     -0.569191    24A     -0.544712
      25A     -0.518311    26A     -0.514768    27A     -0.480426
      28A     -0.469646    29A     -0.468962    30A     -0.411734
      31A     -0.381989

  @DF-RHF Final Energy:  -363.07044318071195

   => Energetics <=

    Nuclear Repulsion Energy =            394.7544764610095172
    One-Electron Energy =               -1275.7745998703694568
    Two-Electron Energy =                 517.9496802286480488
    Total Energy =                       -363.0704431807118908
  Basis Set: (AUG-CC-PVTZ AUX)
    Blend: AUG-CC-PVTZ-RI
    Molecular point group: c1

    Geometry (in Angstrom), charge = 0, multiplicity = 1:

       Center              X                  Y                   Z               Mass
    ------------   -----------------  -----------------  -----------------  -----------------
         O           -2.469892419079     0.072844545666    -0.385856918141    15.994914619570
         N           -0.602506119079    -1.195698954334     0.001049681859    14.003074004430
         C            1.909773580921     0.738306545666    -0.027483918141    12.000000000000
         C            1.790448580921    -0.745233454334    -0.373760918141    12.000000000000
         C            0.646694580921     1.570131545666    -0.252972918141    12.000000000000
         C            0.718402580921    -1.485657454334     0.425579081859    12.000000000000
         C           -0.554022419079     1.151365545666     0.609331081859    12.000000000000
         C           -1.315097419079    -0.028092454334     0.037603081859    12.000000000000
         H            2.728395580921     1.172074545666    -0.614868918141     1.007825032230
         H            2.206213580921     0.830568545666     1.026810081859     1.007825032230
         H            1.574278580921    -0.871320454334    -1.441530918141     1.007825032230
         H            2.758081580921    -1.227482454334    -0.183009918141     1.007825032230
         H            0.358083580921     1.536944545666    -1.311294918141     1.007825032230
         H            0.882570580921     2.617339545666    -0.030281918141     1.007825032230
         H            0.864101580921    -2.564965454334     0.323319081859     1.007825032230
         H            0.824270580921    -1.256956454334     1.495067081859     1.007825032230
         H           -1.284394419079     1.961562545666     0.668081081859     1.007825032230
         H           -0.220412419079     0.930579545666     1.632353081859     1.007825032230
         H           -1.177372419079    -1.968941454334    -0.435971918141     1.007825032230

  Basis Set: AUG-CC-PVTZ
    Blend: AUG-CC-PVTZ
  Basis Set: (AUG-CC-PVTZ AUX)
    Blend: AUG-CC-PVTZ-JKFIT
	 Reference Energy          =    -363.0704431807119477 [Eh]
	 Singles Energy            =      -0.0000000000000000 [Eh]
	 Same-Spin Energy          =      -0.3785263961748621 [Eh]
	 Opposite-Spin Energy      =      -1.2488294649241083 [Eh]
	 Correlation Energy        =      -1.6273558610989705 [Eh]
	 Total Energy              =    -364.6977990418109243 [Eh]

	 ================> DF-SCS-MP2 Energies <==================
	-----------------------------------------------------------
	 SCS Same-Spin Scale       =       0.3333333333333333 [-]
	 SCS Opposite-Spin Scale   =       1.2000000000000000 [-]
	 SCS Same-Spin Energy      =      -0.1261754653916207 [Eh]
	 SCS Opposite-Spin Energy  =      -1.4985953579089299 [Eh]
	 SCS Correlation Energy    =      -1.6247708233005507 [Eh]
	 SCS Total Energy          =    -364.6952140040124846 [Eh]
	-----------------------------------------------------------

  Dipole Moment: [D]
     X:     3.9941      Y:    -1.0839      Z:     0.8721     Total:     4.2294

*** Psi4 exiting successfully. Buy a developer a beer!
