                               Psi4 1.3.2 release

  ==> Input File <==

--------------------------------------------------------------------------
#psi4
#
memory 32 gb

molecule  {
0 1
  O       -2.5416370     0.0659770    -0.3927070
  N       -0.7122740    -1.2241950    -0.0249760
  C        1.8380290     0.7314390    -0.0343340
  C        1.7187040    -0.7521010    -0.3806110
  C        0.5749500     1.5632640    -0.2598230
  C        0.5532285    -1.4740767     0.3882233
  C       -0.6257670     1.1444980     0.6024810
  C       -1.3868420    -0.0349600     0.0307530
  H        2.6566510     1.1652070    -0.6217190
  H        2.1344690     0.8237010     1.0199600
  H        1.5025340    -0.8781880    -1.4483810
  H        2.6863370    -1.2343500    -0.1898600
  H        0.2863390     1.5300770    -1.3181450
  H        0.8108260     2.6104720    -0.0371320
  H        0.7923570    -2.5718330     0.3164690
  H        0.7525260    -1.2638240     1.4882170
  H       -1.3561390     1.9546950     0.6612310
  H       -0.2921570     0.9237120     1.6255030
  H       -1.2491170    -1.9758090    -0.4428220
units angstrom
no_reorient  #important for SAPT in psi4, default
symmetry c1  #important for SAPT in psi4, default
}

set PROPERTIES_ORIGIN ["COM"]
properties('MP2/aug-cc-pvtz', properties = ['dipole'])
--------------------------------------------------------------------------

    Molecular point group: c1
  Charge       = 0
  Multiplicity = 1
  Basis Set: AUG-CC-PVTZ
    Blend: AUG-CC-PVTZ
  Basis Set: (AUG-CC-PVTZ AUX)
    Blend: AUG-CC-PVTZ-JKFIT

    Orbital Energies [Eh]
    ---------------------

    Doubly Occupied:

       1A    -20.514432     2A    -15.582320     3A    -11.347807
       4A    -11.276931     5A    -11.237985     6A    -11.236660
       7A    -11.232848     8A    -11.231006     9A     -1.370447
      10A     -1.255151    11A     -1.093344    12A     -1.036894
      13A     -0.941098    14A     -0.895236    15A     -0.795161
      16A     -0.770935    17A     -0.702830    18A     -0.678991
      19A     -0.630908    20A     -0.609807    21A     -0.603855
      22A     -0.590437    23A     -0.573690    24A     -0.545328
      25A     -0.517512    26A     -0.510282    27A     -0.478554
      28A     -0.471031    29A     -0.462982    30A     -0.415383
      31A     -0.377800

  @DF-RHF Final Energy:  -363.06442867190435

   => Energetics <=

    Nuclear Repulsion Energy =            395.2818834499772720
    One-Electron Energy =               -1276.7173312751162939
    Two-Electron Energy =                 518.3710191532346698
    Total Energy =                       -363.0644286719043521
  Basis Set: (AUG-CC-PVTZ AUX)
    Blend: AUG-CC-PVTZ-RI
    Molecular point group: c1

    Geometry (in Angstrom), charge = 0, multiplicity = 1:

       Center              X                  Y                   Z               Mass
    ------------   -----------------  -----------------  -----------------  -----------------
         O           -2.455269694837     0.073565123643    -0.380245289733    15.994914619570
         N           -0.625906694837    -1.216606876357    -0.012514289733    14.003074004430
         C            1.924396305163     0.739027123643    -0.021872289733    12.000000000000
         C            1.805071305163    -0.744512876357    -0.368149289733    12.000000000000
         C            0.661317305163     1.570852123643    -0.247361289733    12.000000000000
         C            0.639595805163    -1.466488576357     0.400685010267    12.000000000000
         C           -0.539399694837     1.152086123643     0.614942710267    12.000000000000
         C           -1.300474694837    -0.027371876357     0.043214710267    12.000000000000
         H            2.743018305163     1.172795123643    -0.609257289733     1.007825032230
         H            2.220836305163     0.831289123643     1.032421710267     1.007825032230
         H            1.588901305163    -0.870599876357    -1.435919289733     1.007825032230
         H            2.772704305163    -1.226761876357    -0.177398289733     1.007825032230
         H            0.372706305163     1.537665123643    -1.305683289733     1.007825032230
         H            0.897193305163     2.618060123643    -0.024670289733     1.007825032230
         H            0.878724305163    -2.564244876357     0.328930710267     1.007825032230
         H            0.838893305163    -1.256235876357     1.500678710267     1.007825032230
         H           -1.269771694837     1.962283123643     0.673692710267     1.007825032230
         H           -0.205789694837     0.931300123643     1.637964710267     1.007825032230
         H           -1.162749694837    -1.968220876357    -0.430360289733     1.007825032230

  Basis Set: AUG-CC-PVTZ
    Blend: AUG-CC-PVTZ
  Basis Set: (AUG-CC-PVTZ AUX)
    Blend: AUG-CC-PVTZ-JKFIT
	 Reference Energy          =    -363.0644286719043521 [Eh]
	 Singles Energy            =      -0.0000000000000000 [Eh]
	 Same-Spin Energy          =      -0.3785697212128463 [Eh]
	 Opposite-Spin Energy      =      -1.2483248047554525 [Eh]
	 Correlation Energy        =      -1.6268945259682988 [Eh]
	 Total Energy              =    -364.6913231978726344 [Eh]

	 ================> DF-SCS-MP2 Energies <==================
	-----------------------------------------------------------
	 SCS Same-Spin Scale       =       0.3333333333333333 [-]
	 SCS Opposite-Spin Scale   =       1.2000000000000000 [-]
	 SCS Same-Spin Energy      =      -0.1261899070709487 [Eh]
	 SCS Opposite-Spin Energy  =      -1.4979897657065429 [Eh]
	 SCS Correlation Energy    =      -1.6241796727774915 [Eh]
	 SCS Total Energy          =    -364.6886083446818247 [Eh]
	-----------------------------------------------------------

  Dipole Moment: [D]
     X:     3.7438      Y:    -0.9709      Z:     0.8103     Total:     3.9516

*** Psi4 exiting successfully. Buy a developer a beer!
