                               Psi4 1.3.2 release

  ==> Input File <==

--------------------------------------------------------------------------
#psi4
#
memory 32 gb

molecule  {
0 1
  O       -2.5416370     0.0659770    -0.3927070
  N       -0.7122740    -1.2241950    -0.0249760
  C        1.8380290     0.7314390    -0.0343340
  C        1.7187040    -0.7521010    -0.3806110
  C        0.5855980     1.6021404    -0.2244487
  C        0.6466580    -1.4925250     0.4187290
  C       -0.6257670     1.1444980     0.6024810
  C       -1.3868420    -0.0349600     0.0307530
  H        2.6566510     1.1652070    -0.6217190
  H        2.1344690     0.8237010     1.0199600
  H        1.5025340    -0.8781880    -1.4483810
  H        2.6863370    -1.2343500    -0.1898600
  H        0.2863390     1.5300770    -1.3181450
  H        0.8108260     2.6104720    -0.0371320
  H        0.7923570    -2.5718330     0.3164690
  H        0.7525260    -1.2638240     1.4882170
  H       -1.3561390     1.9546950     0.6612310
  H       -0.2921570     0.9237120     1.6255030
  H       -1.2491170    -1.9758090    -0.4428220
units angstrom
no_reorient  #important for SAPT in psi4, default
symmetry c1  #important for SAPT in psi4, default
}

set PROPERTIES_ORIGIN ["COM"]
properties('MP2/aug-cc-pvtz', properties = ['dipole'])
--------------------------------------------------------------------------

    Molecular point group: c1
  Charge       = 0
  Multiplicity = 1
  Basis Set: AUG-CC-PVTZ
    Blend: AUG-CC-PVTZ
  Basis Set: (AUG-CC-PVTZ AUX)
    Blend: AUG-CC-PVTZ-JKFIT

    Orbital Energies [Eh]
    ---------------------

    Doubly Occupied:

       1A    -20.509704     2A    -15.579020     3A    -11.344142
       4A    -11.277518     5A    -11.236656     6A    -11.235920
       7A    -11.235327     8A    -11.233258     9A     -1.363909
      10A     -1.228438    11A     -1.092932    12A     -1.042413
      13A     -0.945133    14A     -0.890737    15A     -0.795323
      16A     -0.763378    17A     -0.688542    18A     -0.676619
      19A     -0.629085    20A     -0.610508    21A     -0.603209
      22A     -0.592314    23A     -0.570969    24A     -0.546777
      25A     -0.520149    26A     -0.512036    27A     -0.479364
      28A     -0.471247    29A     -0.467492    30A     -0.412014
      31A     -0.382975

  @DF-RHF Final Energy:  -363.07226285319115

   => Energetics <=

    Nuclear Repulsion Energy =            393.6568761427645313
    One-Electron Energy =               -1273.5840619110185798
    Two-Electron Energy =                 516.8549229150628435
    Total Energy =                       -363.0722628531912051
  Basis Set: (AUG-CC-PVTZ AUX)
    Blend: AUG-CC-PVTZ-RI
    Molecular point group: c1

    Geometry (in Angstrom), charge = 0, multiplicity = 1:

       Center              X                  Y                   Z               Mass
    ------------   -----------------  -----------------  -----------------  -----------------
         O           -2.466313956566     0.071397380538    -0.387236195191    15.994914619570
         N           -0.636950956566    -1.218774619462    -0.019505195191    14.003074004430
         C            1.913352043434     0.736859380538    -0.028863195191    12.000000000000
         C            1.794027043434    -0.746680619462    -0.375140195191    12.000000000000
         C            0.660921043434     1.607560780538    -0.218977895191    12.000000000000
         C            0.721981043434    -1.487104619462     0.424199804809    12.000000000000
         C           -0.550443956566     1.149918380538     0.607951804809    12.000000000000
         C           -1.311518956566    -0.029539619462     0.036223804809    12.000000000000
         H            2.731974043434     1.170627380538    -0.616248195191     1.007825032230
         H            2.209792043434     0.829121380538     1.025430804809     1.007825032230
         H            1.577857043434    -0.872767619462    -1.442910195191     1.007825032230
         H            2.761660043434    -1.228929619462    -0.184389195191     1.007825032230
         H            0.361662043434     1.535497380538    -1.312674195191     1.007825032230
         H            0.886149043434     2.615892380538    -0.031661195191     1.007825032230
         H            0.867680043434    -2.566412619462     0.321939804809     1.007825032230
         H            0.827849043434    -1.258403619462     1.493687804809     1.007825032230
         H           -1.280815956566     1.960115380538     0.666701804809     1.007825032230
         H           -0.216833956566     0.929132380538     1.630973804809     1.007825032230
         H           -1.173793956566    -1.970388619462    -0.437351195191     1.007825032230

  Basis Set: AUG-CC-PVTZ
    Blend: AUG-CC-PVTZ
  Basis Set: (AUG-CC-PVTZ AUX)
    Blend: AUG-CC-PVTZ-JKFIT
	 Reference Energy          =    -363.0722628531911482 [Eh]
	 Singles Energy            =      -0.0000000000000000 [Eh]
	 Same-Spin Energy          =      -0.3777029843752194 [Eh]
	 Opposite-Spin Energy      =      -1.2477751335638108 [Eh]
	 Correlation Energy        =      -1.6254781179390303 [Eh]
	 Total Energy              =    -364.6977409711302016 [Eh]

	 ================> DF-SCS-MP2 Energies <==================
	-----------------------------------------------------------
	 SCS Same-Spin Scale       =       0.3333333333333333 [-]
	 SCS Opposite-Spin Scale   =       1.2000000000000000 [-]
	 SCS Same-Spin Energy      =      -0.1259009947917398 [Eh]
	 SCS Opposite-Spin Energy  =      -1.4973301602765730 [Eh]
	 SCS Correlation Energy    =      -1.6232311550683127 [Eh]
	 SCS Total Energy          =    -364.6954940082594590 [Eh]
	-----------------------------------------------------------

  Dipole Moment: [D]
     X:     4.0716      Y:    -1.0381      Z:     0.9063     Total:     4.2984

*** Psi4 exiting successfully. Buy a developer a beer!
