                               Psi4 1.3.2 release

  ==> Input File <==

--------------------------------------------------------------------------
#psi4
#
memory 32 gb

molecule  {
0 1
  O       -2.5365029     0.1901332    -0.3574106
  N       -0.7122740    -1.2241950    -0.0249760
  C        1.8380290     0.7314390    -0.0343340
  C        1.7187040    -0.7521010    -0.3806110
  C        0.5749500     1.5632640    -0.2598230
  C        0.6466580    -1.4925250     0.4187290
  C       -0.6257670     1.1444980     0.6024810
  C       -1.3868420    -0.0349600     0.0307530
  H        2.6566510     1.1652070    -0.6217190
  H        2.1344690     0.8237010     1.0199600
  H        1.5025340    -0.8781880    -1.4483810
  H        2.6863370    -1.2343500    -0.1898600
  H        0.2863390     1.5300770    -1.3181450
  H        0.8108260     2.6104720    -0.0371320
  H        0.7923570    -2.5718330     0.3164690
  H        0.7525260    -1.2638240     1.4882170
  H       -1.3561390     1.9546950     0.6612310
  H       -0.2921570     0.9237120     1.6255030
  H       -1.2491170    -1.9758090    -0.4428220
units angstrom
no_reorient  #important for SAPT in psi4, default
symmetry c1  #important for SAPT in psi4, default
}

set PROPERTIES_ORIGIN ["COM"]
properties('MP2/aug-cc-pvtz', properties = ['dipole'])
--------------------------------------------------------------------------

    Molecular point group: c1
  Charge       = 0
  Multiplicity = 1
  Basis Set: AUG-CC-PVTZ
    Blend: AUG-CC-PVTZ
  Basis Set: (AUG-CC-PVTZ AUX)
    Blend: AUG-CC-PVTZ-JKFIT

    Orbital Energies [Eh]
    ---------------------

    Doubly Occupied:

       1A    -20.510362     2A    -15.585201     3A    -11.343213
       4A    -11.280650     5A    -11.235208     6A    -11.233378
       7A    -11.231996     8A    -11.229330     9A     -1.362632
      10A     -1.234994    11A     -1.092702    12A     -1.040551
      13A     -0.944706    14A     -0.888464    15A     -0.795112
      16A     -0.765231    17A     -0.689401    18A     -0.676732
      19A     -0.626910    20A     -0.612016    21A     -0.601038
      22A     -0.591962    23A     -0.568034    24A     -0.546128
      25A     -0.518657    26A     -0.515921    27A     -0.480481
      28A     -0.468527    29A     -0.467982    30A     -0.406228
      31A     -0.387904

  @DF-RHF Final Energy:  -363.07236838792858

   => Energetics <=

    Nuclear Repulsion Energy =            394.1518820321773546
    One-Electron Energy =               -1274.5851927988658190
    Two-Electron Energy =                 517.3609423787598871
    Total Energy =                       -363.0723683879285772
  Basis Set: (AUG-CC-PVTZ AUX)
    Blend: AUG-CC-PVTZ-RI
    Molecular point group: c1

    Geometry (in Angstrom), charge = 0, multiplicity = 1:

       Center              X                  Y                   Z               Mass
    ------------   -----------------  -----------------  -----------------  -----------------
         O           -2.460776117018     0.182117991428    -0.353178442790    15.994914619570
         N           -0.636547217018    -1.232210208572    -0.020743842790    14.003074004430
         C            1.913755782982     0.723423791428    -0.030101842790    12.000000000000
         C            1.794430782982    -0.760116208572    -0.376378842790    12.000000000000
         C            0.650676782982     1.555248791428    -0.255590842790    12.000000000000
         C            0.722384782982    -1.500540208572     0.422961157210    12.000000000000
         C           -0.550040217018     1.136482791428     0.606713157210    12.000000000000
         C           -1.311115217018    -0.042975208572     0.034985157210    12.000000000000
         H            2.732377782982     1.157191791428    -0.617486842790     1.007825032230
         H            2.210195782982     0.815685791428     1.024192157210     1.007825032230
         H            1.578260782982    -0.886203208572    -1.444148842790     1.007825032230
         H            2.762063782982    -1.242365208572    -0.185627842790     1.007825032230
         H            0.362065782982     1.522061791428    -1.313912842790     1.007825032230
         H            0.886552782982     2.602456791428    -0.032899842790     1.007825032230
         H            0.868083782982    -2.579848208572     0.320701157210     1.007825032230
         H            0.828252782982    -1.271839208572     1.492449157210     1.007825032230
         H           -1.280412217018     1.946679791428     0.665463157210     1.007825032230
         H           -0.216430217018     0.915696791428     1.629735157210     1.007825032230
         H           -1.173390217018    -1.983824208572    -0.438589842790     1.007825032230

  Basis Set: AUG-CC-PVTZ
    Blend: AUG-CC-PVTZ
  Basis Set: (AUG-CC-PVTZ AUX)
    Blend: AUG-CC-PVTZ-JKFIT
	 Reference Energy          =    -363.0723683879285772 [Eh]
	 Singles Energy            =      -0.0000000000000000 [Eh]
	 Same-Spin Energy          =      -0.3778129056332469 [Eh]
	 Opposite-Spin Energy      =      -1.2479628824657554 [Eh]
	 Correlation Energy        =      -1.6257757880990023 [Eh]
	 Total Energy              =    -364.6981441760275970 [Eh]

	 ================> DF-SCS-MP2 Energies <==================
	-----------------------------------------------------------
	 SCS Same-Spin Scale       =       0.3333333333333333 [-]
	 SCS Opposite-Spin Scale   =       1.2000000000000000 [-]
	 SCS Same-Spin Energy      =      -0.1259376352110823 [Eh]
	 SCS Opposite-Spin Energy  =      -1.4975554589589064 [Eh]
	 SCS Correlation Energy    =      -1.6234930941699888 [Eh]
	 SCS Total Energy          =    -364.6958614820985645 [Eh]
	-----------------------------------------------------------

  Dipole Moment: [D]
     X:     4.0362      Y:    -1.3855      Z:     0.8067     Total:     4.3430

*** Psi4 exiting successfully. Buy a developer a beer!
