                               Psi4 1.3.2 release

  ==> Input File <==

--------------------------------------------------------------------------
#psi4
#
memory 32 gb

molecule  {
0 1
  O       -2.5416370     0.0659770    -0.3927070
  N       -0.7122740    -1.2241950    -0.0249760
  C        1.8380290     0.7314390    -0.0343340
  C        1.7187040    -0.7521010    -0.3806110
  C        0.5749500     1.5632640    -0.2598230
  C        0.6466580    -1.4925250     0.4187290
  C       -0.6257670     1.1444980     0.6024810
  C       -1.3868420    -0.0349600     0.0307530
  H        2.6566510     1.1652070    -0.6217190
  H        2.1344690     0.8237010     1.0199600
  H        1.4696959    -0.8591847    -1.4432907
  H        2.6863370    -1.2343500    -0.1898600
  H        0.2863390     1.5300770    -1.3181450
  H        0.8108260     2.6104720    -0.0371320
  H        0.7923570    -2.5718330     0.3164690
  H        0.7525260    -1.2638240     1.4882170
  H       -1.3561390     1.9546950     0.6612310
  H       -0.2921570     0.9237120     1.6255030
  H       -1.2491170    -1.9758090    -0.4428220
units angstrom
no_reorient  #important for SAPT in psi4, default
symmetry c1  #important for SAPT in psi4, default
}

set PROPERTIES_ORIGIN ["COM"]
properties('MP2/aug-cc-pvtz', properties = ['dipole'])
--------------------------------------------------------------------------

    Molecular point group: c1
  Charge       = 0
  Multiplicity = 1
  Basis Set: AUG-CC-PVTZ
    Blend: AUG-CC-PVTZ
  Basis Set: (AUG-CC-PVTZ AUX)
    Blend: AUG-CC-PVTZ-JKFIT

    Orbital Energies [Eh]
    ---------------------

    Doubly Occupied:

       1A    -20.509153     2A    -15.578781     3A    -11.343121
       4A    -11.277123     5A    -11.236735     6A    -11.236016
       7A    -11.234423     8A    -11.232846     9A     -1.363549
      10A     -1.228397    11A     -1.094125    12A     -1.042284
      13A     -0.945411    14A     -0.888404    15A     -0.795091
      16A     -0.764019    17A     -0.688620    18A     -0.676886
      19A     -0.625680    20A     -0.612096    21A     -0.602307
      22A     -0.592086    23A     -0.570289    24A     -0.544963
      25A     -0.519599    26A     -0.515721    27A     -0.481289
      28A     -0.470289    29A     -0.469426    30A     -0.410675
      31A     -0.382815

  @DF-RHF Final Energy:  -363.07529107443753

   => Energetics <=

    Nuclear Repulsion Energy =            394.1595996815664762
    One-Electron Energy =               -1274.6053413340746374
    Two-Electron Energy =                 517.3704505780706313
    Total Energy =                       -363.0752910744374731
  Basis Set: (AUG-CC-PVTZ AUX)
    Blend: AUG-CC-PVTZ-RI
    Molecular point group: c1

    Geometry (in Angstrom), charge = 0, multiplicity = 1:

       Center              X                  Y                   Z               Mass
    ------------   -----------------  -----------------  -----------------  -----------------
         O           -2.464891377172     0.075353418045    -0.383527790545    15.994914619570
         N           -0.635528377172    -1.214818581955    -0.015796790545    14.003074004430
         C            1.914774622828     0.740815418045    -0.025154790545    12.000000000000
         C            1.795449622828    -0.742724581955    -0.371431790545    12.000000000000
         C            0.651695622828     1.572640418045    -0.250643790545    12.000000000000
         C            0.723403622828    -1.483148581955     0.427908209455    12.000000000000
         C           -0.549021377172     1.153874418045     0.611660209455    12.000000000000
         C           -1.310096377172    -0.025583581955     0.039932209455    12.000000000000
         H            2.733396622828     1.174583418045    -0.612539790545     1.007825032230
         H            2.211214622828     0.833077418045     1.029139209455     1.007825032230
         H            1.546441522828    -0.849808281955    -1.434111490545     1.007825032230
         H            2.763082622828    -1.224973581955    -0.180680790545     1.007825032230
         H            0.363084622828     1.539453418045    -1.308965790545     1.007825032230
         H            0.887571622828     2.619848418045    -0.027952790545     1.007825032230
         H            0.869102622828    -2.562456581955     0.325648209455     1.007825032230
         H            0.829271622828    -1.254447581955     1.497396209455     1.007825032230
         H           -1.279393377172     1.964071418045     0.670410209455     1.007825032230
         H           -0.215411377172     0.933088418045     1.634682209455     1.007825032230
         H           -1.172371377172    -1.966432581955    -0.433642790545     1.007825032230

  Basis Set: AUG-CC-PVTZ
    Blend: AUG-CC-PVTZ
  Basis Set: (AUG-CC-PVTZ AUX)
    Blend: AUG-CC-PVTZ-JKFIT
	 Reference Energy          =    -363.0752910744375299 [Eh]
	 Singles Energy            =      -0.0000000000000000 [Eh]
	 Same-Spin Energy          =      -0.3777661148071535 [Eh]
	 Opposite-Spin Energy      =      -1.2477396546344814 [Eh]
	 Correlation Energy        =      -1.6255057694416348 [Eh]
	 Total Energy              =    -364.7007968438791750 [Eh]

	 ================> DF-SCS-MP2 Energies <==================
	-----------------------------------------------------------
	 SCS Same-Spin Scale       =       0.3333333333333333 [-]
	 SCS Opposite-Spin Scale   =       1.2000000000000000 [-]
	 SCS Same-Spin Energy      =      -0.1259220382690512 [Eh]
	 SCS Opposite-Spin Energy  =      -1.4972875855613776 [Eh]
	 SCS Correlation Energy    =      -1.6232096238304288 [Eh]
	 SCS Total Energy          =    -364.6985006982679351 [Eh]
	-----------------------------------------------------------

  Dipole Moment: [D]
     X:     4.0628      Y:    -1.0305      Z:     0.9018     Total:     4.2874

*** Psi4 exiting successfully. Buy a developer a beer!
