                               Psi4 1.3.2 release

  ==> Input File <==

--------------------------------------------------------------------------
#psi4
#
memory 32 gb

molecule  {
0 1
  O       -2.5416370     0.0659770    -0.3927070
  N       -0.7122740    -1.2241950    -0.0249760
  C        1.8380290     0.7314390    -0.0343340
  C        1.7187040    -0.7521010    -0.3806110
  C        0.5749500     1.5632640    -0.2598230
  C        0.6466580    -1.4925250     0.4187290
  C       -0.6257670     1.1444980     0.6024810
  C       -1.4872701    -0.1905961    -0.0446897
  H        2.6566510     1.1652070    -0.6217190
  H        2.1344690     0.8237010     1.0199600
  H        1.5025340    -0.8781880    -1.4483810
  H        2.6863370    -1.2343500    -0.1898600
  H        0.2863390     1.5300770    -1.3181450
  H        0.8108260     2.6104720    -0.0371320
  H        0.7923570    -2.5718330     0.3164690
  H        0.7525260    -1.2638240     1.4882170
  H       -1.3561390     1.9546950     0.6612310
  H       -0.2921570     0.9237120     1.6255030
  H       -1.2491170    -1.9758090    -0.4428220
units angstrom
no_reorient  #important for SAPT in psi4, default
symmetry c1  #important for SAPT in psi4, default
}

set PROPERTIES_ORIGIN ["COM"]
properties('MP2/aug-cc-pvtz', properties = ['dipole'])
--------------------------------------------------------------------------

    Molecular point group: c1
  Charge       = 0
  Multiplicity = 1
  Basis Set: AUG-CC-PVTZ
    Blend: AUG-CC-PVTZ
  Basis Set: (AUG-CC-PVTZ AUX)
    Blend: AUG-CC-PVTZ-JKFIT

    Orbital Energies [Eh]
    ---------------------

    Doubly Occupied:

       1A    -20.519040     2A    -15.586719     3A    -11.336914
       4A    -11.287371     5A    -11.235484     6A    -11.227155
       7A    -11.222499     8A    -11.216122     9A     -1.427892
      10A     -1.265172    11A     -1.089364    12A     -1.028427
      13A     -0.938325    14A     -0.876402    15A     -0.789251
      16A     -0.759997    17A     -0.704788    18A     -0.675319
      19A     -0.635787    20A     -0.615736    21A     -0.604650
      22A     -0.596491    23A     -0.571235    24A     -0.551161
      25A     -0.532533    26A     -0.512822    27A     -0.476973
      28A     -0.468291    29A     -0.460165    30A     -0.404230
      31A     -0.367730

  @DF-RHF Final Energy:  -363.03856294739001

   => Energetics <=

    Nuclear Repulsion Energy =            394.1913835627021285
    One-Electron Energy =               -1274.4918013844576308
    Two-Electron Energy =                 517.2618548743654401
    Total Energy =                       -363.0385629473900053
  Basis Set: (AUG-CC-PVTZ AUX)
    Blend: AUG-CC-PVTZ-RI
    Molecular point group: c1

    Geometry (in Angstrom), charge = 0, multiplicity = 1:

       Center              X                  Y                   Z               Mass
    ------------   -----------------  -----------------  -----------------  -----------------
         O           -2.454527033165     0.092038219909    -0.375476766380    15.994914619570
         N           -0.625164033165    -1.198133780091    -0.007745766380    14.003074004430
         C            1.925138966835     0.757500219909    -0.017103766380    12.000000000000
         C            1.805813966835    -0.726039780091    -0.363380766380    12.000000000000
         C            0.662059966835     1.589325219909    -0.242592766380    12.000000000000
         C            0.733767966835    -1.466463780091     0.435959233620    12.000000000000
         C           -0.538657033165     1.170559219909     0.619711233620    12.000000000000
         C           -1.400160133165    -0.164534880091    -0.027459466380    12.000000000000
         H            2.743760966835     1.191268219909    -0.604488766380     1.007825032230
         H            2.221578966835     0.849762219909     1.037190233620     1.007825032230
         H            1.589643966835    -0.852126780091    -1.431150766380     1.007825032230
         H            2.773446966835    -1.208288780091    -0.172629766380     1.007825032230
         H            0.373448966835     1.556138219909    -1.300914766380     1.007825032230
         H            0.897935966835     2.636533219909    -0.019901766380     1.007825032230
         H            0.879466966835    -2.545771780091     0.333699233620     1.007825032230
         H            0.839635966835    -1.237762780091     1.505447233620     1.007825032230
         H           -1.269029033165     1.980756219909     0.678461233620     1.007825032230
         H           -0.205047033165     0.949773219909     1.642733233620     1.007825032230
         H           -1.162007033165    -1.949747780091    -0.425591766380     1.007825032230

  Basis Set: AUG-CC-PVTZ
    Blend: AUG-CC-PVTZ
  Basis Set: (AUG-CC-PVTZ AUX)
    Blend: AUG-CC-PVTZ-JKFIT
	 Reference Energy          =    -363.0385629473900053 [Eh]
	 Singles Energy            =      -0.0000000000000000 [Eh]
	 Same-Spin Energy          =      -0.3764424161994396 [Eh]
	 Opposite-Spin Energy      =      -1.2451945529284147 [Eh]
	 Correlation Energy        =      -1.6216369691278545 [Eh]
	 Total Energy              =    -364.6601999165178540 [Eh]

	 ================> DF-SCS-MP2 Energies <==================
	-----------------------------------------------------------
	 SCS Same-Spin Scale       =       0.3333333333333333 [-]
	 SCS Opposite-Spin Scale   =       1.2000000000000000 [-]
	 SCS Same-Spin Energy      =      -0.1254808053998132 [Eh]
	 SCS Opposite-Spin Energy  =      -1.4942334635140977 [Eh]
	 SCS Correlation Energy    =      -1.6197142689139108 [Eh]
	 SCS Total Energy          =    -364.6582772163039294 [Eh]
	-----------------------------------------------------------

  Dipole Moment: [D]
     X:     3.5420      Y:    -1.8918      Z:     0.5655     Total:     4.0551

*** Psi4 exiting successfully. Buy a developer a beer!
