                               Psi4 1.4a3.dev225

  ==> Input File <==

--------------------------------------------------------------------------
#psi4
#
memory 32 gb

molecule  {
0 1
  O       -2.5416370     0.0659770    -0.3927070
  N       -0.7122740    -1.2241950    -0.0249760
  C        1.8380290     0.7314390    -0.0343340
  C        1.7187040    -0.7521010    -0.3806110
  C        0.5749500     1.5632640    -0.2598230
  C        0.6466580    -1.4925250     0.4187290
  C       -0.6257670     1.1444980     0.6024810
  C       -1.3868420    -0.0349600     0.0307530
  H        2.6566510     1.1652070    -0.6217190
  H        2.1344690     0.8237010     1.0199600
  H        1.5025340    -0.8781880    -1.4483810
  H        2.6863370    -1.2343500    -0.1898600
  H        0.2863390     1.5300770    -1.3181450
  H        0.8108260     2.6104720    -0.0371320
  H        0.7856973    -2.5224994     0.3211432
  H        0.7525260    -1.2638240     1.4882170
  H       -1.3561390     1.9546950     0.6612310
  H       -0.2921570     0.9237120     1.6255030
  H       -1.2491170    -1.9758090    -0.4428220
units angstrom
no_reorient  #important for SAPT in psi4, default
symmetry c1  #important for SAPT in psi4, default
}

set PROPERTIES_ORIGIN ["COM"]
properties('MP2/aug-cc-pvtz', properties = ['dipole'])
--------------------------------------------------------------------------

    Molecular point group: c1
  Charge       = 0
  Multiplicity = 1
  Basis Set: AUG-CC-PVTZ
    Blend: AUG-CC-PVTZ
  Basis Set: (AUG-CC-PVTZ AUX)
    Blend: AUG-CC-PVTZ-JKFIT

    Orbital Energies [Eh]
    ---------------------

    Doubly Occupied:

       1A    -20.508815     2A    -15.578293     3A    -11.342729
       4A    -11.271205     5A    -11.236435     6A    -11.235726
       7A    -11.234019     8A    -11.232738     9A     -1.363222
      10A     -1.228535    11A     -1.093710    12A     -1.043302
      13A     -0.947284    14A     -0.890327    15A     -0.795468
      16A     -0.763805    17A     -0.689039    18A     -0.679016
      19A     -0.625889    20A     -0.613203    21A     -0.602539
      22A     -0.594324    23A     -0.569910    24A     -0.545206
      25A     -0.520583    26A     -0.515550    27A     -0.481320
      28A     -0.470394    29A     -0.470263    30A     -0.410465
      31A     -0.382484

  @DF-RHF Final Energy:  -363.07466574209730

   => Energetics <=

    Nuclear Repulsion Energy =            394.3549787478365261
    One-Electron Energy =               -1274.9876944012924014
    Two-Electron Energy =                 517.5580499113585802
    Total Energy =                       -363.0746657420972952
  Basis Set: (AUG-CC-PVTZ AUX)
    Blend: AUG-CC-PVTZ-RI
    Molecular point group: c1

    Geometry (in Angstrom), charge = 0, multiplicity = 1:

       Center              X                  Y                   Z               Mass
    ------------   -----------------  -----------------  -----------------  -----------------
         O           -2.465124683669     0.075083109087    -0.383524082189    15.994914619570
         N           -0.635761683669    -1.215088890913    -0.015793082189    14.003074004430
         C            1.914541316331     0.740545109087    -0.025151082189    12.000000000000
         C            1.795216316331    -0.742994890913    -0.371428082189    12.000000000000
         C            0.651462316331     1.572370109087    -0.250640082189    12.000000000000
         C            0.723170316331    -1.483418890913     0.427911917811    12.000000000000
         C           -0.549254683669     1.153604109087     0.611663917811    12.000000000000
         C           -1.310329683669    -0.025853890913     0.039935917811    12.000000000000
         H            2.733163316331     1.174313109087    -0.612536082189     1.007825032230
         H            2.210981316331     0.832807109087     1.029142917811     1.007825032230
         H            1.579046316331    -0.869081890913    -1.439198082189     1.007825032230
         H            2.762849316331    -1.225243890913    -0.180677082189     1.007825032230
         H            0.362851316331     1.539183109087    -1.308962082189     1.007825032230
         H            0.887338316331     2.619578109087    -0.027949082189     1.007825032230
         H            0.862209616331    -2.513393290913     0.330326117811     1.007825032230
         H            0.829038316331    -1.254717890913     1.497399917811     1.007825032230
         H           -1.279626683669     1.963801109087     0.670413917811     1.007825032230
         H           -0.215644683669     0.932818109087     1.634685917811     1.007825032230
         H           -1.172604683669    -1.966702890913    -0.433639082189     1.007825032230

  Basis Set: AUG-CC-PVTZ
    Blend: AUG-CC-PVTZ
  Basis Set: (AUG-CC-PVTZ AUX)
    Blend: AUG-CC-PVTZ-JKFIT
	 Reference Energy          =    -363.0746657420972952 [Eh]
	 Singles Energy            =      -0.0000000000000000 [Eh]
	 Same-Spin Energy          =      -0.3776847204953155 [Eh]
	 Opposite-Spin Energy      =      -1.2473018703872116 [Eh]
	 Correlation Energy        =      -1.6249865908825272 [Eh]
	 Total Energy              =    -364.6996523329798379 [Eh]

	 ================> DF-SCS-MP2 Energies <==================
	-----------------------------------------------------------
	 SCS Same-Spin Scale       =       0.3333333333333333 [-]
	 SCS Opposite-Spin Scale   =       1.2000000000000000 [-]
	 SCS Same-Spin Energy      =      -0.1258949068317718 [Eh]
	 SCS Opposite-Spin Energy  =      -1.4967622444646540 [Eh]
	 SCS Correlation Energy    =      -1.6226571512964258 [Eh]
	 SCS Total Energy          =    -364.6973228933937321 [Eh]
	-----------------------------------------------------------

  Dipole Moment: [D]
     X:     4.0768      Y:    -1.0642      Z:     0.9002     Total:     4.3085

*** Psi4 exiting successfully. Buy a developer a beer!
