                               Psi4 1.3.2 release

  ==> Input File <==

--------------------------------------------------------------------------
#psi4
#
memory 32 gb

molecule  {
0 1
  O       -2.5416370     0.0659770    -0.3927070
  N       -0.7122740    -1.2241950    -0.0249760
  C        1.8380290     0.7314390    -0.0343340
  C        1.7187040    -0.7521010    -0.3806110
  C        0.5749500     1.5632640    -0.2598230
  C        0.6466580    -1.4925250     0.4187290
  C       -0.6257670     1.1444980     0.6024810
  C       -1.4608942    -0.0788613    -0.0106140
  H        2.6566510     1.1652070    -0.6217190
  H        2.1344690     0.8237010     1.0199600
  H        1.5025340    -0.8781880    -1.4483810
  H        2.6863370    -1.2343500    -0.1898600
  H        0.2863390     1.5300770    -1.3181450
  H        0.8108260     2.6104720    -0.0371320
  H        0.7923570    -2.5718330     0.3164690
  H        0.7525260    -1.2638240     1.4882170
  H       -1.3561390     1.9546950     0.6612310
  H       -0.2921570     0.9237120     1.6255030
  H       -1.2491170    -1.9758090    -0.4428220
units angstrom
no_reorient  #important for SAPT in psi4, default
symmetry c1  #important for SAPT in psi4, default
}

set PROPERTIES_ORIGIN ["COM"]
properties('MP2/aug-cc-pvtz', properties = ['dipole'])
--------------------------------------------------------------------------

    Molecular point group: c1
  Charge       = 0
  Multiplicity = 1
  Basis Set: AUG-CC-PVTZ
    Blend: AUG-CC-PVTZ
  Basis Set: (AUG-CC-PVTZ AUX)
    Blend: AUG-CC-PVTZ-JKFIT

    Orbital Energies [Eh]
    ---------------------

    Doubly Occupied:

       1A    -20.520590     2A    -15.573511     3A    -11.338152
       4A    -11.277500     5A    -11.231914     6A    -11.230421
       7A    -11.229180     8A    -11.228897     9A     -1.417083
      10A     -1.232007    11A     -1.088045    12A     -1.032075
      13A     -0.937162    14A     -0.880190    15A     -0.790519
      16A     -0.754977    17A     -0.691242    18A     -0.678741
      19A     -0.629657    20A     -0.609756    21A     -0.603869
      22A     -0.597288    23A     -0.572191    24A     -0.551244
      25A     -0.530187    26A     -0.514159    27A     -0.477533
      28A     -0.472010    29A     -0.464459    30A     -0.400062
      31A     -0.388844

  @DF-RHF Final Energy:  -363.06803468617892

   => Energetics <=

    Nuclear Repulsion Energy =            394.0236826487806638
    One-Electron Energy =               -1274.2965068078588047
    Two-Electron Energy =                 517.2047894728991650
    Total Energy =                       -363.0680346861789758
  Basis Set: (AUG-CC-PVTZ AUX)
    Blend: AUG-CC-PVTZ-RI
    Molecular point group: c1

    Geometry (in Angstrom), charge = 0, multiplicity = 1:

       Center              X                  Y                   Z               Mass
    ------------   -----------------  -----------------  -----------------  -----------------
         O           -2.457325931514     0.080181398065    -0.379092734763    15.994914619570
         N           -0.627962931514    -1.209990601935    -0.011361734763    14.003074004430
         C            1.922340068486     0.745643398065    -0.020719734763    12.000000000000
         C            1.803015068486    -0.737896601935    -0.366996734763    12.000000000000
         C            0.659261068486     1.577468398065    -0.246208734763    12.000000000000
         C            0.730969068486    -1.478320601935     0.432343265237    12.000000000000
         C           -0.541455931514     1.158702398065     0.616095265237    12.000000000000
         C           -1.376583131514    -0.064656901935     0.003000265237    12.000000000000
         H            2.740962068486     1.179411398065    -0.608104734763     1.007825032230
         H            2.218780068486     0.837905398065     1.033574265237     1.007825032230
         H            1.586845068486    -0.863983601935    -1.434766734763     1.007825032230
         H            2.770648068486    -1.220145601935    -0.176245734763     1.007825032230
         H            0.370650068486     1.544281398065    -1.304530734763     1.007825032230
         H            0.895137068486     2.624676398065    -0.023517734763     1.007825032230
         H            0.876668068486    -2.557628601935     0.330083265237     1.007825032230
         H            0.836837068486    -1.249619601935     1.501831265237     1.007825032230
         H           -1.271827931514     1.968899398065     0.674845265237     1.007825032230
         H           -0.207845931514     0.937916398065     1.639117265237     1.007825032230
         H           -1.164805931514    -1.961604601935    -0.429207734763     1.007825032230

  Basis Set: AUG-CC-PVTZ
    Blend: AUG-CC-PVTZ
  Basis Set: (AUG-CC-PVTZ AUX)
    Blend: AUG-CC-PVTZ-JKFIT
	 Reference Energy          =    -363.0680346861789189 [Eh]
	 Singles Energy            =      -0.0000000000000000 [Eh]
	 Same-Spin Energy          =      -0.3760169512355079 [Eh]
	 Opposite-Spin Energy      =      -1.2444385006035505 [Eh]
	 Correlation Energy        =      -1.6204554518390584 [Eh]
	 Total Energy              =    -364.6884901380179826 [Eh]

	 ================> DF-SCS-MP2 Energies <==================
	-----------------------------------------------------------
	 SCS Same-Spin Scale       =       0.3333333333333333 [-]
	 SCS Opposite-Spin Scale   =       1.2000000000000000 [-]
	 SCS Same-Spin Energy      =      -0.1253389837451693 [Eh]
	 SCS Opposite-Spin Energy  =      -1.4933262007242607 [Eh]
	 SCS Correlation Energy    =      -1.6186651844694300 [Eh]
	 SCS Total Energy          =    -364.6866998706483400 [Eh]
	-----------------------------------------------------------

  Dipole Moment: [D]
     X:     3.5356      Y:    -1.1879      Z:     0.7052     Total:     3.7959

*** Psi4 exiting successfully. Buy a developer a beer!
