                               Psi4 1.4a3.dev225

  ==> Input File <==

--------------------------------------------------------------------------
#psi4
#
memory 32 gb

molecule  {
0 1
  O       -2.5416370     0.0659770    -0.3927070
  N       -0.7122740    -1.2241950    -0.0249760
  C        1.8380290     0.7314390    -0.0343340
  C        1.7147996    -0.8006435    -0.3919414
  C        0.5749500     1.5632640    -0.2598230
  C        0.6466580    -1.4925250     0.4187290
  C       -0.6257670     1.1444980     0.6024810
  C       -1.3868420    -0.0349600     0.0307530
  H        2.6566510     1.1652070    -0.6217190
  H        2.1344690     0.8237010     1.0199600
  H        1.5025340    -0.8781880    -1.4483810
  H        2.6863370    -1.2343500    -0.1898600
  H        0.2863390     1.5300770    -1.3181450
  H        0.8108260     2.6104720    -0.0371320
  H        0.7923570    -2.5718330     0.3164690
  H        0.7525260    -1.2638240     1.4882170
  H       -1.3561390     1.9546950     0.6612310
  H       -0.2921570     0.9237120     1.6255030
  H       -1.2491170    -1.9758090    -0.4428220
units angstrom
no_reorient  #important for SAPT in psi4, default
symmetry c1  #important for SAPT in psi4, default
}

set PROPERTIES_ORIGIN ["COM"]
properties('MP2/aug-cc-pvtz', properties = ['dipole'])
--------------------------------------------------------------------------

    Molecular point group: c1
  Charge       = 0
  Multiplicity = 1
  Basis Set: AUG-CC-PVTZ
    Blend: AUG-CC-PVTZ
  Basis Set: (AUG-CC-PVTZ AUX)
    Blend: AUG-CC-PVTZ-JKFIT

    Orbital Energies [Eh]
    ---------------------

    Doubly Occupied:

       1A    -20.509115     2A    -15.578974     3A    -11.343079
       4A    -11.276515     5A    -11.236423     6A    -11.235714
       7A    -11.234625     8A    -11.232965     9A     -1.363525
      10A     -1.228722    11A     -1.089817    12A     -1.043192
      13A     -0.945117    14A     -0.886902    15A     -0.797392
      16A     -0.763795    17A     -0.689013    18A     -0.676132
      19A     -0.625755    20A     -0.611599    21A     -0.600429
      22A     -0.591612    23A     -0.571766    24A     -0.547038
      25A     -0.520671    26A     -0.517138    27A     -0.482803
      28A     -0.472605    29A     -0.458294    30A     -0.410613
      31A     -0.384518

  @DF-RHF Final Energy:  -363.07364190760546

   => Energetics <=

    Nuclear Repulsion Energy =            393.7151483153964477
    One-Electron Energy =               -1273.7258676415115133
    Two-Electron Energy =                 516.9370774185096025
    Total Energy =                       -363.0736419076055199
  Basis Set: (AUG-CC-PVTZ AUX)
    Blend: AUG-CC-PVTZ-RI
    Molecular point group: c1

    Geometry (in Angstrom), charge = 0, multiplicity = 1:

       Center              X                  Y                   Z               Mass
    ------------   -----------------  -----------------  -----------------  -----------------
         O           -2.464769717760     0.080673902473    -0.382280091030    15.994914619570
         N           -0.635406717760    -1.209498097527    -0.014549091030    14.003074004430
         C            1.914896282240     0.746135902473    -0.023907091030    12.000000000000
         C            1.791666882240    -0.785946597527    -0.381514491030    12.000000000000
         C            0.651817282240     1.577960902473    -0.249396091030    12.000000000000
         C            0.723525282240    -1.477828097527     0.429155908970    12.000000000000
         C           -0.548899717760     1.159194902473     0.612907908970    12.000000000000
         C           -1.309974717760    -0.020263097527     0.041179908970    12.000000000000
         H            2.733518282240     1.179903902473    -0.611292091030     1.007825032230
         H            2.211336282240     0.838397902473     1.030386908970     1.007825032230
         H            1.579401282240    -0.863491097527    -1.437954091030     1.007825032230
         H            2.763204282240    -1.219653097527    -0.179433091030     1.007825032230
         H            0.363206282240     1.544773902473    -1.307718091030     1.007825032230
         H            0.887693282240     2.625168902473    -0.026705091030     1.007825032230
         H            0.869224282240    -2.557136097527     0.326895908970     1.007825032230
         H            0.829393282240    -1.249127097527     1.498643908970     1.007825032230
         H           -1.279271717760     1.969391902473     0.671657908970     1.007825032230
         H           -0.215289717760     0.938408902473     1.635929908970     1.007825032230
         H           -1.172249717760    -1.961112097527    -0.432395091030     1.007825032230

  Basis Set: AUG-CC-PVTZ
    Blend: AUG-CC-PVTZ
  Basis Set: (AUG-CC-PVTZ AUX)
    Blend: AUG-CC-PVTZ-JKFIT
	 Reference Energy          =    -363.0736419076054631 [Eh]
	 Singles Energy            =      -0.0000000000000000 [Eh]
	 Same-Spin Energy          =      -0.3775855903626466 [Eh]
	 Opposite-Spin Energy      =      -1.2475941850340995 [Eh]
	 Correlation Energy        =      -1.6251797753967461 [Eh]
	 Total Energy              =    -364.6988216830022225 [Eh]

	 ================> DF-SCS-MP2 Energies <==================
	-----------------------------------------------------------
	 SCS Same-Spin Scale       =       0.3333333333333333 [-]
	 SCS Opposite-Spin Scale   =       1.2000000000000000 [-]
	 SCS Same-Spin Energy      =      -0.1258618634542155 [Eh]
	 SCS Opposite-Spin Energy  =      -1.4971130220409192 [Eh]
	 SCS Correlation Energy    =      -1.6229748854951347 [Eh]
	 SCS Total Energy          =    -364.6966167931005884 [Eh]
	-----------------------------------------------------------

  Dipole Moment: [D]
     X:     4.0743      Y:    -1.0468      Z:     0.8890     Total:     4.2996

*** Psi4 exiting successfully. Buy a developer a beer!
