                               Psi4 1.3.2 release

  ==> Input File <==

--------------------------------------------------------------------------
#psi4
#
memory 32 gb

molecule  {
0 1
  O       -2.5416370     0.0659770    -0.3927070
  N       -0.7122740    -1.2241950    -0.0249760
  C        1.8380290     0.7314390    -0.0343340
  C        1.7187040    -0.7521010    -0.3806110
  C        0.5749500     1.5632640    -0.2598230
  C        0.6466580    -1.4925250     0.4187290
  C       -0.6257670     1.1444980     0.6024810
  C       -1.3868420    -0.0349600     0.0307530
  H        2.6566510     1.1652070    -0.6217190
  H        2.1344690     0.8237010     1.0199600
  H        1.5025340    -0.8781880    -1.4483810
  H        2.6863370    -1.2343500    -0.1898600
  H        0.2863390     1.5300770    -1.3181450
  H        0.8108260     2.6104720    -0.0371320
  H        0.7790376    -2.4731659     0.3258173
  H        0.7525260    -1.2638240     1.4882170
  H       -1.3561390     1.9546950     0.6612310
  H       -0.2921570     0.9237120     1.6255030
  H       -1.2491170    -1.9758090    -0.4428220
units angstrom
no_reorient  #important for SAPT in psi4, default
symmetry c1  #important for SAPT in psi4, default
}

set PROPERTIES_ORIGIN ["COM"]
properties('MP2/aug-cc-pvtz', properties = ['dipole'])
--------------------------------------------------------------------------

    Molecular point group: c1
  Charge       = 0
  Multiplicity = 1
  Basis Set: AUG-CC-PVTZ
    Blend: AUG-CC-PVTZ
  Basis Set: (AUG-CC-PVTZ AUX)
    Blend: AUG-CC-PVTZ-JKFIT

    Orbital Energies [Eh]
    ---------------------

    Doubly Occupied:

       1A    -20.508605     2A    -15.577973     3A    -11.342470
       4A    -11.264975     5A    -11.236243     6A    -11.235525
       7A    -11.233734     8A    -11.232483     9A     -1.363028
      10A     -1.228977    11A     -1.093498    12A     -1.044784
      13A     -0.949659    14A     -0.892279    15A     -0.795579
      16A     -0.763614    17A     -0.691385    18A     -0.680693
      19A     -0.625608    20A     -0.615293    21A     -0.603345
      22A     -0.595828    23A     -0.569790    24A     -0.545245
      25A     -0.521624    26A     -0.515352    27A     -0.481435
      28A     -0.471144    29A     -0.470023    30A     -0.410363
      31A     -0.382258

  @DF-RHF Final Energy:  -363.06977909613659

   => Energetics <=

    Nuclear Repulsion Energy =            394.6394101548240201
    One-Electron Energy =               -1275.5327527965698664
    Two-Electron Energy =                 517.8235635456093178
    Total Energy =                       -363.0697790961365854
  Basis Set: (AUG-CC-PVTZ AUX)
    Blend: AUG-CC-PVTZ-RI
    Molecular point group: c1

    Geometry (in Angstrom), charge = 0, multiplicity = 1:

       Center              X                  Y                   Z               Mass
    ------------   -----------------  -----------------  -----------------  -----------------
         O           -2.465065331254     0.074643440273    -0.383565738588    15.994914619570
         N           -0.635702331254    -1.215528559727    -0.015834738588    14.003074004430
         C            1.914600668746     0.740105440273    -0.025192738588    12.000000000000
         C            1.795275668746    -0.743434559727    -0.371469738588    12.000000000000
         C            0.651521668746     1.571930440273    -0.250681738588    12.000000000000
         C            0.723229668746    -1.483858559727     0.427870261412    12.000000000000
         C           -0.549195331254     1.153164440273     0.611622261412    12.000000000000
         C           -1.310270331254    -0.026293559727     0.039894261412    12.000000000000
         H            2.733222668746     1.173873440273    -0.612577738588     1.007825032230
         H            2.211040668746     0.832367440273     1.029101261412     1.007825032230
         H            1.579105668746    -0.869521559727    -1.439239738588     1.007825032230
         H            2.762908668746    -1.225683559727    -0.180718738588     1.007825032230
         H            0.362910668746     1.538743440273    -1.309003738588     1.007825032230
         H            0.887397668746     2.619138440273    -0.027990738588     1.007825032230
         H            0.855609268746    -2.464499459727     0.334958561412     1.007825032230
         H            0.829097668746    -1.255157559727     1.497358261412     1.007825032230
         H           -1.279567331254     1.963361440273     0.670372261412     1.007825032230
         H           -0.215585331254     0.932378440273     1.634644261412     1.007825032230
         H           -1.172545331254    -1.967142559727    -0.433680738588     1.007825032230

  Basis Set: AUG-CC-PVTZ
    Blend: AUG-CC-PVTZ
  Basis Set: (AUG-CC-PVTZ AUX)
    Blend: AUG-CC-PVTZ-JKFIT
	 Reference Energy          =    -363.0697790961365854 [Eh]
	 Singles Energy            =      -0.0000000000000000 [Eh]
	 Same-Spin Energy          =      -0.3776572341393433 [Eh]
	 Opposite-Spin Energy      =      -1.2470191672895683 [Eh]
	 Correlation Energy        =      -1.6246764014289115 [Eh]
	 Total Energy              =    -364.6944554975655137 [Eh]

	 ================> DF-SCS-MP2 Energies <==================
	-----------------------------------------------------------
	 SCS Same-Spin Scale       =       0.3333333333333333 [-]
	 SCS Opposite-Spin Scale   =       1.2000000000000000 [-]
	 SCS Same-Spin Energy      =      -0.1258857447131144 [Eh]
	 SCS Opposite-Spin Energy  =      -1.4964230007474819 [Eh]
	 SCS Correlation Energy    =      -1.6223087454605962 [Eh]
	 SCS Total Energy          =    -364.6920878415971856 [Eh]
	-----------------------------------------------------------

  Dipole Moment: [D]
     X:     4.0804      Y:    -1.0870      Z:     0.9042     Total:     4.3184

*** Psi4 exiting successfully. Buy a developer a beer!
