                               Psi4 1.3.2 release

  ==> Input File <==

--------------------------------------------------------------------------
#psi4
#
memory 32 gb

molecule  {
0 1
  O       -2.5416370     0.0659770    -0.3927070
  N       -0.7122740    -1.2241950    -0.0249760
  C        1.8380290     0.7314390    -0.0343340
  C        1.7187040    -0.7521010    -0.3806110
  C        0.5006957     1.7045384    -0.2796136
  C        0.6466580    -1.4925250     0.4187290
  C       -0.6257670     1.1444980     0.6024810
  C       -1.3868420    -0.0349600     0.0307530
  H        2.6566510     1.1652070    -0.6217190
  H        2.1344690     0.8237010     1.0199600
  H        1.5025340    -0.8781880    -1.4483810
  H        2.6863370    -1.2343500    -0.1898600
  H        0.2863390     1.5300770    -1.3181450
  H        0.8108260     2.6104720    -0.0371320
  H        0.7923570    -2.5718330     0.3164690
  H        0.7525260    -1.2638240     1.4882170
  H       -1.3561390     1.9546950     0.6612310
  H       -0.2921570     0.9237120     1.6255030
  H       -1.2491170    -1.9758090    -0.4428220
units angstrom
no_reorient  #important for SAPT in psi4, default
symmetry c1  #important for SAPT in psi4, default
}

set PROPERTIES_ORIGIN ["COM"]
properties('MP2/aug-cc-pvtz', properties = ['dipole'])
--------------------------------------------------------------------------

    Molecular point group: c1
  Charge       = 0
  Multiplicity = 1
  Basis Set: AUG-CC-PVTZ
    Blend: AUG-CC-PVTZ
  Basis Set: (AUG-CC-PVTZ AUX)
    Blend: AUG-CC-PVTZ-JKFIT

    Orbital Energies [Eh]
    ---------------------

    Doubly Occupied:

       1A    -20.509929     2A    -15.579468     3A    -11.345007
       4A    -11.276895     5A    -11.235974     6A    -11.235898
       7A    -11.234947     8A    -11.233446     9A     -1.364165
      10A     -1.228208    11A     -1.081496    12A     -1.043470
      13A     -0.936588    14A     -0.895913    15A     -0.798065
      16A     -0.765023    17A     -0.689011    18A     -0.674741
      19A     -0.632472    20A     -0.613635    21A     -0.600635
      22A     -0.591351    23A     -0.569743    24A     -0.545363
      25A     -0.524997    26A     -0.518883    27A     -0.487507
      28A     -0.476377    29A     -0.435599    30A     -0.410538
      31A     -0.382675

  @DF-RHF Final Energy:  -363.05244023938428

   => Energetics <=

    Nuclear Repulsion Energy =            392.0924123679056947
    One-Electron Energy =               -1270.4536717781436437
    Two-Electron Energy =                 515.3088191708536669
    Total Energy =                       -363.0524402393842820
  Basis Set: (AUG-CC-PVTZ AUX)
    Blend: AUG-CC-PVTZ-RI
    Molecular point group: c1

    Geometry (in Angstrom), charge = 0, multiplicity = 1:

       Center              X                  Y                   Z               Mass
    ------------   -----------------  -----------------  -----------------  -----------------
         O           -2.457304485522     0.060531340207    -0.381382330581    15.994914619570
         N           -0.627941485522    -1.229640659793    -0.013651330581    14.003074004430
         C            1.922361514478     0.725993340207    -0.023009330581    12.000000000000
         C            1.803036514478    -0.757546659793    -0.369286330581    12.000000000000
         C            0.585028214478     1.699092740207    -0.268288930581    12.000000000000
         C            0.730990514478    -1.497970659793     0.430053669419    12.000000000000
         C           -0.541434485522     1.139052340207     0.613805669419    12.000000000000
         C           -1.302509485522    -0.040405659793     0.042077669419    12.000000000000
         H            2.740983514478     1.159761340207    -0.610394330581     1.007825032230
         H            2.218801514478     0.818255340207     1.031284669419     1.007825032230
         H            1.586866514478    -0.883633659793    -1.437056330581     1.007825032230
         H            2.770669514478    -1.239795659793    -0.178535330581     1.007825032230
         H            0.370671514478     1.524631340207    -1.306820330581     1.007825032230
         H            0.895158514478     2.605026340207    -0.025807330581     1.007825032230
         H            0.876689514478    -2.577278659793     0.327793669419     1.007825032230
         H            0.836858514478    -1.269269659793     1.499541669419     1.007825032230
         H           -1.271806485522     1.949249340207     0.672555669419     1.007825032230
         H           -0.207824485522     0.918266340207     1.636827669419     1.007825032230
         H           -1.164784485522    -1.981254659793    -0.431497330581     1.007825032230

  Basis Set: AUG-CC-PVTZ
    Blend: AUG-CC-PVTZ
  Basis Set: (AUG-CC-PVTZ AUX)
    Blend: AUG-CC-PVTZ-JKFIT
	 Reference Energy          =    -363.0524402393842820 [Eh]
	 Singles Energy            =      -0.0000000000000000 [Eh]
	 Same-Spin Energy          =      -0.3775738965002797 [Eh]
	 Opposite-Spin Energy      =      -1.2485322724982217 [Eh]
	 Correlation Energy        =      -1.6261061689985015 [Eh]
	 Total Energy              =    -364.6785464083827719 [Eh]

	 ================> DF-SCS-MP2 Energies <==================
	-----------------------------------------------------------
	 SCS Same-Spin Scale       =       0.3333333333333333 [-]
	 SCS Opposite-Spin Scale   =       1.2000000000000000 [-]
	 SCS Same-Spin Energy      =      -0.1258579655000932 [Eh]
	 SCS Opposite-Spin Energy  =      -1.4982387269978661 [Eh]
	 SCS Correlation Energy    =      -1.6240966924979592 [Eh]
	 SCS Total Energy          =    -364.6765369318822536 [Eh]
	-----------------------------------------------------------

  Dipole Moment: [D]
     X:     4.0254      Y:    -1.0359      Z:     0.8752     Total:     4.2477

*** Psi4 exiting successfully. Buy a developer a beer!
