                               Psi4 1.3.2 release

  ==> Input File <==

--------------------------------------------------------------------------
#psi4
#
memory 32 gb

molecule  {
0 1
  O       -2.5416370     0.0659770    -0.3927070
  N       -0.7122740    -1.2241950    -0.0249760
  C        1.8380290     0.7314390    -0.0343340
  C        1.7187040    -0.7521010    -0.3806110
  C        0.5749500     1.5632640    -0.2598230
  C        0.6466580    -1.4925250     0.4187290
  C       -0.6257670     1.1444980     0.6024810
  C       -1.3868420    -0.0349600     0.0307530
  H        2.6566510     1.1652070    -0.6217190
  H        2.1344690     0.8237010     1.0199600
  H        1.5419557    -0.8551942    -1.2536576
  H        2.6863370    -1.2343500    -0.1898600
  H        0.2863390     1.5300770    -1.3181450
  H        0.8108260     2.6104720    -0.0371320
  H        0.7923570    -2.5718330     0.3164690
  H        0.7525260    -1.2638240     1.4882170
  H       -1.3561390     1.9546950     0.6612310
  H       -0.2921570     0.9237120     1.6255030
  H       -1.2491170    -1.9758090    -0.4428220
units angstrom
no_reorient  #important for SAPT in psi4, default
symmetry c1  #important for SAPT in psi4, default
}

set PROPERTIES_ORIGIN ["COM"]
properties('MP2/aug-cc-pvtz', properties = ['dipole'])
--------------------------------------------------------------------------

    Molecular point group: c1
  Charge       = 0
  Multiplicity = 1
  Basis Set: AUG-CC-PVTZ
    Blend: AUG-CC-PVTZ
  Basis Set: (AUG-CC-PVTZ AUX)
    Blend: AUG-CC-PVTZ-JKFIT

    Orbital Energies [Eh]
    ---------------------

    Doubly Occupied:

       1A    -20.509071     2A    -15.578878     3A    -11.343018
       4A    -11.275647     5A    -11.236457     6A    -11.235750
       7A    -11.231413     8A    -11.209182     9A     -1.363497
      10A     -1.228742    11A     -1.097979    12A     -1.048860
      13A     -0.945043    14A     -0.897048    15A     -0.811773
      16A     -0.764315    17A     -0.691476    18A     -0.676449
      19A     -0.630189    20A     -0.617024    21A     -0.603729
      22A     -0.591925    23A     -0.569418    24A     -0.545512
      25A     -0.530383    26A     -0.518546    27A     -0.486432
      28A     -0.469984    29A     -0.468121    30A     -0.410541
      31A     -0.382304

  @DF-RHF Final Energy:  -363.04229498386565

   => Energetics <=

    Nuclear Repulsion Energy =            395.1297360248963173
    One-Electron Energy =               -1276.4066519511097795
    Two-Electron Energy =                 518.2346209423477603
    Total Energy =                       -363.0422949838656450
  Basis Set: (AUG-CC-PVTZ AUX)
    Blend: AUG-CC-PVTZ-RI
    Molecular point group: c1

    Geometry (in Angstrom), charge = 0, multiplicity = 1:

       Center              X                  Y                   Z               Mass
    ------------   -----------------  -----------------  -----------------  -----------------
         O           -2.465535369196     0.075317854009    -0.385217834026    15.994914619570
         N           -0.636172369196    -1.214854145991    -0.017486834026    14.003074004430
         C            1.914130630804     0.740779854009    -0.026844834026    12.000000000000
         C            1.794805630804    -0.742760145991    -0.373121834026    12.000000000000
         C            0.651051630804     1.572604854009    -0.252333834026    12.000000000000
         C            0.722759630804    -1.483184145991     0.426218165974    12.000000000000
         C           -0.549665369196     1.153838854009     0.609970165974    12.000000000000
         C           -1.310740369196    -0.025619145991     0.038242165974    12.000000000000
         H            2.732752630804     1.174547854009    -0.614229834026     1.007825032230
         H            2.210570630804     0.833041854009     1.027449165974     1.007825032230
         H            1.618057330804    -0.845853345991    -1.246168434026     1.007825032230
         H            2.762438630804    -1.225009145991    -0.182370834026     1.007825032230
         H            0.362440630804     1.539417854009    -1.310655834026     1.007825032230
         H            0.886927630804     2.619812854009    -0.029642834026     1.007825032230
         H            0.868458630804    -2.562492145991     0.323958165974     1.007825032230
         H            0.828627630804    -1.254483145991     1.495706165974     1.007825032230
         H           -1.280037369196     1.964035854009     0.668720165974     1.007825032230
         H           -0.216055369196     0.933052854009     1.632992165974     1.007825032230
         H           -1.173015369196    -1.966468145991    -0.435332834026     1.007825032230

  Basis Set: AUG-CC-PVTZ
    Blend: AUG-CC-PVTZ
  Basis Set: (AUG-CC-PVTZ AUX)
    Blend: AUG-CC-PVTZ-JKFIT
	 Reference Energy          =    -363.0422949838656450 [Eh]
	 Singles Energy            =      -0.0000000000000000 [Eh]
	 Same-Spin Energy          =      -0.3777338591986613 [Eh]
	 Opposite-Spin Energy      =      -1.2470010133781635 [Eh]
	 Correlation Energy        =      -1.6247348725768247 [Eh]
	 Total Energy              =    -364.6670298564424684 [Eh]

	 ================> DF-SCS-MP2 Energies <==================
	-----------------------------------------------------------
	 SCS Same-Spin Scale       =       0.3333333333333333 [-]
	 SCS Opposite-Spin Scale   =       1.2000000000000000 [-]
	 SCS Same-Spin Energy      =      -0.1259112863995538 [Eh]
	 SCS Opposite-Spin Energy  =      -1.4964012160537961 [Eh]
	 SCS Correlation Energy    =      -1.6223125024533498 [Eh]
	 SCS Total Energy          =    -364.6646074863189710 [Eh]
	-----------------------------------------------------------

  Dipole Moment: [D]
     X:     4.0704      Y:    -1.0635      Z:     0.8143     Total:     4.2852

*** Psi4 exiting successfully. Buy a developer a beer!
