                               Psi4 1.3.2 release

  ==> Input File <==

--------------------------------------------------------------------------
#psi4
#
memory 32 gb

molecule  {
0 1
  O       -2.5416370     0.0659770    -0.3927070
  N       -0.7122740    -1.2241950    -0.0249760
  C        1.8380290     0.7314390    -0.0343340
  C        1.7187040    -0.7521010    -0.3806110
  C        0.6171887     1.4664343    -0.2413629
  C        0.6466580    -1.4925250     0.4187290
  C       -0.6257670     1.1444980     0.6024810
  C       -1.3868420    -0.0349600     0.0307530
  H        2.6566510     1.1652070    -0.6217190
  H        2.1344690     0.8237010     1.0199600
  H        1.5025340    -0.8781880    -1.4483810
  H        2.6863370    -1.2343500    -0.1898600
  H        0.2863390     1.5300770    -1.3181450
  H        0.8108260     2.6104720    -0.0371320
  H        0.7923570    -2.5718330     0.3164690
  H        0.7525260    -1.2638240     1.4882170
  H       -1.3561390     1.9546950     0.6612310
  H       -0.2921570     0.9237120     1.6255030
  H       -1.2491170    -1.9758090    -0.4428220
units angstrom
no_reorient  #important for SAPT in psi4, default
symmetry c1  #important for SAPT in psi4, default
}

set PROPERTIES_ORIGIN ["COM"]
properties('MP2/aug-cc-pvtz', properties = ['dipole'])
--------------------------------------------------------------------------

    Molecular point group: c1
  Charge       = 0
  Multiplicity = 1
  Basis Set: AUG-CC-PVTZ
    Blend: AUG-CC-PVTZ
  Basis Set: (AUG-CC-PVTZ AUX)
    Blend: AUG-CC-PVTZ-JKFIT

    Orbital Energies [Eh]
    ---------------------

    Doubly Occupied:

       1A    -20.508890     2A    -15.578506     3A    -11.342221
       4A    -11.277958     5A    -11.242383     6A    -11.238214
       7A    -11.233994     8A    -11.230643     9A     -1.363404
      10A     -1.228884    11A     -1.106553    12A     -1.042028
      13A     -0.953240    14A     -0.885202    15A     -0.792600
      16A     -0.763982    17A     -0.688324    18A     -0.679748
      19A     -0.630257    20A     -0.613471    21A     -0.605013
      22A     -0.589135    23A     -0.571588    24A     -0.547653
      25A     -0.519641    26A     -0.512211    27A     -0.494987
      28A     -0.468198    29A     -0.454306    30A     -0.408091
      31A     -0.382924

  @DF-RHF Final Energy:  -363.06224534381926

   => Energetics <=

    Nuclear Repulsion Energy =            395.5397155177824970
    One-Electron Energy =               -1277.2954182310454598
    Two-Electron Energy =                 518.6934573694437631
    Total Energy =                       -363.0622453438191997
  Basis Set: (AUG-CC-PVTZ AUX)
    Blend: AUG-CC-PVTZ-RI
    Molecular point group: c1

    Geometry (in Angstrom), charge = 0, multiplicity = 1:

       Center              X                  Y                   Z               Mass
    ------------   -----------------  -----------------  -----------------  -----------------
         O           -2.469666227316     0.085797934805    -0.385441332211    15.994914619570
         N           -0.640303227316    -1.204374065195    -0.017710332211    14.003074004430
         C            1.909999772684     0.751259934805    -0.027068332211    12.000000000000
         C            1.790674772684    -0.732280065195    -0.373345332211    12.000000000000
         C            0.689159472684     1.486255234805    -0.234097232211    12.000000000000
         C            0.718628772684    -1.472704065195     0.425994667789    12.000000000000
         C           -0.553796227316     1.164318934805     0.609746667789    12.000000000000
         C           -1.314871227316    -0.015139065195     0.038018667789    12.000000000000
         H            2.728621772684     1.185027934805    -0.614453332211     1.007825032230
         H            2.206439772684     0.843521934805     1.027225667789     1.007825032230
         H            1.574504772684    -0.858367065195    -1.441115332211     1.007825032230
         H            2.758307772684    -1.214529065195    -0.182594332211     1.007825032230
         H            0.358309772684     1.549897934805    -1.310879332211     1.007825032230
         H            0.882796772684     2.630292934805    -0.029866332211     1.007825032230
         H            0.864327772684    -2.552012065195     0.323734667789     1.007825032230
         H            0.824496772684    -1.244003065195     1.495482667789     1.007825032230
         H           -1.284168227316     1.974515934805     0.668496667789     1.007825032230
         H           -0.220186227316     0.943532934805     1.632768667789     1.007825032230
         H           -1.177146227316    -1.955988065195    -0.435556332211     1.007825032230

  Basis Set: AUG-CC-PVTZ
    Blend: AUG-CC-PVTZ
  Basis Set: (AUG-CC-PVTZ AUX)
    Blend: AUG-CC-PVTZ-JKFIT
	 Reference Energy          =    -363.0622453438192565 [Eh]
	 Singles Energy            =      -0.0000000000000000 [Eh]
	 Same-Spin Energy          =      -0.3788250235647530 [Eh]
	 Opposite-Spin Energy      =      -1.2491040935121109 [Eh]
	 Correlation Energy        =      -1.6279291170768639 [Eh]
	 Total Energy              =    -364.6901744608961167 [Eh]

	 ================> DF-SCS-MP2 Energies <==================
	-----------------------------------------------------------
	 SCS Same-Spin Scale       =       0.3333333333333333 [-]
	 SCS Opposite-Spin Scale   =       1.2000000000000000 [-]
	 SCS Same-Spin Energy      =      -0.1262750078549177 [Eh]
	 SCS Opposite-Spin Energy  =      -1.4989249122145332 [Eh]
	 SCS Correlation Energy    =      -1.6251999200694509 [Eh]
	 SCS Total Energy          =    -364.6874452638887192 [Eh]
	-----------------------------------------------------------

  Dipole Moment: [D]
     X:     4.0946      Y:    -1.0732      Z:     0.9196     Total:     4.3317

*** Psi4 exiting successfully. Buy a developer a beer!
