                               Psi4 1.4a3.dev225

  ==> Input File <==

--------------------------------------------------------------------------
#psi4
#
memory 32 gb

molecule  {
0 1
  O       -2.5416370     0.0659770    -0.3927070
  N       -0.7122740    -1.2241950    -0.0249760
  C        1.8380290     0.7314390    -0.0343340
  C        1.7187040    -0.7521010    -0.3806110
  C        0.6162514     1.5360642    -0.2524497
  C        0.6466580    -1.4925250     0.4187290
  C       -0.6257670     1.1444980     0.6024810
  C       -1.3868420    -0.0349600     0.0307530
  H        2.6566510     1.1652070    -0.6217190
  H        2.1344690     0.8237010     1.0199600
  H        1.5025340    -0.8781880    -1.4483810
  H        2.6863370    -1.2343500    -0.1898600
  H        0.2863390     1.5300770    -1.3181450
  H        0.8108260     2.6104720    -0.0371320
  H        0.7923570    -2.5718330     0.3164690
  H        0.7525260    -1.2638240     1.4882170
  H       -1.3561390     1.9546950     0.6612310
  H       -0.2921570     0.9237120     1.6255030
  H       -1.2491170    -1.9758090    -0.4428220
units angstrom
no_reorient  #important for SAPT in psi4, default
symmetry c1  #important for SAPT in psi4, default
}

set PROPERTIES_ORIGIN ["COM"]
properties('MP2/aug-cc-pvtz', properties = ['dipole'])
--------------------------------------------------------------------------

    Molecular point group: c1
  Charge       = 0
  Multiplicity = 1
  Basis Set: AUG-CC-PVTZ
    Blend: AUG-CC-PVTZ
  Basis Set: (AUG-CC-PVTZ AUX)
    Blend: AUG-CC-PVTZ-JKFIT

    Orbital Energies [Eh]
    ---------------------

    Doubly Occupied:

       1A    -20.508820     2A    -15.578390     3A    -11.342633
       4A    -11.277576     5A    -11.238583     6A    -11.237099
       7A    -11.234669     8A    -11.231513     9A     -1.363197
      10A     -1.228236    11A     -1.098995    12A     -1.040206
      13A     -0.949232    14A     -0.887888    15A     -0.794255
      16A     -0.763428    17A     -0.688080    18A     -0.677055
      19A     -0.627998    20A     -0.612120    21A     -0.604205
      22A     -0.590396    23A     -0.570749    24A     -0.544012
      25A     -0.519392    26A     -0.513973    27A     -0.487225
      28A     -0.471032    29A     -0.463978    30A     -0.409999
      31A     -0.382686

  @DF-RHF Final Energy:  -363.07262474282663

   => Energetics <=

    Nuclear Repulsion Energy =            394.4210808562378929
    One-Electron Energy =               -1275.1121688372354583
    Two-Electron Energy =                 517.6184632381708752
    Total Energy =                       -363.0726247428266333
  Basis Set: (AUG-CC-PVTZ AUX)
    Blend: AUG-CC-PVTZ-RI
    Molecular point group: c1

    Geometry (in Angstrom), charge = 0, multiplicity = 1:

       Center              X                  Y                   Z               Mass
    ------------   -----------------  -----------------  -----------------  -----------------
         O           -2.469566765026     0.078409105905    -0.384264848140    15.994914619570
         N           -0.640203765026    -1.211762894095    -0.016533848140    14.003074004430
         C            1.910099234974     0.743871105905    -0.025891848140    12.000000000000
         C            1.790774234974    -0.739668894095    -0.372168848140    12.000000000000
         C            0.688321634974     1.548496305905    -0.244007548140    12.000000000000
         C            0.718728234974    -1.480092894095     0.427171151860    12.000000000000
         C           -0.553696765026     1.156930105905     0.610923151860    12.000000000000
         C           -1.314771765026    -0.022527894095     0.039195151860    12.000000000000
         H            2.728721234974     1.177639105905    -0.613276848140     1.007825032230
         H            2.206539234974     0.836133105905     1.028402151860     1.007825032230
         H            1.574604234974    -0.865755894095    -1.439938848140     1.007825032230
         H            2.758407234974    -1.221917894095    -0.181417848140     1.007825032230
         H            0.358409234974     1.542509105905    -1.309702848140     1.007825032230
         H            0.882896234974     2.622904105905    -0.028689848140     1.007825032230
         H            0.864427234974    -2.559400894095     0.324911151860     1.007825032230
         H            0.824596234974    -1.251391894095     1.496659151860     1.007825032230
         H           -1.284068765026     1.967127105905     0.669673151860     1.007825032230
         H           -0.220086765026     0.936144105905     1.633945151860     1.007825032230
         H           -1.177046765026    -1.963376894095    -0.434379848140     1.007825032230

  Basis Set: AUG-CC-PVTZ
    Blend: AUG-CC-PVTZ
  Basis Set: (AUG-CC-PVTZ AUX)
    Blend: AUG-CC-PVTZ-JKFIT
	 Reference Energy          =    -363.0726247428266333 [Eh]
	 Singles Energy            =      -0.0000000000000000 [Eh]
	 Same-Spin Energy          =      -0.3780445057692218 [Eh]
	 Opposite-Spin Energy      =      -1.2480127827447063 [Eh]
	 Correlation Energy        =      -1.6260572885139282 [Eh]
	 Total Energy              =    -364.6986820313405815 [Eh]

	 ================> DF-SCS-MP2 Energies <==================
	-----------------------------------------------------------
	 SCS Same-Spin Scale       =       0.3333333333333333 [-]
	 SCS Opposite-Spin Scale   =       1.2000000000000000 [-]
	 SCS Same-Spin Energy      =      -0.1260148352564072 [Eh]
	 SCS Opposite-Spin Energy  =      -1.4976153392936475 [Eh]
	 SCS Correlation Energy    =      -1.6236301745500548 [Eh]
	 SCS Total Energy          =    -364.6962549173766774 [Eh]
	-----------------------------------------------------------

  Dipole Moment: [D]
     X:     4.0984      Y:    -1.0391      Z:     0.9024     Total:     4.3233

*** Psi4 exiting successfully. Buy a developer a beer!
