                               Psi4 1.3.2 release

  ==> Input File <==

--------------------------------------------------------------------------
#psi4
#
memory 32 gb

molecule  {
0 1
  O       -2.5416370     0.0659770    -0.3927070
  N       -0.7122740    -1.2241950    -0.0249760
  C        1.8380290     0.7314390    -0.0343340
  C        1.7187040    -0.7521010    -0.3806110
  C        0.5749500     1.5632640    -0.2598230
  C        0.6466580    -1.4925250     0.4187290
  C       -0.5476178     1.1717536     0.5463576
  C       -1.3868420    -0.0349600     0.0307530
  H        2.6566510     1.1652070    -0.6217190
  H        2.1344690     0.8237010     1.0199600
  H        1.5025340    -0.8781880    -1.4483810
  H        2.6863370    -1.2343500    -0.1898600
  H        0.2863390     1.5300770    -1.3181450
  H        0.8108260     2.6104720    -0.0371320
  H        0.7923570    -2.5718330     0.3164690
  H        0.7525260    -1.2638240     1.4882170
  H       -1.3561390     1.9546950     0.6612310
  H       -0.2921570     0.9237120     1.6255030
  H       -1.2491170    -1.9758090    -0.4428220
units angstrom
no_reorient  #important for SAPT in psi4, default
symmetry c1  #important for SAPT in psi4, default
}

set PROPERTIES_ORIGIN ["COM"]
properties('MP2/aug-cc-pvtz', properties = ['dipole'])
--------------------------------------------------------------------------

    Molecular point group: c1
  Charge       = 0
  Multiplicity = 1
  Basis Set: AUG-CC-PVTZ
    Blend: AUG-CC-PVTZ
  Basis Set: (AUG-CC-PVTZ AUX)
    Blend: AUG-CC-PVTZ-JKFIT

    Orbital Energies [Eh]
    ---------------------

    Doubly Occupied:

       1A    -20.511401     2A    -15.578802     3A    -11.345352
       4A    -11.277231     5A    -11.240875     6A    -11.234658
       7A    -11.233098     8A    -11.230384     9A     -1.363588
      10A     -1.228579    11A     -1.104407    12A     -1.045699
      13A     -0.941473    14A     -0.888336    15A     -0.798139
      16A     -0.759626    17A     -0.688716    18A     -0.676002
      19A     -0.630514    20A     -0.614751    21A     -0.599994
      22A     -0.593143    23A     -0.563826    24A     -0.555598
      25A     -0.518256    26A     -0.509752    27A     -0.481147
      28A     -0.479425    29A     -0.460712    30A     -0.406745
      31A     -0.383144

  @DF-RHF Final Energy:  -363.06372485609080

   => Energetics <=

    Nuclear Repulsion Energy =            394.7071465595425366
    One-Electron Energy =               -1275.6549962402818892
    Two-Electron Energy =                 517.8841248246485520
    Total Energy =                       -363.0637248560908574
  Basis Set: (AUG-CC-PVTZ AUX)
    Blend: AUG-CC-PVTZ-RI
    Molecular point group: c1

    Geometry (in Angstrom), charge = 0, multiplicity = 1:

       Center              X                  Y                   Z               Mass
    ------------   -----------------  -----------------  -----------------  -----------------
         O           -2.473476896874     0.072630530419    -0.377526848344    15.994914619570
         N           -0.644113896874    -1.217541469581    -0.009795848344    14.003074004430
         C            1.906189103126     0.738092530419    -0.019153848344    12.000000000000
         C            1.786864103126    -0.745447469581    -0.365430848344    12.000000000000
         C            0.643110103126     1.569917530419    -0.244642848344    12.000000000000
         C            0.714818103126    -1.485871469581     0.433909151656    12.000000000000
         C           -0.479457696874     1.178407130419     0.561537751656    12.000000000000
         C           -1.318681896874    -0.028306469581     0.045933151656    12.000000000000
         H            2.724811103126     1.171860530419    -0.606538848344     1.007825032230
         H            2.202629103126     0.830354530419     1.035140151656     1.007825032230
         H            1.570694103126    -0.871534469581    -1.433200848344     1.007825032230
         H            2.754497103126    -1.227696469581    -0.174679848344     1.007825032230
         H            0.354499103126     1.536730530419    -1.302964848344     1.007825032230
         H            0.878986103126     2.617125530419    -0.021951848344     1.007825032230
         H            0.860517103126    -2.565179469581     0.331649151656     1.007825032230
         H            0.820686103126    -1.257170469581     1.503397151656     1.007825032230
         H           -1.287978896874     1.961348530419     0.676411151656     1.007825032230
         H           -0.223996896874     0.930365530419     1.640683151656     1.007825032230
         H           -1.180956896874    -1.969155469581    -0.427641848344     1.007825032230

  Basis Set: AUG-CC-PVTZ
    Blend: AUG-CC-PVTZ
  Basis Set: (AUG-CC-PVTZ AUX)
    Blend: AUG-CC-PVTZ-JKFIT
	 Reference Energy          =    -363.0637248560908006 [Eh]
	 Singles Energy            =      -0.0000000000000000 [Eh]
	 Same-Spin Energy          =      -0.3787520586745615 [Eh]
	 Opposite-Spin Energy      =      -1.2491501509304446 [Eh]
	 Correlation Energy        =      -1.6279022096050060 [Eh]
	 Total Energy              =    -364.6916270656957977 [Eh]

	 ================> DF-SCS-MP2 Energies <==================
	-----------------------------------------------------------
	 SCS Same-Spin Scale       =       0.3333333333333333 [-]
	 SCS Opposite-Spin Scale   =       1.2000000000000000 [-]
	 SCS Same-Spin Energy      =      -0.1262506862248538 [Eh]
	 SCS Opposite-Spin Energy  =      -1.4989801811165335 [Eh]
	 SCS Correlation Energy    =      -1.6252308673413873 [Eh]
	 SCS Total Energy          =    -364.6889557234321728 [Eh]
	-----------------------------------------------------------

  Dipole Moment: [D]
     X:     4.0387      Y:    -1.0810      Z:     0.8321     Total:     4.2629

*** Psi4 exiting successfully. Buy a developer a beer!
