                               Psi4 1.3.2 release

  ==> Input File <==

--------------------------------------------------------------------------
#psi4
#
memory 32 gb

molecule  {
0 1
  O       -2.5416370     0.0659770    -0.3927070
  N       -0.7122740    -1.2241950    -0.0249760
  C        1.8380290     0.7314390    -0.0343340
  C        1.7187040    -0.7521010    -0.3806110
  C        0.5516230     1.6109429    -0.2674825
  C        0.6466580    -1.4925250     0.4187290
  C       -0.6257670     1.1444980     0.6024810
  C       -1.3868420    -0.0349600     0.0307530
  H        2.6566510     1.1652070    -0.6217190
  H        2.1344690     0.8237010     1.0199600
  H        1.5025340    -0.8781880    -1.4483810
  H        2.6863370    -1.2343500    -0.1898600
  H        0.2863390     1.5300770    -1.3181450
  H        0.8108260     2.6104720    -0.0371320
  H        0.7923570    -2.5718330     0.3164690
  H        0.7525260    -1.2638240     1.4882170
  H       -1.3561390     1.9546950     0.6612310
  H       -0.2921570     0.9237120     1.6255030
  H       -1.2491170    -1.9758090    -0.4428220
units angstrom
no_reorient  #important for SAPT in psi4, default
symmetry c1  #important for SAPT in psi4, default
}

set PROPERTIES_ORIGIN ["COM"]
properties('MP2/aug-cc-pvtz', properties = ['dipole'])
--------------------------------------------------------------------------

    Molecular point group: c1
  Charge       = 0
  Multiplicity = 1
  Basis Set: AUG-CC-PVTZ
    Blend: AUG-CC-PVTZ
  Basis Set: (AUG-CC-PVTZ AUX)
    Blend: AUG-CC-PVTZ-JKFIT

    Orbital Energies [Eh]
    ---------------------

    Doubly Occupied:

       1A    -20.509279     2A    -15.578873     3A    -11.343605
       4A    -11.277139     5A    -11.235743     6A    -11.234805
       7A    -11.234560     8A    -11.233948     9A     -1.363617
      10A     -1.228151    11A     -1.089038    12A     -1.042498
      13A     -0.942058    14A     -0.890712    15A     -0.796527
      16A     -0.764250    17A     -0.688035    18A     -0.675853
      19A     -0.626023    20A     -0.612486    21A     -0.601245
      22A     -0.592358    23A     -0.569509    24A     -0.545047
      25A     -0.520223    26A     -0.517832    27A     -0.482919
      28A     -0.473145    29A     -0.460739    30A     -0.411167
      31A     -0.382724

  @DF-RHF Final Energy:  -363.07320377523911

   => Energetics <=

    Nuclear Repulsion Energy =            393.3982108975171741
    One-Electron Energy =               -1273.0946098759200140
    Two-Electron Energy =                 516.6231952031637320
    Total Energy =                       -363.0732037752391079
  Basis Set: (AUG-CC-PVTZ AUX)
    Blend: AUG-CC-PVTZ-RI
    Molecular point group: c1

    Geometry (in Angstrom), charge = 0, multiplicity = 1:

       Center              X                  Y                   Z               Mass
    ------------   -----------------  -----------------  -----------------  -----------------
         O           -2.462708674039     0.070463296669    -0.382669631328    15.994914619570
         N           -0.633345674039    -1.219708703331    -0.014938631328    14.003074004430
         C            1.916957325961     0.735925296669    -0.024296631328    12.000000000000
         C            1.797632325961    -0.747614703331    -0.370573631328    12.000000000000
         C            0.630551325961     1.615429196669    -0.257445131328    12.000000000000
         C            0.725586325961    -1.488038703331     0.428766368672    12.000000000000
         C           -0.546838674039     1.148984296669     0.612518368672    12.000000000000
         C           -1.307913674039    -0.030473703331     0.040790368672    12.000000000000
         H            2.735579325961     1.169693296669    -0.611681631328     1.007825032230
         H            2.213397325961     0.828187296669     1.029997368672     1.007825032230
         H            1.581462325961    -0.873701703331    -1.438343631328     1.007825032230
         H            2.765265325961    -1.229863703331    -0.179822631328     1.007825032230
         H            0.365267325961     1.534563296669    -1.308107631328     1.007825032230
         H            0.889754325961     2.614958296669    -0.027094631328     1.007825032230
         H            0.871285325961    -2.567346703331     0.326506368672     1.007825032230
         H            0.831454325961    -1.259337703331     1.498254368672     1.007825032230
         H           -1.277210674039     1.959181296669     0.671268368672     1.007825032230
         H           -0.213228674039     0.928198296669     1.635540368672     1.007825032230
         H           -1.170188674039    -1.971322703331    -0.432784631328     1.007825032230

  Basis Set: AUG-CC-PVTZ
    Blend: AUG-CC-PVTZ
  Basis Set: (AUG-CC-PVTZ AUX)
    Blend: AUG-CC-PVTZ-JKFIT
	 Reference Energy          =    -363.0732037752391079 [Eh]
	 Singles Energy            =      -0.0000000000000000 [Eh]
	 Same-Spin Energy          =      -0.3774794448865897 [Eh]
	 Opposite-Spin Energy      =      -1.2475502948790300 [Eh]
	 Correlation Energy        =      -1.6250297397656197 [Eh]
	 Total Energy              =    -364.6982335150047447 [Eh]

	 ================> DF-SCS-MP2 Energies <==================
	-----------------------------------------------------------
	 SCS Same-Spin Scale       =       0.3333333333333333 [-]
	 SCS Opposite-Spin Scale   =       1.2000000000000000 [-]
	 SCS Same-Spin Energy      =      -0.1258264816288632 [Eh]
	 SCS Opposite-Spin Energy  =      -1.4970603538548359 [Eh]
	 SCS Correlation Energy    =      -1.6228868354836992 [Eh]
	 SCS Total Energy          =    -364.6960906107228197 [Eh]
	-----------------------------------------------------------

  Dipole Moment: [D]
     X:     4.0581      Y:    -1.0293      Z:     0.8871     Total:     4.2796

*** Psi4 exiting successfully. Buy a developer a beer!
