                               Psi4 1.3.2 release

  ==> Input File <==

--------------------------------------------------------------------------
#psi4
#
memory 32 gb

molecule  {
0 1
  O       -2.5416370     0.0659770    -0.3927070
  N       -0.6931567    -1.2135603    -0.0153953
  C        1.8380290     0.7314390    -0.0343340
  C        1.7187040    -0.7521010    -0.3806110
  C        0.5749500     1.5632640    -0.2598230
  C        0.6466580    -1.4925250     0.4187290
  C       -0.6257670     1.1444980     0.6024810
  C       -1.3868420    -0.0349600     0.0307530
  H        2.6566510     1.1652070    -0.6217190
  H        2.1344690     0.8237010     1.0199600
  H        1.5025340    -0.8781880    -1.4483810
  H        2.6863370    -1.2343500    -0.1898600
  H        0.2863390     1.5300770    -1.3181450
  H        0.8108260     2.6104720    -0.0371320
  H        0.7923570    -2.5718330     0.3164690
  H        0.7525260    -1.2638240     1.4882170
  H       -1.3561390     1.9546950     0.6612310
  H       -0.2921570     0.9237120     1.6255030
  H       -1.2491170    -1.9758090    -0.4428220
units angstrom
no_reorient  #important for SAPT in psi4, default
symmetry c1  #important for SAPT in psi4, default
}

set PROPERTIES_ORIGIN ["COM"]
properties('MP2/aug-cc-pvtz', properties = ['dipole'])
--------------------------------------------------------------------------

    Molecular point group: c1
  Charge       = 0
  Multiplicity = 1
  Basis Set: AUG-CC-PVTZ
    Blend: AUG-CC-PVTZ
  Basis Set: (AUG-CC-PVTZ AUX)
    Blend: AUG-CC-PVTZ-JKFIT

    Orbital Energies [Eh]
    ---------------------

    Doubly Occupied:

       1A    -20.510498     2A    -15.580513     3A    -11.343884
       4A    -11.276255     5A    -11.236274     6A    -11.235166
       7A    -11.233730     8A    -11.232731     9A     -1.363930
      10A     -1.231987    11A     -1.093090    12A     -1.042792
      13A     -0.944173    14A     -0.890415    15A     -0.795381
      16A     -0.759530    17A     -0.690734    18A     -0.677336
      19A     -0.625977    20A     -0.611095    21A     -0.602337
      22A     -0.593488    23A     -0.569610    24A     -0.545049
      25A     -0.518585    26A     -0.515645    27A     -0.480836
      28A     -0.470035    29A     -0.469291    30A     -0.411200
      31A     -0.382419

  @DF-RHF Final Energy:  -363.07377150517289

   => Energetics <=

    Nuclear Repulsion Energy =            394.4168558774118196
    One-Electron Energy =               -1275.1132840254399525
    Two-Electron Energy =                 517.6226566428553042
    Total Energy =                       -363.0737715051728856
  Basis Set: (AUG-CC-PVTZ AUX)
    Blend: AUG-CC-PVTZ-RI
    Molecular point group: c1

    Geometry (in Angstrom), charge = 0, multiplicity = 1:

       Center              X                  Y                   Z               Mass
    ------------   -----------------  -----------------  -----------------  -----------------
         O           -2.467551310104     0.074205895706    -0.384668792334    15.994914619570
         N           -0.619071010104    -1.205331404294    -0.007357092334    14.003074004430
         C            1.912114689896     0.739667895706    -0.026295792334    12.000000000000
         C            1.792789689896    -0.743872104294    -0.372572792334    12.000000000000
         C            0.649035689896     1.571492895706    -0.251784792334    12.000000000000
         C            0.720743689896    -1.484296104294     0.426767207666    12.000000000000
         C           -0.551681310104     1.152726895706     0.610519207666    12.000000000000
         C           -1.312756310104    -0.026731104294     0.038791207666    12.000000000000
         H            2.730736689896     1.173435895706    -0.613680792334     1.007825032230
         H            2.208554689896     0.831929895706     1.027998207666     1.007825032230
         H            1.576619689896    -0.869959104294    -1.440342792334     1.007825032230
         H            2.760422689896    -1.226121104294    -0.181821792334     1.007825032230
         H            0.360424689896     1.538305895706    -1.310106792334     1.007825032230
         H            0.884911689896     2.618700895706    -0.029093792334     1.007825032230
         H            0.866442689896    -2.563604104294     0.324507207666     1.007825032230
         H            0.826611689896    -1.255595104294     1.496255207666     1.007825032230
         H           -1.282053310104     1.962923895706     0.669269207666     1.007825032230
         H           -0.218071310104     0.931940895706     1.633541207666     1.007825032230
         H           -1.175031310104    -1.967580104294    -0.434783792334     1.007825032230

  Basis Set: AUG-CC-PVTZ
    Blend: AUG-CC-PVTZ
  Basis Set: (AUG-CC-PVTZ AUX)
    Blend: AUG-CC-PVTZ-JKFIT
	 Reference Energy          =    -363.0737715051728856 [Eh]
	 Singles Energy            =      -0.0000000000000000 [Eh]
	 Same-Spin Energy          =      -0.3781046528911858 [Eh]
	 Opposite-Spin Energy      =      -1.2481934236985817 [Eh]
	 Correlation Energy        =      -1.6262980765897674 [Eh]
	 Total Energy              =    -364.7000695817626479 [Eh]

	 ================> DF-SCS-MP2 Energies <==================
	-----------------------------------------------------------
	 SCS Same-Spin Scale       =       0.3333333333333333 [-]
	 SCS Opposite-Spin Scale   =       1.2000000000000000 [-]
	 SCS Same-Spin Energy      =      -0.1260348842970619 [Eh]
	 SCS Opposite-Spin Energy  =      -1.4978321084382979 [Eh]
	 SCS Correlation Energy    =      -1.6238669927353599 [Eh]
	 SCS Total Energy          =    -364.6976384979082582 [Eh]
	-----------------------------------------------------------

  Dipole Moment: [D]
     X:     4.0329      Y:    -1.0610      Z:     0.8839     Total:     4.2628

*** Psi4 exiting successfully. Buy a developer a beer!
