                               Psi4 1.3.2 release

  ==> Input File <==

--------------------------------------------------------------------------
#psi4
#
memory 32 gb

molecule  {
0 1
  O       -2.5416370     0.0659770    -0.3927070
  N       -0.7122740    -1.2241950    -0.0249760
  C        1.8380290     0.7314390    -0.0343340
  C        1.7578146    -0.8471851    -0.4091129
  C        0.5749500     1.5632640    -0.2598230
  C        0.6466580    -1.4925250     0.4187290
  C       -0.6257670     1.1444980     0.6024810
  C       -1.3868420    -0.0349600     0.0307530
  H        2.6566510     1.1652070    -0.6217190
  H        2.1344690     0.8237010     1.0199600
  H        1.5025340    -0.8781880    -1.4483810
  H        2.6863370    -1.2343500    -0.1898600
  H        0.2863390     1.5300770    -1.3181450
  H        0.8108260     2.6104720    -0.0371320
  H        0.7923570    -2.5718330     0.3164690
  H        0.7525260    -1.2638240     1.4882170
  H       -1.3561390     1.9546950     0.6612310
  H       -0.2921570     0.9237120     1.6255030
  H       -1.2491170    -1.9758090    -0.4428220
units angstrom
no_reorient  #important for SAPT in psi4, default
symmetry c1  #important for SAPT in psi4, default
}

set PROPERTIES_ORIGIN ["COM"]
properties('MP2/aug-cc-pvtz', properties = ['dipole'])
--------------------------------------------------------------------------

    Molecular point group: c1
  Charge       = 0
  Multiplicity = 1
  Basis Set: AUG-CC-PVTZ
    Blend: AUG-CC-PVTZ
  Basis Set: (AUG-CC-PVTZ AUX)
    Blend: AUG-CC-PVTZ-JKFIT

    Orbital Energies [Eh]
    ---------------------

    Doubly Occupied:

       1A    -20.509396     2A    -15.580068     3A    -11.343240
       4A    -11.277027     5A    -11.236960     6A    -11.235652
       7A    -11.235381     8A    -11.231275     9A     -1.363732
      10A     -1.227926    11A     -1.086107    12A     -1.041572
      13A     -0.942952    14A     -0.888058    15A     -0.799888
      16A     -0.763355    17A     -0.689738    18A     -0.674765
      19A     -0.627125    20A     -0.611286    21A     -0.599347
      22A     -0.590347    23A     -0.577237    24A     -0.545096
      25A     -0.525107    26A     -0.516598    27A     -0.485325
      28A     -0.473314    29A     -0.446396    30A     -0.410824
      31A     -0.384713

  @DF-RHF Final Energy:  -363.06588690785702

   => Energetics <=

    Nuclear Repulsion Energy =            392.6874512683156127
    One-Electron Energy =               -1271.6670636114079116
    Two-Electron Energy =                 515.9137254352352784
    Total Energy =                       -363.0658869078570206
  Basis Set: (AUG-CC-PVTZ AUX)
    Blend: AUG-CC-PVTZ-RI
    Molecular point group: c1

    Geometry (in Angstrom), charge = 0, multiplicity = 1:

       Center              X                  Y                   Z               Mass
    ------------   -----------------  -----------------  -----------------  -----------------
         O           -2.469334286646     0.085612699156    -0.380457924469    15.994914619570
         N           -0.639971286646    -1.204559300844    -0.012726924469    14.003074004430
         C            1.910331713354     0.751074699156    -0.022084924469    12.000000000000
         C            1.830117313354    -0.827549400844    -0.396863824469    12.000000000000
         C            0.647252713354     1.582899699156    -0.247573924469    12.000000000000
         C            0.718960713354    -1.472889300844     0.430978075531    12.000000000000
         C           -0.553464286646     1.164133699156     0.614730075531    12.000000000000
         C           -1.314539286646    -0.015324300844     0.043002075531    12.000000000000
         H            2.728953713354     1.184842699156    -0.609469924469     1.007825032230
         H            2.206771713354     0.843336699156     1.032209075531     1.007825032230
         H            1.574836713354    -0.858552300844    -1.436131924469     1.007825032230
         H            2.758639713354    -1.214714300844    -0.177610924469     1.007825032230
         H            0.358641713354     1.549712699156    -1.305895924469     1.007825032230
         H            0.883128713354     2.630107699156    -0.024882924469     1.007825032230
         H            0.864659713354    -2.552197300844     0.328718075531     1.007825032230
         H            0.824828713354    -1.244188300844     1.500466075531     1.007825032230
         H           -1.283836286646     1.974330699156     0.673480075531     1.007825032230
         H           -0.219854286646     0.943347699156     1.637752075531     1.007825032230
         H           -1.176814286646    -1.956173300844    -0.430572924469     1.007825032230

  Basis Set: AUG-CC-PVTZ
    Blend: AUG-CC-PVTZ
  Basis Set: (AUG-CC-PVTZ AUX)
    Blend: AUG-CC-PVTZ-JKFIT
	 Reference Energy          =    -363.0658869078570206 [Eh]
	 Singles Energy            =      -0.0000000000000000 [Eh]
	 Same-Spin Energy          =      -0.3774124289984589 [Eh]
	 Opposite-Spin Energy      =      -1.2477132820957924 [Eh]
	 Correlation Energy        =      -1.6251257110942512 [Eh]
	 Total Energy              =    -364.6910126189512766 [Eh]

	 ================> DF-SCS-MP2 Energies <==================
	-----------------------------------------------------------
	 SCS Same-Spin Scale       =       0.3333333333333333 [-]
	 SCS Opposite-Spin Scale   =       1.2000000000000000 [-]
	 SCS Same-Spin Energy      =      -0.1258041429994863 [Eh]
	 SCS Opposite-Spin Energy  =      -1.4972559385149509 [Eh]
	 SCS Correlation Energy    =      -1.6230600815144371 [Eh]
	 SCS Total Energy          =    -364.6889469893714590 [Eh]
	-----------------------------------------------------------

  Dipole Moment: [D]
     X:     4.0658      Y:    -1.0478      Z:     0.8841     Total:     4.2907

*** Psi4 exiting successfully. Buy a developer a beer!
