                               Psi4 1.3.2 release

  ==> Input File <==

--------------------------------------------------------------------------
#psi4
#
memory 32 gb

molecule  {
0 1
  O       -2.5416370     0.0659770    -0.3927070
  N       -0.7122740    -1.2241950    -0.0249760
  C        1.8249603     0.7169609    -0.0161181
  C        1.7187040    -0.7521010    -0.3806110
  C        0.5749500     1.5632640    -0.2598230
  C        0.6466580    -1.4925250     0.4187290
  C       -0.6257670     1.1444980     0.6024810
  C       -1.3868420    -0.0349600     0.0307530
  H        2.6566510     1.1652070    -0.6217190
  H        2.1344690     0.8237010     1.0199600
  H        1.5025340    -0.8781880    -1.4483810
  H        2.6863370    -1.2343500    -0.1898600
  H        0.2863390     1.5300770    -1.3181450
  H        0.8108260     2.6104720    -0.0371320
  H        0.7923570    -2.5718330     0.3164690
  H        0.7525260    -1.2638240     1.4882170
  H       -1.3561390     1.9546950     0.6612310
  H       -0.2921570     0.9237120     1.6255030
  H       -1.2491170    -1.9758090    -0.4428220
units angstrom
no_reorient  #important for SAPT in psi4, default
symmetry c1  #important for SAPT in psi4, default
}

set PROPERTIES_ORIGIN ["COM"]
properties('MP2/aug-cc-pvtz', properties = ['dipole'])
--------------------------------------------------------------------------

    Molecular point group: c1
  Charge       = 0
  Multiplicity = 1
  Basis Set: AUG-CC-PVTZ
    Blend: AUG-CC-PVTZ
  Basis Set: (AUG-CC-PVTZ AUX)
    Blend: AUG-CC-PVTZ-JKFIT

    Orbital Energies [Eh]
    ---------------------

    Doubly Occupied:

       1A    -20.509002     2A    -15.578692     3A    -11.342977
       4A    -11.276974     5A    -11.236794     6A    -11.235537
       7A    -11.234281     8A    -11.233455     9A     -1.363412
      10A     -1.228391    11A     -1.095099    12A     -1.042939
      13A     -0.944362    14A     -0.889055    15A     -0.795801
      16A     -0.763925    17A     -0.688260    18A     -0.675992
      19A     -0.625522    20A     -0.613003    21A     -0.603375
      22A     -0.591996    23A     -0.568613    24A     -0.544665
      25A     -0.518313    26A     -0.516168    27A     -0.485351
      28A     -0.471972    29A     -0.465132    30A     -0.410338
      31A     -0.382565

  @DF-RHF Final Energy:  -363.07450387132548

   => Energetics <=

    Nuclear Repulsion Energy =            394.3634002693442540
    One-Electron Energy =               -1275.0118907592686810
    Two-Electron Energy =                 517.5739866185988376
    Total Energy =                       -363.0745038713255326
  Basis Set: (AUG-CC-PVTZ AUX)
    Blend: AUG-CC-PVTZ-RI
    Molecular point group: c1

    Geometry (in Angstrom), charge = 0, multiplicity = 1:

       Center              X                  Y                   Z               Mass
    ------------   -----------------  -----------------  -----------------  -----------------
         O           -2.463797241213     0.077059133198    -0.385415418746    15.994914619570
         N           -0.634434241213    -1.213112866802    -0.017684418746    14.003074004430
         C            1.902800058787     0.728043033198    -0.008826518746    12.000000000000
         C            1.796543758787    -0.741018866802    -0.373319418746    12.000000000000
         C            0.652789758787     1.574346133198    -0.252531418746    12.000000000000
         C            0.724497758787    -1.481442866802     0.426020581254    12.000000000000
         C           -0.547927241213     1.155580133198     0.609772581254    12.000000000000
         C           -1.309002241213    -0.023877866802     0.038044581254    12.000000000000
         H            2.734490758787     1.176289133198    -0.614427418746     1.007825032230
         H            2.212308758787     0.834783133198     1.027251581254     1.007825032230
         H            1.580373758787    -0.867105866802    -1.441089418746     1.007825032230
         H            2.764176758787    -1.223267866802    -0.182568418746     1.007825032230
         H            0.364178758787     1.541159133198    -1.310853418746     1.007825032230
         H            0.888665758787     2.621554133198    -0.029840418746     1.007825032230
         H            0.870196758787    -2.560750866802     0.323760581254     1.007825032230
         H            0.830365758787    -1.252741866802     1.495508581254     1.007825032230
         H           -1.278299241213     1.965777133198     0.668522581254     1.007825032230
         H           -0.214317241213     0.934794133198     1.632794581254     1.007825032230
         H           -1.171277241213    -1.964726866802    -0.435530418746     1.007825032230

  Basis Set: AUG-CC-PVTZ
    Blend: AUG-CC-PVTZ
  Basis Set: (AUG-CC-PVTZ AUX)
    Blend: AUG-CC-PVTZ-JKFIT
	 Reference Energy          =    -363.0745038713254758 [Eh]
	 Singles Energy            =      -0.0000000000000000 [Eh]
	 Same-Spin Energy          =      -0.3778365215391516 [Eh]
	 Opposite-Spin Energy      =      -1.2478123733257136 [Eh]
	 Correlation Energy        =      -1.6256488948648653 [Eh]
	 Total Energy              =    -364.7001527661903424 [Eh]

	 ================> DF-SCS-MP2 Energies <==================
	-----------------------------------------------------------
	 SCS Same-Spin Scale       =       0.3333333333333333 [-]
	 SCS Opposite-Spin Scale   =       1.2000000000000000 [-]
	 SCS Same-Spin Energy      =      -0.1259455071797172 [Eh]
	 SCS Opposite-Spin Energy  =      -1.4973748479908562 [Eh]
	 SCS Correlation Energy    =      -1.6233203551705735 [Eh]
	 SCS Total Energy          =    -364.6978242264960386 [Eh]
	-----------------------------------------------------------

  Dipole Moment: [D]
     X:     4.0695      Y:    -1.0414      Z:     0.9034     Total:     4.2967

*** Psi4 exiting successfully. Buy a developer a beer!
