                               Psi4 1.4a3.dev225

  ==> Input File <==

--------------------------------------------------------------------------
#psi4
#
memory 32 gb

molecule  {
0 1
  O       -2.5416370     0.0659770    -0.3927070
  N       -0.7122740    -1.2241950    -0.0249760
  C        1.8380290     0.7314390    -0.0343340
  C        1.7187040    -0.7521010    -0.3806110
  C        0.5749500     1.5632640    -0.2598230
  C        0.6466580    -1.4925250     0.4187290
  C       -0.6257670     1.1444980     0.6024810
  C       -1.3868420    -0.0349600     0.0307530
  H        2.6566510     1.1652070    -0.6217190
  H        2.1344690     0.8237010     1.0199600
  H        1.5123894    -0.8724395    -1.3997001
  H        2.6863370    -1.2343500    -0.1898600
  H        0.2863390     1.5300770    -1.3181450
  H        0.8108260     2.6104720    -0.0371320
  H        0.7923570    -2.5718330     0.3164690
  H        0.7525260    -1.2638240     1.4882170
  H       -1.3561390     1.9546950     0.6612310
  H       -0.2921570     0.9237120     1.6255030
  H       -1.2491170    -1.9758090    -0.4428220
units angstrom
no_reorient  #important for SAPT in psi4, default
symmetry c1  #important for SAPT in psi4, default
}

set PROPERTIES_ORIGIN ["COM"]
properties('MP2/aug-cc-pvtz', properties = ['dipole'])
--------------------------------------------------------------------------

    Molecular point group: c1
  Charge       = 0
  Multiplicity = 1
  Basis Set: AUG-CC-PVTZ
    Blend: AUG-CC-PVTZ
  Basis Set: (AUG-CC-PVTZ AUX)
    Blend: AUG-CC-PVTZ-JKFIT

    Orbital Energies [Eh]
    ---------------------

    Doubly Occupied:

       1A    -20.509053     2A    -15.578700     3A    -11.343018
       4A    -11.276812     5A    -11.236585     6A    -11.235886
       7A    -11.232616     8A    -11.228039     9A     -1.363455
      10A     -1.228328    11A     -1.094539    12A     -1.043406
      13A     -0.945227    14A     -0.890007    15A     -0.798945
      16A     -0.764099    17A     -0.688668    18A     -0.676719
      19A     -0.626675    20A     -0.613095    21A     -0.602534
      22A     -0.591871    23A     -0.569834    24A     -0.545113
      25A     -0.520304    26A     -0.518483    27A     -0.483166
      28A     -0.470376    29A     -0.469008    30A     -0.410565
      31A     -0.382611

  @DF-RHF Final Energy:  -363.07455210645190

   => Energetics <=

    Nuclear Repulsion Energy =            394.3240074047309349
    One-Electron Energy =               -1274.9216424351684509
    Two-Electron Energy =                 517.5230829239856121
    Total Energy =                       -363.0745521064518471
  Basis Set: (AUG-CC-PVTZ AUX)
    Blend: AUG-CC-PVTZ-RI
    Molecular point group: c1

    Geometry (in Angstrom), charge = 0, multiplicity = 1:

       Center              X                  Y                   Z               Mass
    ------------   -----------------  -----------------  -----------------  -----------------
         O           -2.465271869140     0.075471547150    -0.383916277625    15.994914619570
         N           -0.635908869140    -1.214700452850    -0.016185277625    14.003074004430
         C            1.914394130860     0.740933547150    -0.025543277625    12.000000000000
         C            1.795069130860    -0.742606452850    -0.371820277625    12.000000000000
         C            0.651315130860     1.572758547150    -0.251032277625    12.000000000000
         C            0.723023130860    -1.483030452850     0.427519722375    12.000000000000
         C           -0.549401869140     1.153992547150     0.611271722375    12.000000000000
         C           -1.310476869140    -0.025465452850     0.039543722375    12.000000000000
         H            2.733016130860     1.174701547150    -0.612928277625     1.007825032230
         H            2.210834130860     0.833195547150     1.028750722375     1.007825032230
         H            1.588754530860    -0.862944952850    -1.390909377625     1.007825032230
         H            2.762702130860    -1.224855452850    -0.181069277625     1.007825032230
         H            0.362704130860     1.539571547150    -1.309354277625     1.007825032230
         H            0.887191130860     2.619966547150    -0.028341277625     1.007825032230
         H            0.868722130860    -2.562338452850     0.325259722375     1.007825032230
         H            0.828891130860    -1.254329452850     1.497007722375     1.007825032230
         H           -1.279773869140     1.964189547150     0.670021722375     1.007825032230
         H           -0.215791869140     0.933206547150     1.634293722375     1.007825032230
         H           -1.172751869140    -1.966314452850    -0.434031277625     1.007825032230

  Basis Set: AUG-CC-PVTZ
    Blend: AUG-CC-PVTZ
  Basis Set: (AUG-CC-PVTZ AUX)
    Blend: AUG-CC-PVTZ-JKFIT
	 Reference Energy          =    -363.0745521064519039 [Eh]
	 Singles Energy            =      -0.0000000000000000 [Eh]
	 Same-Spin Energy          =      -0.3777080855694511 [Eh]
	 Opposite-Spin Energy      =      -1.2473697499081107 [Eh]
	 Correlation Energy        =      -1.6250778354775619 [Eh]
	 Total Energy              =    -364.6996299419294587 [Eh]

	 ================> DF-SCS-MP2 Energies <==================
	-----------------------------------------------------------
	 SCS Same-Spin Scale       =       0.3333333333333333 [-]
	 SCS Opposite-Spin Scale   =       1.2000000000000000 [-]
	 SCS Same-Spin Energy      =      -0.1259026951898170 [Eh]
	 SCS Opposite-Spin Energy  =      -1.4968436998897328 [Eh]
	 SCS Correlation Energy    =      -1.6227463950795498 [Eh]
	 SCS Total Energy          =    -364.6972985015314634 [Eh]
	-----------------------------------------------------------

  Dipole Moment: [D]
     X:     4.0720      Y:    -1.0446      Z:     0.8693     Total:     4.2928

*** Psi4 exiting successfully. Buy a developer a beer!
