                               Psi4 1.3.2 release

  ==> Input File <==

--------------------------------------------------------------------------
#psi4
#
memory 32 gb

molecule  {
0 1
  O       -2.5416370     0.0659770    -0.3927070
  N       -0.7122740    -1.2241950    -0.0249760
  C        1.8380290     0.7314390    -0.0343340
  C        1.7187040    -0.7521010    -0.3806110
  C        0.7401556     1.4544647    -0.2303300
  C        0.6466580    -1.4925250     0.4187290
  C       -0.6257670     1.1444980     0.6024810
  C       -1.3868420    -0.0349600     0.0307530
  H        2.6566510     1.1652070    -0.6217190
  H        2.1344690     0.8237010     1.0199600
  H        1.5025340    -0.8781880    -1.4483810
  H        2.6863370    -1.2343500    -0.1898600
  H        0.2863390     1.5300770    -1.3181450
  H        0.8108260     2.6104720    -0.0371320
  H        0.7923570    -2.5718330     0.3164690
  H        0.7525260    -1.2638240     1.4882170
  H       -1.3561390     1.9546950     0.6612310
  H       -0.2921570     0.9237120     1.6255030
  H       -1.2491170    -1.9758090    -0.4428220
units angstrom
no_reorient  #important for SAPT in psi4, default
symmetry c1  #important for SAPT in psi4, default
}

set PROPERTIES_ORIGIN ["COM"]
properties('MP2/aug-cc-pvtz', properties = ['dipole'])
--------------------------------------------------------------------------

    Molecular point group: c1
  Charge       = 0
  Multiplicity = 1
  Basis Set: AUG-CC-PVTZ
    Blend: AUG-CC-PVTZ
  Basis Set: (AUG-CC-PVTZ AUX)
    Blend: AUG-CC-PVTZ-JKFIT

    Orbital Energies [Eh]
    ---------------------

    Doubly Occupied:

       1A    -20.508108     2A    -15.577590     3A    -11.341550
       4A    -11.278564     5A    -11.247631     6A    -11.240922
       7A    -11.236407     8A    -11.225259     9A     -1.362451
      10A     -1.228408    11A     -1.123745    12A     -1.034569
      13A     -0.962097    14A     -0.886343    15A     -0.788569
      16A     -0.761809    17A     -0.689640    18A     -0.679432
      19A     -0.638679    20A     -0.616535    21A     -0.612682
      22A     -0.585509    23A     -0.573538    24A     -0.547072
      25A     -0.521555    26A     -0.513130    27A     -0.508764
      28A     -0.449250    29A     -0.439964    30A     -0.405974
      31A     -0.382345

  @DF-RHF Final Energy:  -363.02650719884463

   => Energetics <=

    Nuclear Repulsion Energy =            395.5594775860496952
    One-Electron Energy =               -1277.2357848630997523
    Two-Electron Energy =                 518.6498000782053168
    Total Energy =                       -363.0265071988446834
  Basis Set: (AUG-CC-PVTZ AUX)
    Blend: AUG-CC-PVTZ-RI
    Molecular point group: c1

    Geometry (in Angstrom), charge = 0, multiplicity = 1:

       Center              X                  Y                   Z               Mass
    ------------   -----------------  -----------------  -----------------  -----------------
         O           -2.482714951850     0.087068097858    -0.386612096644    15.994914619570
         N           -0.653351951850    -1.203103902142    -0.018881096644    14.003074004430
         C            1.896951048150     0.752530097858    -0.028239096644    12.000000000000
         C            1.777626048150    -0.731009902142    -0.374516096644    12.000000000000
         C            0.799077648150     1.475555797858    -0.224235096644    12.000000000000
         C            0.705580048150    -1.471433902142     0.424823903356    12.000000000000
         C           -0.566844951850     1.165589097858     0.608575903356    12.000000000000
         C           -1.327919951850    -0.013868902142     0.036847903356    12.000000000000
         H            2.715573048150     1.186298097858    -0.615624096644     1.007825032230
         H            2.193391048150     0.844792097858     1.026054903356     1.007825032230
         H            1.561456048150    -0.857096902142    -1.442286096644     1.007825032230
         H            2.745259048150    -1.213258902142    -0.183765096644     1.007825032230
         H            0.345261048150     1.551168097858    -1.312050096644     1.007825032230
         H            0.869748048150     2.631563097858    -0.031037096644     1.007825032230
         H            0.851279048150    -2.550741902142     0.322563903356     1.007825032230
         H            0.811448048150    -1.242732902142     1.494311903356     1.007825032230
         H           -1.297216951850     1.975786097858     0.667325903356     1.007825032230
         H           -0.233234951850     0.944803097858     1.631597903356     1.007825032230
         H           -1.190194951850    -1.954717902142    -0.436727096644     1.007825032230

  Basis Set: AUG-CC-PVTZ
    Blend: AUG-CC-PVTZ
  Basis Set: (AUG-CC-PVTZ AUX)
    Blend: AUG-CC-PVTZ-JKFIT
	 Reference Energy          =    -363.0265071988446266 [Eh]
	 Singles Energy            =      -0.0000000000000000 [Eh]
	 Same-Spin Energy          =      -0.3804087312627477 [Eh]
	 Opposite-Spin Energy      =      -1.2514220738298625 [Eh]
	 Correlation Energy        =      -1.6318308050926102 [Eh]
	 Total Energy              =    -364.6583380039372173 [Eh]

	 ================> DF-SCS-MP2 Energies <==================
	-----------------------------------------------------------
	 SCS Same-Spin Scale       =       0.3333333333333333 [-]
	 SCS Opposite-Spin Scale   =       1.2000000000000000 [-]
	 SCS Same-Spin Energy      =      -0.1268029104209159 [Eh]
	 SCS Opposite-Spin Energy  =      -1.5017064885958349 [Eh]
	 SCS Correlation Energy    =      -1.6285093990167507 [Eh]
	 SCS Total Energy          =    -364.6550165978613904 [Eh]
	-----------------------------------------------------------

  Dipole Moment: [D]
     X:     4.1975      Y:    -1.0758      Z:     0.9342     Total:     4.4327

*** Psi4 exiting successfully. Buy a developer a beer!
