                               Psi4 1.3.2 release

  ==> Input File <==

--------------------------------------------------------------------------
#psi4
#
memory 32 gb

molecule  {
0 1
  O       -2.5416370     0.0659770    -0.3927070
  N       -0.7122740    -1.2241950    -0.0249760
  C        1.8380290     0.7314390    -0.0343340
  C        1.8714594    -0.7663247    -0.3353714
  C        0.5749500     1.5632640    -0.2598230
  C        0.6466580    -1.4925250     0.4187290
  C       -0.6257670     1.1444980     0.6024810
  C       -1.3868420    -0.0349600     0.0307530
  H        2.6566510     1.1652070    -0.6217190
  H        2.1344690     0.8237010     1.0199600
  H        1.5025340    -0.8781880    -1.4483810
  H        2.6863370    -1.2343500    -0.1898600
  H        0.2863390     1.5300770    -1.3181450
  H        0.8108260     2.6104720    -0.0371320
  H        0.7923570    -2.5718330     0.3164690
  H        0.7525260    -1.2638240     1.4882170
  H       -1.3561390     1.9546950     0.6612310
  H       -0.2921570     0.9237120     1.6255030
  H       -1.2491170    -1.9758090    -0.4428220
units angstrom
no_reorient  #important for SAPT in psi4, default
symmetry c1  #important for SAPT in psi4, default
}

set PROPERTIES_ORIGIN ["COM"]
properties('MP2/aug-cc-pvtz', properties = ['dipole'])
--------------------------------------------------------------------------

    Molecular point group: c1
  Charge       = 0
  Multiplicity = 1
  Basis Set: AUG-CC-PVTZ
    Blend: AUG-CC-PVTZ
  Basis Set: (AUG-CC-PVTZ AUX)
    Blend: AUG-CC-PVTZ-JKFIT

    Orbital Energies [Eh]
    ---------------------

    Doubly Occupied:

       1A    -20.510388     2A    -15.582187     3A    -11.344066
       4A    -11.279728     5A    -11.240440     6A    -11.236887
       7A    -11.234911     8A    -11.233755     9A     -1.364527
      10A     -1.226483    11A     -1.093348    12A     -1.040102
      13A     -0.941566    14A     -0.896611    15A     -0.800722
      16A     -0.765119    17A     -0.686857    18A     -0.675263
      19A     -0.636347    20A     -0.606859    21A     -0.601696
      22A     -0.593405    23A     -0.582118    24A     -0.544398
      25A     -0.521109    26A     -0.507112    27A     -0.490793
      28A     -0.463513    29A     -0.458507    30A     -0.411768
      31A     -0.379348

  @DF-RHF Final Energy:  -363.04396281795545

   => Energetics <=

    Nuclear Repulsion Energy =            392.2143855677099396
    One-Electron Energy =               -1270.6168301003604029
    Two-Electron Energy =                 515.3584817146950172
    Total Energy =                       -363.0439628179553893
  Basis Set: (AUG-CC-PVTZ AUX)
    Blend: AUG-CC-PVTZ-RI
    Molecular point group: c1

    Geometry (in Angstrom), charge = 0, multiplicity = 1:

       Center              X                  Y                   Z               Mass
    ------------   -----------------  -----------------  -----------------  -----------------
         O           -2.481393789568     0.077032137352    -0.388283058876    15.994914619570
         N           -0.652030789568    -1.213139862648    -0.020552058876    14.003074004430
         C            1.898272210432     0.742494137352    -0.029910058876    12.000000000000
         C            1.931702610432    -0.755269562648    -0.330947458876    12.000000000000
         C            0.635193210432     1.574319137352    -0.255399058876    12.000000000000
         C            0.706901210432    -1.481469862648     0.423152941124    12.000000000000
         C           -0.565523789568     1.155553137352     0.606904941124    12.000000000000
         C           -1.326598789568    -0.023904862648     0.035176941124    12.000000000000
         H            2.716894210432     1.176262137352    -0.617295058876     1.007825032230
         H            2.194712210432     0.834756137352     1.024383941124     1.007825032230
         H            1.562777210432    -0.867132862648    -1.443957058876     1.007825032230
         H            2.746580210432    -1.223294862648    -0.185436058876     1.007825032230
         H            0.346582210432     1.541132137352    -1.313721058876     1.007825032230
         H            0.871069210432     2.621527137352    -0.032708058876     1.007825032230
         H            0.852600210432    -2.560777862648     0.320892941124     1.007825032230
         H            0.812769210432    -1.252768862648     1.492640941124     1.007825032230
         H           -1.295895789568     1.965750137352     0.665654941124     1.007825032230
         H           -0.231913789568     0.934767137352     1.629926941124     1.007825032230
         H           -1.188873789568    -1.964753862648    -0.438398058876     1.007825032230

  Basis Set: AUG-CC-PVTZ
    Blend: AUG-CC-PVTZ
  Basis Set: (AUG-CC-PVTZ AUX)
    Blend: AUG-CC-PVTZ-JKFIT
	 Reference Energy          =    -363.0439628179554461 [Eh]
	 Singles Energy            =      -0.0000000000000000 [Eh]
	 Same-Spin Energy          =      -0.3778326681265191 [Eh]
	 Opposite-Spin Energy      =      -1.2487756360526756 [Eh]
	 Correlation Energy        =      -1.6266083041791948 [Eh]
	 Total Energy              =    -364.6705711221346178 [Eh]

	 ================> DF-SCS-MP2 Energies <==================
	-----------------------------------------------------------
	 SCS Same-Spin Scale       =       0.3333333333333333 [-]
	 SCS Opposite-Spin Scale   =       1.2000000000000000 [-]
	 SCS Same-Spin Energy      =      -0.1259442227088397 [Eh]
	 SCS Opposite-Spin Energy  =      -1.4985307632632108 [Eh]
	 SCS Correlation Energy    =      -1.6244749859720504 [Eh]
	 SCS Total Energy          =    -364.6684378039274748 [Eh]
	-----------------------------------------------------------

  Dipole Moment: [D]
     X:     4.0282      Y:    -0.9878      Z:     0.9335     Total:     4.2513

*** Psi4 exiting successfully. Buy a developer a beer!
