                               Psi4 1.3.2 release

  ==> Input File <==

--------------------------------------------------------------------------
#psi4
#
memory 32 gb

molecule  {
0 1
  O       -2.5409805     0.0239903    -0.4023142
  N       -0.7122740    -1.2241950    -0.0249760
  C        1.8380290     0.7314390    -0.0343340
  C        1.7187040    -0.7521010    -0.3806110
  C        0.5749500     1.5632640    -0.2598230
  C        0.6466580    -1.4925250     0.4187290
  C       -0.6257670     1.1444980     0.6024810
  C       -1.3868420    -0.0349600     0.0307530
  H        2.6566510     1.1652070    -0.6217190
  H        2.1344690     0.8237010     1.0199600
  H        1.5025340    -0.8781880    -1.4483810
  H        2.6863370    -1.2343500    -0.1898600
  H        0.2863390     1.5300770    -1.3181450
  H        0.8108260     2.6104720    -0.0371320
  H        0.7923570    -2.5718330     0.3164690
  H        0.7525260    -1.2638240     1.4882170
  H       -1.3561390     1.9546950     0.6612310
  H       -0.2921570     0.9237120     1.6255030
  H       -1.2491170    -1.9758090    -0.4428220
units angstrom
no_reorient  #important for SAPT in psi4, default
symmetry c1  #important for SAPT in psi4, default
}

set PROPERTIES_ORIGIN ["COM"]
properties('MP2/aug-cc-pvtz', properties = ['dipole'])
--------------------------------------------------------------------------

    Molecular point group: c1
  Charge       = 0
  Multiplicity = 1
  Basis Set: AUG-CC-PVTZ
    Blend: AUG-CC-PVTZ
  Basis Set: (AUG-CC-PVTZ AUX)
    Blend: AUG-CC-PVTZ-JKFIT

    Orbital Energies [Eh]
    ---------------------

    Doubly Occupied:

       1A    -20.508513     2A    -15.576412     3A    -11.343035
       4A    -11.276116     5A    -11.238427     6A    -11.237413
       7A    -11.234073     8A    -11.233282     9A     -1.364017
      10A     -1.225858    11A     -1.094375    12A     -1.042631
      13A     -0.945567    14A     -0.888480    15A     -0.795517
      16A     -0.763636    17A     -0.687445    18A     -0.676807
      19A     -0.625942    20A     -0.611806    21A     -0.602168
      22A     -0.591756    23A     -0.570578    24A     -0.544956
      25A     -0.519621    26A     -0.515704    27A     -0.481454
      28A     -0.471166    29A     -0.469788    30A     -0.411434
      31A     -0.380896

  @DF-RHF Final Energy:  -363.07511300457645

   => Energetics <=

    Nuclear Repulsion Energy =            394.1085030829905236
    One-Electron Energy =               -1274.5094904780969500
    Two-Electron Energy =                 517.3258743905299752
    Total Energy =                       -363.0751130045764512
  Basis Set: (AUG-CC-PVTZ AUX)
    Blend: AUG-CC-PVTZ-RI
    Molecular point group: c1

    Geometry (in Angstrom), charge = 0, multiplicity = 1:

       Center              X                  Y                   Z               Mass
    ------------   -----------------  -----------------  -----------------  -----------------
         O           -2.464620393213     0.039474790737    -0.391730756651    15.994914619570
         N           -0.635913893213    -1.208710509263    -0.014392556651    14.003074004430
         C            1.914389106787     0.746923490737    -0.023750556651    12.000000000000
         C            1.795064106787    -0.736616509263    -0.370027556651    12.000000000000
         C            0.651310106787     1.578748490737    -0.249239556651    12.000000000000
         C            0.723018106787    -1.477040509263     0.429312443349    12.000000000000
         C           -0.549406893213     1.159982490737     0.613064443349    12.000000000000
         C           -1.310481893213    -0.019475509263     0.041336443349    12.000000000000
         H            2.733011106787     1.180691490737    -0.611135556651     1.007825032230
         H            2.210829106787     0.839185490737     1.030543443349     1.007825032230
         H            1.578894106787    -0.862703509263    -1.437797556651     1.007825032230
         H            2.762697106787    -1.218865509263    -0.179276556651     1.007825032230
         H            0.362699106787     1.545561490737    -1.307561556651     1.007825032230
         H            0.887186106787     2.625956490737    -0.026548556651     1.007825032230
         H            0.868717106787    -2.556348509263     0.327052443349     1.007825032230
         H            0.828886106787    -1.248339509263     1.498800443349     1.007825032230
         H           -1.279778893213     1.970179490737     0.671814443349     1.007825032230
         H           -0.215796893213     0.939196490737     1.636086443349     1.007825032230
         H           -1.172756893213    -1.960324509263    -0.432238556651     1.007825032230

  Basis Set: AUG-CC-PVTZ
    Blend: AUG-CC-PVTZ
  Basis Set: (AUG-CC-PVTZ AUX)
    Blend: AUG-CC-PVTZ-JKFIT
	 Reference Energy          =    -363.0751130045764512 [Eh]
	 Singles Energy            =      -0.0000000000000000 [Eh]
	 Same-Spin Energy          =      -0.3777465617193433 [Eh]
	 Opposite-Spin Energy      =      -1.2476677246898422 [Eh]
	 Correlation Energy        =      -1.6254142864091856 [Eh]
	 Total Energy              =    -364.7005272909856330 [Eh]

	 ================> DF-SCS-MP2 Energies <==================
	-----------------------------------------------------------
	 SCS Same-Spin Scale       =       0.3333333333333333 [-]
	 SCS Opposite-Spin Scale   =       1.2000000000000000 [-]
	 SCS Same-Spin Energy      =      -0.1259155205731144 [Eh]
	 SCS Opposite-Spin Energy  =      -1.4972012696278105 [Eh]
	 SCS Correlation Energy    =      -1.6231167902009249 [Eh]
	 SCS Total Energy          =    -364.6982297947773759 [Eh]
	-----------------------------------------------------------

  Dipole Moment: [D]
     X:     4.0754      Y:    -0.9175      Z:     0.9212     Total:     4.2777

*** Psi4 exiting successfully. Buy a developer a beer!
