                               Psi4 1.3.2 release

  ==> Input File <==

--------------------------------------------------------------------------
#psi4
#
memory 32 gb

molecule  {
0 1
  O       -2.5416370     0.0659770    -0.3927070
  N       -0.7122740    -1.2241950    -0.0249760
  C        1.8380290     0.7314390    -0.0343340
  C        1.7187040    -0.7521010    -0.3806110
  C        0.5749500     1.5632640    -0.2598230
  C        0.6466580    -1.4925250     0.4187290
  C       -0.6257670     1.1444980     0.6024810
  C       -1.4086523    -0.0200349     0.0296084
  H        2.6566510     1.1652070    -0.6217190
  H        2.1344690     0.8237010     1.0199600
  H        1.5025340    -0.8781880    -1.4483810
  H        2.6863370    -1.2343500    -0.1898600
  H        0.2863390     1.5300770    -1.3181450
  H        0.8108260     2.6104720    -0.0371320
  H        0.7923570    -2.5718330     0.3164690
  H        0.7525260    -1.2638240     1.4882170
  H       -1.3561390     1.9546950     0.6612310
  H       -0.2921570     0.9237120     1.6255030
  H       -1.2491170    -1.9758090    -0.4428220
units angstrom
no_reorient  #important for SAPT in psi4, default
symmetry c1  #important for SAPT in psi4, default
}

set PROPERTIES_ORIGIN ["COM"]
properties('MP2/aug-cc-pvtz', properties = ['dipole'])
--------------------------------------------------------------------------

    Molecular point group: c1
  Charge       = 0
  Multiplicity = 1
  Basis Set: AUG-CC-PVTZ
    Blend: AUG-CC-PVTZ
  Basis Set: (AUG-CC-PVTZ AUX)
    Blend: AUG-CC-PVTZ-JKFIT

    Orbital Energies [Eh]
    ---------------------

    Doubly Occupied:

       1A    -20.514918     2A    -15.573478     3A    -11.343593
       4A    -11.274718     5A    -11.236620     6A    -11.235811
       7A    -11.232633     8A    -11.232009     9A     -1.377905
      10A     -1.222272    11A     -1.092380    12A     -1.040766
      13A     -0.943141    14A     -0.885947    15A     -0.793880
      16A     -0.758958    17A     -0.685556    18A     -0.678995
      19A     -0.624921    20A     -0.611802    21A     -0.600935
      22A     -0.595312    23A     -0.569596    24A     -0.548220
      25A     -0.520651    26A     -0.515986    27A     -0.480182
      28A     -0.471318    29A     -0.468772    30A     -0.413257
      31A     -0.381725

  @DF-RHF Final Energy:  -363.07565914552464

   => Energetics <=

    Nuclear Repulsion Energy =            393.9659420737843902
    One-Electron Energy =               -1274.2306900929854692
    Two-Electron Energy =                 517.1890888736763827
    Total Energy =                       -363.0756591455246962
  Basis Set: (AUG-CC-PVTZ AUX)
    Blend: AUG-CC-PVTZ-RI
    Molecular point group: c1

    Geometry (in Angstrom), charge = 0, multiplicity = 1:

       Center              X                  Y                   Z               Mass
    ------------   -----------------  -----------------  -----------------  -----------------
         O           -2.462869619793     0.073938990646    -0.383360964813    15.994914619570
         N           -0.633506619793    -1.216233009354    -0.015629964813    14.003074004430
         C            1.916796380207     0.739400990646    -0.024987964813    12.000000000000
         C            1.797471380207    -0.744139009354    -0.371264964813    12.000000000000
         C            0.653717380207     1.571225990646    -0.250476964813    12.000000000000
         C            0.725425380207    -1.484563009354     0.428075035187    12.000000000000
         C           -0.546999619793     1.152459990646     0.611827035187    12.000000000000
         C           -1.329884919793    -0.012072909354     0.038954435187    12.000000000000
         H            2.735418380207     1.173168990646    -0.612372964813     1.007825032230
         H            2.213236380207     0.831662990646     1.029306035187     1.007825032230
         H            1.581301380207    -0.870226009354    -1.439034964813     1.007825032230
         H            2.765104380207    -1.226388009354    -0.180513964813     1.007825032230
         H            0.365106380207     1.538038990646    -1.308798964813     1.007825032230
         H            0.889593380207     2.618433990646    -0.027785964813     1.007825032230
         H            0.871124380207    -2.563871009354     0.325815035187     1.007825032230
         H            0.831293380207    -1.255862009354     1.497563035187     1.007825032230
         H           -1.277371619793     1.962656990646     0.670577035187     1.007825032230
         H           -0.213389619793     0.931673990646     1.634849035187     1.007825032230
         H           -1.170349619793    -1.967847009354    -0.433475964813     1.007825032230

  Basis Set: AUG-CC-PVTZ
    Blend: AUG-CC-PVTZ
  Basis Set: (AUG-CC-PVTZ AUX)
    Blend: AUG-CC-PVTZ-JKFIT
	 Reference Energy          =    -363.0756591455246394 [Eh]
	 Singles Energy            =      -0.0000000000000000 [Eh]
	 Same-Spin Energy          =      -0.3773627656813190 [Eh]
	 Opposite-Spin Energy      =      -1.2469807445172525 [Eh]
	 Correlation Energy        =      -1.6243435101985715 [Eh]
	 Total Energy              =    -364.7000026557232104 [Eh]

	 ================> DF-SCS-MP2 Energies <==================
	-----------------------------------------------------------
	 SCS Same-Spin Scale       =       0.3333333333333333 [-]
	 SCS Opposite-Spin Scale   =       1.2000000000000000 [-]
	 SCS Same-Spin Energy      =      -0.1257875885604397 [Eh]
	 SCS Opposite-Spin Energy  =      -1.4963768934207029 [Eh]
	 SCS Correlation Energy    =      -1.6221644819811425 [Eh]
	 SCS Total Energy          =    -364.6978236275057839 [Eh]
	-----------------------------------------------------------

  Dipole Moment: [D]
     X:     3.8626      Y:    -0.9011      Z:     0.8622     Total:     4.0589

*** Psi4 exiting successfully. Buy a developer a beer!
