                               Psi4 1.3.2 release

  ==> Input File <==

--------------------------------------------------------------------------
#psi4
#
memory 32 gb

molecule  {
0 1
  O       -2.5416370     0.0659770    -0.3927070
  N       -0.7047619    -1.1749289    -0.0152851
  C        1.8380290     0.7314390    -0.0343340
  C        1.7187040    -0.7521010    -0.3806110
  C        0.5749500     1.5632640    -0.2598230
  C        0.6466580    -1.4925250     0.4187290
  C       -0.6257670     1.1444980     0.6024810
  C       -1.3868420    -0.0349600     0.0307530
  H        2.6566510     1.1652070    -0.6217190
  H        2.1344690     0.8237010     1.0199600
  H        1.5025340    -0.8781880    -1.4483810
  H        2.6863370    -1.2343500    -0.1898600
  H        0.2863390     1.5300770    -1.3181450
  H        0.8108260     2.6104720    -0.0371320
  H        0.7923570    -2.5718330     0.3164690
  H        0.7525260    -1.2638240     1.4882170
  H       -1.3561390     1.9546950     0.6612310
  H       -0.2921570     0.9237120     1.6255030
  H       -1.2491170    -1.9758090    -0.4428220
units angstrom
no_reorient  #important for SAPT in psi4, default
symmetry c1  #important for SAPT in psi4, default
}

set PROPERTIES_ORIGIN ["COM"]
properties('MP2/aug-cc-pvtz', properties = ['dipole'])
--------------------------------------------------------------------------

    Molecular point group: c1
  Charge       = 0
  Multiplicity = 1
  Basis Set: AUG-CC-PVTZ
    Blend: AUG-CC-PVTZ
  Basis Set: (AUG-CC-PVTZ AUX)
    Blend: AUG-CC-PVTZ-JKFIT

    Orbital Energies [Eh]
    ---------------------

    Doubly Occupied:

       1A    -20.503252     2A    -15.584357     3A    -11.337573
       4A    -11.280527     5A    -11.235571     6A    -11.235493
       7A    -11.233242     8A    -11.232969     9A     -1.363097
      10A     -1.234186    11A     -1.093439    12A     -1.044837
      13A     -0.945587    14A     -0.892293    15A     -0.795632
      16A     -0.759607    17A     -0.692032    18A     -0.675407
      19A     -0.626345    20A     -0.611084    21A     -0.601940
      22A     -0.593671    23A     -0.570322    24A     -0.541111
      25A     -0.520337    26A     -0.513660    27A     -0.481347
      28A     -0.470110    29A     -0.469103    30A     -0.407928
      31A     -0.383714

  @DF-RHF Final Energy:  -363.07159578633281

   => Energetics <=

    Nuclear Repulsion Energy =            395.0321807532860703
    One-Electron Energy =               -1276.3480027582845651
    Two-Electron Energy =                 518.2442262186657445
    Total Energy =                       -363.0715957863327503
  Basis Set: (AUG-CC-PVTZ AUX)
    Blend: AUG-CC-PVTZ-RI
    Molecular point group: c1

    Geometry (in Angstrom), charge = 0, multiplicity = 1:

       Center              X                  Y                   Z               Mass
    ------------   -----------------  -----------------  -----------------  -----------------
         O           -2.466114251082     0.069422212364    -0.384682438278    15.994914619570
         N           -0.629239151082    -1.171483687636    -0.007260538278    14.003074004430
         C            1.913551748918     0.734884212364    -0.026309438278    12.000000000000
         C            1.794226748918    -0.748655787636    -0.372586438278    12.000000000000
         C            0.650472748918     1.566709212364    -0.251798438278    12.000000000000
         C            0.722180748918    -1.489079787636     0.426753561722    12.000000000000
         C           -0.550244251082     1.147943212364     0.610505561722    12.000000000000
         C           -1.311319251082    -0.031514787636     0.038777561722    12.000000000000
         H            2.732173748918     1.168652212364    -0.613694438278     1.007825032230
         H            2.209991748918     0.827146212364     1.027984561722     1.007825032230
         H            1.578056748918    -0.874742787636    -1.440356438278     1.007825032230
         H            2.761859748918    -1.230904787636    -0.181835438278     1.007825032230
         H            0.361861748918     1.533522212364    -1.310120438278     1.007825032230
         H            0.886348748918     2.613917212364    -0.029107438278     1.007825032230
         H            0.867879748918    -2.568387787636     0.324493561722     1.007825032230
         H            0.828048748918    -1.260378787636     1.496241561722     1.007825032230
         H           -1.280616251082     1.958140212364     0.669255561722     1.007825032230
         H           -0.216634251082     0.927157212364     1.633527561722     1.007825032230
         H           -1.173594251082    -1.972363787636    -0.434797438278     1.007825032230

  Basis Set: AUG-CC-PVTZ
    Blend: AUG-CC-PVTZ
  Basis Set: (AUG-CC-PVTZ AUX)
    Blend: AUG-CC-PVTZ-JKFIT
	 Reference Energy          =    -363.0715957863328072 [Eh]
	 Singles Energy            =      -0.0000000000000000 [Eh]
	 Same-Spin Energy          =      -0.3781064283802155 [Eh]
	 Opposite-Spin Energy      =      -1.2481438117136143 [Eh]
	 Correlation Energy        =      -1.6262502400938299 [Eh]
	 Total Energy              =    -364.6978460264266459 [Eh]

	 ================> DF-SCS-MP2 Energies <==================
	-----------------------------------------------------------
	 SCS Same-Spin Scale       =       0.3333333333333333 [-]
	 SCS Opposite-Spin Scale   =       1.2000000000000000 [-]
	 SCS Same-Spin Energy      =      -0.1260354761267385 [Eh]
	 SCS Opposite-Spin Energy  =      -1.4977725740563372 [Eh]
	 SCS Correlation Energy    =      -1.6238080501830758 [Eh]
	 SCS Total Energy          =    -364.6954038365158794 [Eh]
	-----------------------------------------------------------

  Dipole Moment: [D]
     X:     4.2191      Y:    -1.2365      Z:     0.9143     Total:     4.4906

*** Psi4 exiting successfully. Buy a developer a beer!
