                               Psi4 1.3.2 release

  ==> Input File <==

--------------------------------------------------------------------------
#psi4
#
memory 32 gb

molecule  {
0 1
  O       -2.5416370     0.0659770    -0.3927070
  N       -0.7122740    -1.2241950    -0.0249760
  C        1.8245554     0.7095019    -0.0413660
  C        1.7187040    -0.7521010    -0.3806110
  C        0.5749500     1.5632640    -0.2598230
  C        0.6466580    -1.4925250     0.4187290
  C       -0.6257670     1.1444980     0.6024810
  C       -1.3868420    -0.0349600     0.0307530
  H        2.6566510     1.1652070    -0.6217190
  H        2.1344690     0.8237010     1.0199600
  H        1.5025340    -0.8781880    -1.4483810
  H        2.6863370    -1.2343500    -0.1898600
  H        0.2863390     1.5300770    -1.3181450
  H        0.8108260     2.6104720    -0.0371320
  H        0.7923570    -2.5718330     0.3164690
  H        0.7525260    -1.2638240     1.4882170
  H       -1.3561390     1.9546950     0.6612310
  H       -0.2921570     0.9237120     1.6255030
  H       -1.2491170    -1.9758090    -0.4428220
units angstrom
no_reorient  #important for SAPT in psi4, default
symmetry c1  #important for SAPT in psi4, default
}

set PROPERTIES_ORIGIN ["COM"]
properties('MP2/aug-cc-pvtz', properties = ['dipole'])
--------------------------------------------------------------------------

    Molecular point group: c1
  Charge       = 0
  Multiplicity = 1
  Basis Set: AUG-CC-PVTZ
    Blend: AUG-CC-PVTZ
  Basis Set: (AUG-CC-PVTZ AUX)
    Blend: AUG-CC-PVTZ-JKFIT

    Orbital Energies [Eh]
    ---------------------

    Doubly Occupied:

       1A    -20.509110     2A    -15.578856     3A    -11.343108
       4A    -11.277382     5A    -11.236935     6A    -11.235792
       7A    -11.234488     8A    -11.233592     9A     -1.363523
      10A     -1.228613    11A     -1.095985    12A     -1.043747
      13A     -0.944587    14A     -0.890184    15A     -0.793655
      16A     -0.764207    17A     -0.688659    18A     -0.676604
      19A     -0.626590    20A     -0.613120    21A     -0.602252
      22A     -0.592442    23A     -0.569170    24A     -0.545471
      25A     -0.518532    26A     -0.515881    27A     -0.480318
      28A     -0.473801    29A     -0.466889    30A     -0.410487
      31A     -0.382789

  @DF-RHF Final Energy:  -363.07440771249060

   => Energetics <=

    Nuclear Repulsion Energy =            394.4526692822477116
    One-Electron Energy =               -1275.1806139666325635
    Two-Electron Energy =                 517.6535369718942547
    Total Energy =                       -363.0744077124905971
  Basis Set: (AUG-CC-PVTZ AUX)
    Blend: AUG-CC-PVTZ-RI
    Molecular point group: c1

    Geometry (in Angstrom), charge = 0, multiplicity = 1:

       Center              X                  Y                   Z               Mass
    ------------   -----------------  -----------------  -----------------  -----------------
         O           -2.463754274947     0.077850650560    -0.382736218960    15.994914619570
         N           -0.634391274947    -1.212321349440    -0.015005218960    14.003074004430
         C            1.902438125053     0.721375550560    -0.031395218960    12.000000000000
         C            1.796586725053    -0.740227349440    -0.370640218960    12.000000000000
         C            0.652832725053     1.575137650560    -0.249852218960    12.000000000000
         C            0.724540725053    -1.480651349440     0.428699781040    12.000000000000
         C           -0.547884274947     1.156371650560     0.612451781040    12.000000000000
         C           -1.308959274947    -0.023086349440     0.040723781040    12.000000000000
         H            2.734533725053     1.177080650560    -0.611748218960     1.007825032230
         H            2.212351725053     0.835574650560     1.029930781040     1.007825032230
         H            1.580416725053    -0.866314349440    -1.438410218960     1.007825032230
         H            2.764219725053    -1.222476349440    -0.179889218960     1.007825032230
         H            0.364221725053     1.541950650560    -1.308174218960     1.007825032230
         H            0.888708725053     2.622345650560    -0.027161218960     1.007825032230
         H            0.870239725053    -2.559959349440     0.326439781040     1.007825032230
         H            0.830408725053    -1.251950349440     1.498187781040     1.007825032230
         H           -1.278256274947     1.966568650560     0.671201781040     1.007825032230
         H           -0.214274274947     0.935585650560     1.635473781040     1.007825032230
         H           -1.171234274947    -1.963935349440    -0.432851218960     1.007825032230

  Basis Set: AUG-CC-PVTZ
    Blend: AUG-CC-PVTZ
  Basis Set: (AUG-CC-PVTZ AUX)
    Blend: AUG-CC-PVTZ-JKFIT
	 Reference Energy          =    -363.0744077124905971 [Eh]
	 Singles Energy            =      -0.0000000000000000 [Eh]
	 Same-Spin Energy          =      -0.3779262767844329 [Eh]
	 Opposite-Spin Energy      =      -1.2478935257473349 [Eh]
	 Correlation Energy        =      -1.6258198025317678 [Eh]
	 Total Energy              =    -364.7002275150223909 [Eh]

	 ================> DF-SCS-MP2 Energies <==================
	-----------------------------------------------------------
	 SCS Same-Spin Scale       =       0.3333333333333333 [-]
	 SCS Opposite-Spin Scale   =       1.2000000000000000 [-]
	 SCS Same-Spin Energy      =      -0.1259754255948110 [Eh]
	 SCS Opposite-Spin Energy  =      -1.4974722308968018 [Eh]
	 SCS Correlation Energy    =      -1.6234476564916127 [Eh]
	 SCS Total Energy          =    -364.6978553689822320 [Eh]
	-----------------------------------------------------------

  Dipole Moment: [D]
     X:     4.0657      Y:    -1.0454      Z:     0.8889     Total:     4.2911

*** Psi4 exiting successfully. Buy a developer a beer!
