                               Psi4 1.3.2 release

  ==> Input File <==

--------------------------------------------------------------------------
#psi4
#
memory 32 gb

molecule  {
0 1
  O       -2.5416370     0.0659770    -0.3927070
  N       -0.7122740    -1.2241950    -0.0249760
  C        1.8380290     0.7314390    -0.0343340
  C        1.7187040    -0.7521010    -0.3806110
  C        0.5749500     1.5632640    -0.2598230
  C        0.6336900    -1.5886365     0.3887081
  C       -0.6257670     1.1444980     0.6024810
  C       -1.3868420    -0.0349600     0.0307530
  H        2.6566510     1.1652070    -0.6217190
  H        2.1344690     0.8237010     1.0199600
  H        1.5025340    -0.8781880    -1.4483810
  H        2.6863370    -1.2343500    -0.1898600
  H        0.2863390     1.5300770    -1.3181450
  H        0.8108260     2.6104720    -0.0371320
  H        0.7923570    -2.5718330     0.3164690
  H        0.7525260    -1.2638240     1.4882170
  H       -1.3561390     1.9546950     0.6612310
  H       -0.2921570     0.9237120     1.6255030
  H       -1.2491170    -1.9758090    -0.4428220
units angstrom
no_reorient  #important for SAPT in psi4, default
symmetry c1  #important for SAPT in psi4, default
}

set PROPERTIES_ORIGIN ["COM"]
properties('MP2/aug-cc-pvtz', properties = ['dipole'])
--------------------------------------------------------------------------

    Molecular point group: c1
  Charge       = 0
  Multiplicity = 1
  Basis Set: AUG-CC-PVTZ
    Blend: AUG-CC-PVTZ
  Basis Set: (AUG-CC-PVTZ AUX)
    Blend: AUG-CC-PVTZ-JKFIT

    Orbital Energies [Eh]
    ---------------------

    Doubly Occupied:

       1A    -20.509874     2A    -15.578956     3A    -11.345624
       4A    -11.277400     5A    -11.236563     6A    -11.236051
       7A    -11.235894     8A    -11.234520     9A     -1.364051
      10A     -1.227667    11A     -1.092100    12A     -1.040045
      13A     -0.946886    14A     -0.893520    15A     -0.793008
      16A     -0.762175    17A     -0.693998    18A     -0.679650
      19A     -0.622307    20A     -0.615551    21A     -0.603122
      22A     -0.595906    23A     -0.569238    24A     -0.539798
      25A     -0.523405    26A     -0.508662    27A     -0.482265
      28A     -0.474309    29A     -0.467180    30A     -0.412180
      31A     -0.377153

  @DF-RHF Final Energy:  -363.06281677438767

   => Energetics <=

    Nuclear Repulsion Energy =            393.0135598866889950
    One-Electron Energy =               -1272.2746367715344604
    Two-Electron Energy =                 516.1982601104577952
    Total Energy =                       -363.0628167743876702
  Basis Set: (AUG-CC-PVTZ AUX)
    Blend: AUG-CC-PVTZ-RI
    Molecular point group: c1

    Geometry (in Angstrom), charge = 0, multiplicity = 1:

       Center              X                  Y                   Z               Mass
    ------------   -----------------  -----------------  -----------------  -----------------
         O           -2.463807927069     0.085721722475    -0.380296734648    15.994914619570
         N           -0.634444927069    -1.204450277525    -0.012565734648    14.003074004430
         C            1.915858072931     0.751183722475    -0.021923734648    12.000000000000
         C            1.796533072931    -0.732356277525    -0.368200734648    12.000000000000
         C            0.652779072931     1.583008722475    -0.247412734648    12.000000000000
         C            0.711519072931    -1.568891777525     0.401118365352    12.000000000000
         C           -0.547937927069     1.164242722475     0.614891265352    12.000000000000
         C           -1.309012927069    -0.015215277525     0.043163265352    12.000000000000
         H            2.734480072931     1.184951722475    -0.609308734648     1.007825032230
         H            2.212298072931     0.843445722475     1.032370265352     1.007825032230
         H            1.580363072931    -0.858443277525    -1.435970734648     1.007825032230
         H            2.764166072931    -1.214605277525    -0.177449734648     1.007825032230
         H            0.364168072931     1.549821722475    -1.305734734648     1.007825032230
         H            0.888655072931     2.630216722475    -0.024721734648     1.007825032230
         H            0.870186072931    -2.552088277525     0.328879265352     1.007825032230
         H            0.830355072931    -1.244079277525     1.500627265352     1.007825032230
         H           -1.278309927069     1.974439722475     0.673641265352     1.007825032230
         H           -0.214327927069     0.943456722475     1.637913265352     1.007825032230
         H           -1.171287927069    -1.956064277525    -0.430411734648     1.007825032230

  Basis Set: AUG-CC-PVTZ
    Blend: AUG-CC-PVTZ
  Basis Set: (AUG-CC-PVTZ AUX)
    Blend: AUG-CC-PVTZ-JKFIT
	 Reference Energy          =    -363.0628167743876702 [Eh]
	 Singles Energy            =      -0.0000000000000000 [Eh]
	 Same-Spin Energy          =      -0.3776210756122266 [Eh]
	 Opposite-Spin Energy      =      -1.2479686270548052 [Eh]
	 Correlation Energy        =      -1.6255897026670318 [Eh]
	 Total Energy              =    -364.6884064770546843 [Eh]

	 ================> DF-SCS-MP2 Energies <==================
	-----------------------------------------------------------
	 SCS Same-Spin Scale       =       0.3333333333333333 [-]
	 SCS Opposite-Spin Scale   =       1.2000000000000000 [-]
	 SCS Same-Spin Energy      =      -0.1258736918707422 [Eh]
	 SCS Opposite-Spin Energy  =      -1.4975623524657662 [Eh]
	 SCS Correlation Energy    =      -1.6234360443365083 [Eh]
	 SCS Total Energy          =    -364.6862528187241992 [Eh]
	-----------------------------------------------------------

  Dipole Moment: [D]
     X:     4.0416      Y:    -1.0828      Z:     0.8600     Total:     4.2716

*** Psi4 exiting successfully. Buy a developer a beer!
