                               Psi4 1.3.2 release

  ==> Input File <==

--------------------------------------------------------------------------
#psi4
#
memory 32 gb

molecule  {
0 1
  O       -2.5416370     0.0659770    -0.3927070
  N       -0.7122740    -1.2241950    -0.0249760
  C        1.8380290     0.7314390    -0.0343340
  C        1.7187040    -0.7521010    -0.3806110
  C        0.5749500     1.5632640    -0.2598230
  C        0.7400875    -1.5109733     0.4492347
  C       -0.6257670     1.1444980     0.6024810
  C       -1.3868420    -0.0349600     0.0307530
  H        2.6566510     1.1652070    -0.6217190
  H        2.1344690     0.8237010     1.0199600
  H        1.5025340    -0.8781880    -1.4483810
  H        2.6863370    -1.2343500    -0.1898600
  H        0.2863390     1.5300770    -1.3181450
  H        0.8108260     2.6104720    -0.0371320
  H        0.7923570    -2.5718330     0.3164690
  H        0.7525260    -1.2638240     1.4882170
  H       -1.3561390     1.9546950     0.6612310
  H       -0.2921570     0.9237120     1.6255030
  H       -1.2491170    -1.9758090    -0.4428220
units angstrom
no_reorient  #important for SAPT in psi4, default
symmetry c1  #important for SAPT in psi4, default
}

set PROPERTIES_ORIGIN ["COM"]
properties('MP2/aug-cc-pvtz', properties = ['dipole'])
--------------------------------------------------------------------------

    Molecular point group: c1
  Charge       = 0
  Multiplicity = 1
  Basis Set: AUG-CC-PVTZ
    Blend: AUG-CC-PVTZ
  Basis Set: (AUG-CC-PVTZ AUX)
    Blend: AUG-CC-PVTZ-JKFIT

    Orbital Energies [Eh]
    ---------------------

    Doubly Occupied:

       1A    -20.504025     2A    -15.573135     3A    -11.338186
       4A    -11.280969     5A    -11.236440     6A    -11.236273
       7A    -11.235162     8A    -11.234256     9A     -1.357559
      10A     -1.207491    11A     -1.095350    12A     -1.047608
      13A     -0.949328    14A     -0.884579    15A     -0.797748
      16A     -0.757626    17A     -0.678394    18A     -0.673204
      19A     -0.624655    20A     -0.619134    21A     -0.598876
      22A     -0.592193    23A     -0.565743    24A     -0.544984
      25A     -0.522681    26A     -0.514526    27A     -0.483606
      28A     -0.473946    29A     -0.468705    30A     -0.405291
      31A     -0.381981

  @DF-RHF Final Energy:  -363.06721504630195

   => Energetics <=

    Nuclear Repulsion Energy =            392.9889571811754649
    One-Electron Energy =               -1272.3450412062611576
    Two-Electron Energy =                 516.2888689787837393
    Total Energy =                       -363.0672150463019534
  Basis Set: (AUG-CC-PVTZ AUX)
    Blend: AUG-CC-PVTZ-RI
    Molecular point group: c1

    Geometry (in Angstrom), charge = 0, multiplicity = 1:

       Center              X                  Y                   Z               Mass
    ------------   -----------------  -----------------  -----------------  -----------------
         O           -2.475098377333     0.077480433939    -0.386719560062    15.994914619570
         N           -0.645735377333    -1.212691566061    -0.018988560062    14.003074004430
         C            1.904567622667     0.742942433939    -0.028346560062    12.000000000000
         C            1.785242622667    -0.740597566061    -0.374623560062    12.000000000000
         C            0.641488622667     1.574767433939    -0.253835560062    12.000000000000
         C            0.806626122667    -1.499469866061     0.455222139938    12.000000000000
         C           -0.559228377333     1.156001433939     0.608468439938    12.000000000000
         C           -1.320303377333    -0.023456566061     0.036740439938    12.000000000000
         H            2.723189622667     1.176710433939    -0.615731560062     1.007825032230
         H            2.201007622667     0.835204433939     1.025947439938     1.007825032230
         H            1.569072622667    -0.866684566061    -1.442393560062     1.007825032230
         H            2.752875622667    -1.222846566061    -0.183872560062     1.007825032230
         H            0.352877622667     1.541580433939    -1.312157560062     1.007825032230
         H            0.877364622667     2.621975433939    -0.031144560062     1.007825032230
         H            0.858895622667    -2.560329566061     0.322456439938     1.007825032230
         H            0.819064622667    -1.252320566061     1.494204439938     1.007825032230
         H           -1.289600377333     1.966198433939     0.667218439938     1.007825032230
         H           -0.225618377333     0.935215433939     1.631490439938     1.007825032230
         H           -1.182578377333    -1.964305566061    -0.436834560062     1.007825032230

  Basis Set: AUG-CC-PVTZ
    Blend: AUG-CC-PVTZ
  Basis Set: (AUG-CC-PVTZ AUX)
    Blend: AUG-CC-PVTZ-JKFIT
	 Reference Energy          =    -363.0672150463019534 [Eh]
	 Singles Energy            =      -0.0000000000000000 [Eh]
	 Same-Spin Energy          =      -0.3776781465467888 [Eh]
	 Opposite-Spin Energy      =      -1.2482838895182371 [Eh]
	 Correlation Energy        =      -1.6259620360650260 [Eh]
	 Total Energy              =    -364.6931770823669581 [Eh]

	 ================> DF-SCS-MP2 Energies <==================
	-----------------------------------------------------------
	 SCS Same-Spin Scale       =       0.3333333333333333 [-]
	 SCS Opposite-Spin Scale   =       1.2000000000000000 [-]
	 SCS Same-Spin Energy      =      -0.1258927155155962 [Eh]
	 SCS Opposite-Spin Energy  =      -1.4979406674218845 [Eh]
	 SCS Correlation Energy    =      -1.6238333829374807 [Eh]
	 SCS Total Energy          =    -364.6910484292394585 [Eh]
	-----------------------------------------------------------

  Dipole Moment: [D]
     X:     4.3755      Y:    -1.0931      Z:     0.9575     Total:     4.6105

*** Psi4 exiting successfully. Buy a developer a beer!
