                               Psi4 1.3.2 release

  ==> Input File <==

--------------------------------------------------------------------------
#psi4
#
memory 32 gb

molecule  {
0 1
  O       -2.5416370     0.0659770    -0.3927070
  N       -0.7122740    -1.2241950    -0.0249760
  C        1.8380290     0.7314390    -0.0343340
  C        1.6174904    -0.7335716    -0.4086920
  C        0.5749500     1.5632640    -0.2598230
  C        0.6466580    -1.4925250     0.4187290
  C       -0.6257670     1.1444980     0.6024810
  C       -1.3868420    -0.0349600     0.0307530
  H        2.6566510     1.1652070    -0.6217190
  H        2.1344690     0.8237010     1.0199600
  H        1.5025340    -0.8781880    -1.4483810
  H        2.6863370    -1.2343500    -0.1898600
  H        0.2863390     1.5300770    -1.3181450
  H        0.8108260     2.6104720    -0.0371320
  H        0.7923570    -2.5718330     0.3164690
  H        0.7525260    -1.2638240     1.4882170
  H       -1.3561390     1.9546950     0.6612310
  H       -0.2921570     0.9237120     1.6255030
  H       -1.2491170    -1.9758090    -0.4428220
units angstrom
no_reorient  #important for SAPT in psi4, default
symmetry c1  #important for SAPT in psi4, default
}

set PROPERTIES_ORIGIN ["COM"]
properties('MP2/aug-cc-pvtz', properties = ['dipole'])
--------------------------------------------------------------------------

    Molecular point group: c1
  Charge       = 0
  Multiplicity = 1
  Basis Set: AUG-CC-PVTZ
    Blend: AUG-CC-PVTZ
  Basis Set: (AUG-CC-PVTZ AUX)
    Blend: AUG-CC-PVTZ-JKFIT

    Orbital Energies [Eh]
    ---------------------

    Doubly Occupied:

       1A    -20.508702     2A    -15.576819     3A    -11.342890
       4A    -11.277196     5A    -11.237815     6A    -11.236272
       7A    -11.235056     8A    -11.234454     9A     -1.363309
      10A     -1.230831    11A     -1.095722    12A     -1.044823
      13A     -0.948509    14A     -0.885545    15A     -0.797789
      16A     -0.764118    17A     -0.688138    18A     -0.678931
      19A     -0.628578    20A     -0.616790    21A     -0.602402
      22A     -0.592376    23A     -0.561141    24A     -0.549514
      25A     -0.519731    26A     -0.516346    27A     -0.488392
      28A     -0.474839    29A     -0.451181    30A     -0.410172
      31A     -0.382631

  @DF-RHF Final Energy:  -363.06334162695759

   => Energetics <=

    Nuclear Repulsion Energy =            395.3840063560614340
    One-Electron Energy =               -1277.0126737788054925
    Two-Electron Energy =                 518.5653257957864071
    Total Energy =                       -363.0633416269575946
  Basis Set: (AUG-CC-PVTZ AUX)
    Blend: AUG-CC-PVTZ-RI
    Molecular point group: c1

    Geometry (in Angstrom), charge = 0, multiplicity = 1:

       Center              X                  Y                   Z               Mass
    ------------   -----------------  -----------------  -----------------  -----------------
         O           -2.454443679245     0.073556517656    -0.380502588587    15.994914619570
         N           -0.625080679245    -1.216615482344    -0.012771588587    14.003074004430
         C            1.925222320755     0.739018517656    -0.022129588587    12.000000000000
         C            1.704683720755    -0.725992082344    -0.396487588587    12.000000000000
         C            0.662143320755     1.570843517656    -0.247618588587    12.000000000000
         C            0.733851320755    -1.484945482344     0.430933411413    12.000000000000
         C           -0.538573679245     1.152077517656     0.614685411413    12.000000000000
         C           -1.299648679245    -0.027380482344     0.042957411413    12.000000000000
         H            2.743844320755     1.172786517656    -0.609514588587     1.007825032230
         H            2.221662320755     0.831280517656     1.032164411413     1.007825032230
         H            1.589727320755    -0.870608482344    -1.436176588587     1.007825032230
         H            2.773530320755    -1.226770482344    -0.177655588587     1.007825032230
         H            0.373532320755     1.537656517656    -1.305940588587     1.007825032230
         H            0.898019320755     2.618051517656    -0.024927588587     1.007825032230
         H            0.879550320755    -2.564253482344     0.328673411413     1.007825032230
         H            0.839719320755    -1.256244482344     1.500421411413     1.007825032230
         H           -1.268945679245     1.962274517656     0.673435411413     1.007825032230
         H           -0.204963679245     0.931291517656     1.637707411413     1.007825032230
         H           -1.161923679245    -1.968229482344    -0.430617588587     1.007825032230

  Basis Set: AUG-CC-PVTZ
    Blend: AUG-CC-PVTZ
  Basis Set: (AUG-CC-PVTZ AUX)
    Blend: AUG-CC-PVTZ-JKFIT
	 Reference Energy          =    -363.0633416269575946 [Eh]
	 Singles Energy            =      -0.0000000000000000 [Eh]
	 Same-Spin Energy          =      -0.3783488495959614 [Eh]
	 Opposite-Spin Energy      =      -1.2487901524253351 [Eh]
	 Correlation Energy        =      -1.6271390020212966 [Eh]
	 Total Energy              =    -364.6904806289788894 [Eh]

	 ================> DF-SCS-MP2 Energies <==================
	-----------------------------------------------------------
	 SCS Same-Spin Scale       =       0.3333333333333333 [-]
	 SCS Opposite-Spin Scale   =       1.2000000000000000 [-]
	 SCS Same-Spin Energy      =      -0.1261162831986538 [Eh]
	 SCS Opposite-Spin Energy  =      -1.4985481829104021 [Eh]
	 SCS Correlation Energy    =      -1.6246644661090559 [Eh]
	 SCS Total Energy          =    -364.6880060930666332 [Eh]
	-----------------------------------------------------------

  Dipole Moment: [D]
     X:     4.0401      Y:    -1.0296      Z:     0.8915     Total:     4.2635

*** Psi4 exiting successfully. Buy a developer a beer!
