                               Psi4 1.3.2 release

  ==> Input File <==

--------------------------------------------------------------------------
#psi4
#
memory 32 gb

molecule  {
0 1
  O       -2.5416370     0.0659770    -0.3927070
  N       -0.7122740    -1.2241950    -0.0249760
  C        1.8380290     0.7314390    -0.0343340
  C        1.7187040    -0.7521010    -0.3806110
  C        0.5749500     1.5632640    -0.2598230
  C        0.6466580    -1.4925250     0.4187290
  C       -0.6193855     1.0473462     0.5575179
  C       -1.3868420    -0.0349600     0.0307530
  H        2.6566510     1.1652070    -0.6217190
  H        2.1344690     0.8237010     1.0199600
  H        1.5025340    -0.8781880    -1.4483810
  H        2.6863370    -1.2343500    -0.1898600
  H        0.2863390     1.5300770    -1.3181450
  H        0.8108260     2.6104720    -0.0371320
  H        0.7923570    -2.5718330     0.3164690
  H        0.7525260    -1.2638240     1.4882170
  H       -1.3561390     1.9546950     0.6612310
  H       -0.2921570     0.9237120     1.6255030
  H       -1.2491170    -1.9758090    -0.4428220
units angstrom
no_reorient  #important for SAPT in psi4, default
symmetry c1  #important for SAPT in psi4, default
}

set PROPERTIES_ORIGIN ["COM"]
properties('MP2/aug-cc-pvtz', properties = ['dipole'])
--------------------------------------------------------------------------

    Molecular point group: c1
  Charge       = 0
  Multiplicity = 1
  Basis Set: AUG-CC-PVTZ
    Blend: AUG-CC-PVTZ
  Basis Set: (AUG-CC-PVTZ AUX)
    Blend: AUG-CC-PVTZ-JKFIT

    Orbital Energies [Eh]
    ---------------------

    Doubly Occupied:

       1A    -20.509690     2A    -15.577268     3A    -11.340301
       4A    -11.277167     5A    -11.239718     6A    -11.239125
       7A    -11.234498     8A    -11.232435     9A     -1.366148
      10A     -1.230195    11A     -1.095526    12A     -1.048140
      13A     -0.948253    14A     -0.895400    15A     -0.797411
      16A     -0.758481    17A     -0.691450    18A     -0.682738
      19A     -0.628808    20A     -0.612151    21A     -0.599778
      22A     -0.595761    23A     -0.565766    24A     -0.546107
      25A     -0.518160    26A     -0.508681    27A     -0.480335
      28A     -0.470060    29A     -0.458620    30A     -0.418088
      31A     -0.382503

  @DF-RHF Final Energy:  -363.06121347398511

   => Energetics <=

    Nuclear Repulsion Energy =            395.7964508851255232
    One-Electron Energy =               -1277.8178020459924937
    Two-Electron Energy =                 518.9601376868818079
    Total Energy =                       -363.0612134739851626
  Basis Set: (AUG-CC-PVTZ AUX)
    Blend: AUG-CC-PVTZ-RI
    Molecular point group: c1

    Geometry (in Angstrom), charge = 0, multiplicity = 1:

       Center              X                  Y                   Z               Mass
    ------------   -----------------  -----------------  -----------------  -----------------
         O           -2.465861213729     0.085832114687    -0.378711131923    15.994914619570
         N           -0.636498213729    -1.204339885313    -0.010980131923    14.003074004430
         C            1.913804786271     0.751294114687    -0.020338131923    12.000000000000
         C            1.794479786271    -0.732245885313    -0.366615131923    12.000000000000
         C            0.650725786271     1.583119114687    -0.245827131923    12.000000000000
         C            0.722433786271    -1.472669885313     0.432724868077    12.000000000000
         C           -0.543609713729     1.067201314687     0.571513768077    12.000000000000
         C           -1.311066213729    -0.015104885313     0.044748868077    12.000000000000
         H            2.732426786271     1.185062114687    -0.607723131923     1.007825032230
         H            2.210244786271     0.843556114687     1.033955868077     1.007825032230
         H            1.578309786271    -0.858332885313    -1.434385131923     1.007825032230
         H            2.762112786271    -1.214494885313    -0.175864131923     1.007825032230
         H            0.362114786271     1.549932114687    -1.304149131923     1.007825032230
         H            0.886601786271     2.630327114687    -0.023136131923     1.007825032230
         H            0.868132786271    -2.551977885313     0.330464868077     1.007825032230
         H            0.828301786271    -1.243968885313     1.502212868077     1.007825032230
         H           -1.280363213729     1.974550114687     0.675226868077     1.007825032230
         H           -0.216381213729     0.943567114687     1.639498868077     1.007825032230
         H           -1.173341213729    -1.955953885313    -0.428826131923     1.007825032230

  Basis Set: AUG-CC-PVTZ
    Blend: AUG-CC-PVTZ
  Basis Set: (AUG-CC-PVTZ AUX)
    Blend: AUG-CC-PVTZ-JKFIT
	 Reference Energy          =    -363.0612134739851058 [Eh]
	 Singles Energy            =      -0.0000000000000000 [Eh]
	 Same-Spin Energy          =      -0.3790946235951107 [Eh]
	 Opposite-Spin Energy      =      -1.2496878116453001 [Eh]
	 Correlation Energy        =      -1.6287824352404108 [Eh]
	 Total Energy              =    -364.6899959092255017 [Eh]

	 ================> DF-SCS-MP2 Energies <==================
	-----------------------------------------------------------
	 SCS Same-Spin Scale       =       0.3333333333333333 [-]
	 SCS Opposite-Spin Scale   =       1.2000000000000000 [-]
	 SCS Same-Spin Energy      =      -0.1263648745317036 [Eh]
	 SCS Opposite-Spin Energy  =      -1.4996253739743601 [Eh]
	 SCS Correlation Energy    =      -1.6259902485060638 [Eh]
	 SCS Total Energy          =    -364.6872037224911764 [Eh]
	-----------------------------------------------------------

  Dipole Moment: [D]
     X:     4.1272      Y:    -0.9823      Z:     0.9039     Total:     4.3377

*** Psi4 exiting successfully. Buy a developer a beer!
