                               Psi4 1.3.2 release

  ==> Input File <==

--------------------------------------------------------------------------
#psi4
#
memory 32 gb

molecule  {
0 1
  O       -2.5416370     0.0659770    -0.3927070
  N       -0.7122740    -1.2241950    -0.0249760
  C        1.8380290     0.7314390    -0.0343340
  C        1.7187040    -0.7521010    -0.3806110
  C        0.5749500     1.5632640    -0.2598230
  C        0.6523457    -1.3955782     0.4483233
  C       -0.6257670     1.1444980     0.6024810
  C       -1.3868420    -0.0349600     0.0307530
  H        2.6566510     1.1652070    -0.6217190
  H        2.1344690     0.8237010     1.0199600
  H        1.5025340    -0.8781880    -1.4483810
  H        2.6863370    -1.2343500    -0.1898600
  H        0.2863390     1.5300770    -1.3181450
  H        0.8108260     2.6104720    -0.0371320
  H        0.7923570    -2.5718330     0.3164690
  H        0.7525260    -1.2638240     1.4882170
  H       -1.3561390     1.9546950     0.6612310
  H       -0.2921570     0.9237120     1.6255030
  H       -1.2491170    -1.9758090    -0.4428220
units angstrom
no_reorient  #important for SAPT in psi4, default
symmetry c1  #important for SAPT in psi4, default
}

set PROPERTIES_ORIGIN ["COM"]
properties('MP2/aug-cc-pvtz', properties = ['dipole'])
--------------------------------------------------------------------------

    Molecular point group: c1
  Charge       = 0
  Multiplicity = 1
  Basis Set: AUG-CC-PVTZ
    Blend: AUG-CC-PVTZ
  Basis Set: (AUG-CC-PVTZ AUX)
    Blend: AUG-CC-PVTZ-JKFIT

    Orbital Energies [Eh]
    ---------------------

    Doubly Occupied:

       1A    -20.508735     2A    -15.579806     3A    -11.341149
       4A    -11.280048     5A    -11.237182     6A    -11.236482
       7A    -11.234094     8A    -11.231973     9A     -1.363436
      10A     -1.229922    11A     -1.096842    12A     -1.044577
      13A     -0.945648    14A     -0.884714    15A     -0.799569
      16A     -0.765591    17A     -0.693028    18A     -0.672914
      19A     -0.632338    20A     -0.615253    21A     -0.601963
      22A     -0.580090    23A     -0.569685    24A     -0.549826
      25A     -0.521763    26A     -0.513928    27A     -0.482074
      28A     -0.473248    29A     -0.456934    30A     -0.409074
      31A     -0.386997

  @DF-RHF Final Energy:  -363.06362691341440

   => Energetics <=

    Nuclear Repulsion Energy =            395.1706531786193182
    One-Electron Energy =               -1276.5907954916253857
    Two-Electron Energy =                 518.3565153995916717
    Total Energy =                       -363.0636269134143959
  Basis Set: (AUG-CC-PVTZ AUX)
    Blend: AUG-CC-PVTZ-RI
    Molecular point group: c1

    Geometry (in Angstrom), charge = 0, multiplicity = 1:

       Center              X                  Y                   Z               Mass
    ------------   -----------------  -----------------  -----------------  -----------------
         O           -2.465787590623     0.065235196624    -0.386622846169    15.994914619570
         N           -0.636424590623    -1.224936803376    -0.018891846169    14.003074004430
         C            1.913878409377     0.730697196624    -0.028249846169    12.000000000000
         C            1.794553409377    -0.752842803376    -0.374526846169    12.000000000000
         C            0.650799409377     1.562522196624    -0.253738846169    12.000000000000
         C            0.728195109377    -1.396320003376     0.454407453831    12.000000000000
         C           -0.549917590623     1.143756196624     0.608565153831    12.000000000000
         C           -1.310992590623    -0.035701803376     0.036837153831    12.000000000000
         H            2.732500409377     1.164465196624    -0.615634846169     1.007825032230
         H            2.210318409377     0.822959196624     1.026044153831     1.007825032230
         H            1.578383409377    -0.878929803376    -1.442296846169     1.007825032230
         H            2.762186409377    -1.235091803376    -0.183775846169     1.007825032230
         H            0.362188409377     1.529335196624    -1.312060846169     1.007825032230
         H            0.886675409377     2.609730196624    -0.031047846169     1.007825032230
         H            0.868206409377    -2.572574803376     0.322553153831     1.007825032230
         H            0.828375409377    -1.264565803376     1.494301153831     1.007825032230
         H           -1.280289590623     1.953953196624     0.667315153831     1.007825032230
         H           -0.216307590623     0.922970196624     1.631587153831     1.007825032230
         H           -1.173267590623    -1.976550803376    -0.436737846169     1.007825032230

  Basis Set: AUG-CC-PVTZ
    Blend: AUG-CC-PVTZ
  Basis Set: (AUG-CC-PVTZ AUX)
    Blend: AUG-CC-PVTZ-JKFIT
	 Reference Energy          =    -363.0636269134143959 [Eh]
	 Singles Energy            =      -0.0000000000000000 [Eh]
	 Same-Spin Energy          =      -0.3783899082703214 [Eh]
	 Opposite-Spin Energy      =      -1.2488309880933524 [Eh]
	 Correlation Energy        =      -1.6272208963636738 [Eh]
	 Total Energy              =    -364.6908478097780630 [Eh]

	 ================> DF-SCS-MP2 Energies <==================
	-----------------------------------------------------------
	 SCS Same-Spin Scale       =       0.3333333333333333 [-]
	 SCS Opposite-Spin Scale   =       1.2000000000000000 [-]
	 SCS Same-Spin Energy      =      -0.1261299694234405 [Eh]
	 SCS Opposite-Spin Energy  =      -1.4985971857120228 [Eh]
	 SCS Correlation Energy    =      -1.6247271551354632 [Eh]
	 SCS Total Energy          =    -364.6883540685498701 [Eh]
	-----------------------------------------------------------

  Dipole Moment: [D]
     X:     4.0782      Y:    -0.9487      Z:     0.9108     Total:     4.2850

*** Psi4 exiting successfully. Buy a developer a beer!
