                               Psi4 1.3.2 release

  ==> Input File <==

--------------------------------------------------------------------------
#psi4
#
memory 32 gb

molecule  {
0 1
  O       -2.5416370     0.0659770    -0.3927070
  N       -0.7122740    -1.2241950    -0.0249760
  C        1.8380290     0.7314390    -0.0343340
  C        1.7187040    -0.7521010    -0.3806110
  C        0.5749500     1.5632640    -0.2598230
  C        0.6466580    -1.4925250     0.4187290
  C       -0.6257670     1.1444980     0.6024810
  C       -1.3868420    -0.0349600     0.0307530
  H        2.6566510     1.1652070    -0.6217190
  H        2.1344690     0.8237010     1.0199600
  H        1.5689600    -0.9157109    -1.4546542
  H        2.6863370    -1.2343500    -0.1898600
  H        0.2863390     1.5300770    -1.3181450
  H        0.8108260     2.6104720    -0.0371320
  H        0.7923570    -2.5718330     0.3164690
  H        0.7525260    -1.2638240     1.4882170
  H       -1.3561390     1.9546950     0.6612310
  H       -0.2921570     0.9237120     1.6255030
  H       -1.2491170    -1.9758090    -0.4428220
units angstrom
no_reorient  #important for SAPT in psi4, default
symmetry c1  #important for SAPT in psi4, default
}

set PROPERTIES_ORIGIN ["COM"]
properties('MP2/aug-cc-pvtz', properties = ['dipole'])
--------------------------------------------------------------------------

    Molecular point group: c1
  Charge       = 0
  Multiplicity = 1
  Basis Set: AUG-CC-PVTZ
    Blend: AUG-CC-PVTZ
  Basis Set: (AUG-CC-PVTZ AUX)
    Blend: AUG-CC-PVTZ-JKFIT

    Orbital Energies [Eh]
    ---------------------

    Doubly Occupied:

       1A    -20.508902     2A    -15.578464     3A    -11.342892
       4A    -11.277799     5A    -11.236533     6A    -11.235870
       7A    -11.234277     8A    -11.233447     9A     -1.363294
      10A     -1.228045    11A     -1.093728    12A     -1.042063
      13A     -0.945425    14A     -0.888889    15A     -0.796260
      16A     -0.764076    17A     -0.686587    18A     -0.676811
      19A     -0.627519    20A     -0.611390    21A     -0.601094
      22A     -0.591289    23A     -0.569707    24A     -0.545780
      25A     -0.519234    26A     -0.515224    27A     -0.481286
      28A     -0.470754    29A     -0.469101    30A     -0.410442
      31A     -0.382679

  @DF-RHF Final Energy:  -363.07499971650782

   => Energetics <=

    Nuclear Repulsion Energy =            393.9493816249186580
    One-Electron Energy =               -1274.1910333961482138
    Two-Electron Energy =                 517.1666520547216805
    Total Energy =                       -363.0749997165078184
  Basis Set: (AUG-CC-PVTZ AUX)
    Blend: AUG-CC-PVTZ-RI
    Molecular point group: c1

    Geometry (in Angstrom), charge = 0, multiplicity = 1:

       Center              X                  Y                   Z               Mass
    ------------   -----------------  -----------------  -----------------  -----------------
         O           -2.465776036259     0.075857189464    -0.383426517038    15.994914619570
         N           -0.636413036259    -1.214314810536    -0.015695517038    14.003074004430
         C            1.913889963741     0.741319189464    -0.025053517038    12.000000000000
         C            1.794564963741    -0.742220810536    -0.371330517038    12.000000000000
         C            0.650810963741     1.573144189464    -0.250542517038    12.000000000000
         C            0.722518963741    -1.482644810536     0.428009482962    12.000000000000
         C           -0.549906036259     1.154378189464     0.611761482962    12.000000000000
         C           -1.310981036259    -0.025079810536     0.040033482962    12.000000000000
         H            2.732511963741     1.175087189464    -0.612438517038     1.007825032230
         H            2.210329963741     0.833581189464     1.029240482962     1.007825032230
         H            1.644820963741    -0.905830710536    -1.445373717038     1.007825032230
         H            2.762197963741    -1.224469810536    -0.180579517038     1.007825032230
         H            0.362199963741     1.539957189464    -1.308864517038     1.007825032230
         H            0.886686963741     2.620352189464    -0.027851517038     1.007825032230
         H            0.868217963741    -2.561952810536     0.325749482962     1.007825032230
         H            0.828386963741    -1.253943810536     1.497497482962     1.007825032230
         H           -1.280278036259     1.964575189464     0.670511482962     1.007825032230
         H           -0.216296036259     0.933592189464     1.634783482962     1.007825032230
         H           -1.173256036259    -1.965928810536    -0.433541517038     1.007825032230

  Basis Set: AUG-CC-PVTZ
    Blend: AUG-CC-PVTZ
  Basis Set: (AUG-CC-PVTZ AUX)
    Blend: AUG-CC-PVTZ-JKFIT
	 Reference Energy          =    -363.0749997165078184 [Eh]
	 Singles Energy            =      -0.0000000000000000 [Eh]
	 Same-Spin Energy          =      -0.3776914474596147 [Eh]
	 Opposite-Spin Energy      =      -1.2475828477070245 [Eh]
	 Correlation Energy        =      -1.6252742951666392 [Eh]
	 Total Energy              =    -364.7002740116744803 [Eh]

	 ================> DF-SCS-MP2 Energies <==================
	-----------------------------------------------------------
	 SCS Same-Spin Scale       =       0.3333333333333333 [-]
	 SCS Opposite-Spin Scale   =       1.2000000000000000 [-]
	 SCS Same-Spin Energy      =      -0.1258971491532049 [Eh]
	 SCS Opposite-Spin Energy  =      -1.4970994172484293 [Eh]
	 SCS Correlation Energy    =      -1.6229965664016341 [Eh]
	 SCS Total Energy          =    -364.6979962829094575 [Eh]
	-----------------------------------------------------------

  Dipole Moment: [D]
     X:     4.0931      Y:    -1.0484      Z:     0.8860     Total:     4.3171

*** Psi4 exiting successfully. Buy a developer a beer!
