                               Psi4 1.3.2 release

  ==> Input File <==

--------------------------------------------------------------------------
#psi4
#
memory 32 gb

molecule  {
0 1
  O       -2.5416370     0.0659770    -0.3927070
  N       -0.7122740    -1.2241950    -0.0249760
  C        1.8380290     0.7314390    -0.0343340
  C        1.7187040    -0.7521010    -0.3806110
  C        0.5749500     1.5632640    -0.2598230
  C        0.6466580    -1.4925250     0.4187290
  C       -0.6257670     1.1444980     0.6024810
  C       -1.4726261     0.0268501     0.0272227
  H        2.6566510     1.1652070    -0.6217190
  H        2.1344690     0.8237010     1.0199600
  H        1.5025340    -0.8781880    -1.4483810
  H        2.6863370    -1.2343500    -0.1898600
  H        0.2863390     1.5300770    -1.3181450
  H        0.8108260     2.6104720    -0.0371320
  H        0.7923570    -2.5718330     0.3164690
  H        0.7525260    -1.2638240     1.4882170
  H       -1.3561390     1.9546950     0.6612310
  H       -0.2921570     0.9237120     1.6255030
  H       -1.2491170    -1.9758090    -0.4428220
units angstrom
no_reorient  #important for SAPT in psi4, default
symmetry c1  #important for SAPT in psi4, default
}

set PROPERTIES_ORIGIN ["COM"]
properties('MP2/aug-cc-pvtz', properties = ['dipole'])
--------------------------------------------------------------------------

    Molecular point group: c1
  Charge       = 0
  Multiplicity = 1
  Basis Set: AUG-CC-PVTZ
    Blend: AUG-CC-PVTZ
  Basis Set: (AUG-CC-PVTZ AUX)
    Blend: AUG-CC-PVTZ-JKFIT

    Orbital Energies [Eh]
    ---------------------

    Doubly Occupied:

       1A    -20.532117     2A    -15.556955     3A    -11.344770
       4A    -11.266428     5A    -11.236949     6A    -11.236314
       7A    -11.229825     8A    -11.226660     9A     -1.427887
      10A     -1.201269    11A     -1.088029    12A     -1.036559
      13A     -0.937111    14A     -0.878132    15A     -0.789458
      16A     -0.745881    17A     -0.687168    18A     -0.681441
      19A     -0.627463    20A     -0.616241    21A     -0.598429
      22A     -0.596537    23A     -0.576195    24A     -0.551652
      25A     -0.530550    26A     -0.513698    27A     -0.477134
      28A     -0.473034    29A     -0.465939    30A     -0.414894
      31A     -0.373894

  @DF-RHF Final Energy:  -363.06377559132613

   => Energetics <=

    Nuclear Repulsion Energy =            393.6967855797273046
    One-Electron Energy =               -1273.6839010573098676
    Two-Electron Energy =                 516.9233398862564854
    Total Energy =                       -363.0637755913261344
  Basis Set: (AUG-CC-PVTZ AUX)
    Blend: AUG-CC-PVTZ-RI
    Molecular point group: c1

    Geometry (in Angstrom), charge = 0, multiplicity = 1:

       Center              X                  Y                   Z               Mass
    ------------   -----------------  -----------------  -----------------  -----------------
         O           -2.456080992174     0.068963753816    -0.383107804473    15.994914619570
         N           -0.626717992174    -1.221208246184    -0.015376804473    14.003074004430
         C            1.923585007826     0.734425753816    -0.024734804473    12.000000000000
         C            1.804260007826    -0.749114246184    -0.371011804473    12.000000000000
         C            0.660506007826     1.566250753816    -0.250223804473    12.000000000000
         C            0.732214007826    -1.489538246184     0.428328195527    12.000000000000
         C           -0.540210992174     1.147484753816     0.612080195527    12.000000000000
         C           -1.387070092174     0.029836853816     0.036821895527    12.000000000000
         H            2.742207007826     1.168193753816    -0.612119804473     1.007825032230
         H            2.220025007826     0.826687753816     1.029559195527     1.007825032230
         H            1.588090007826    -0.875201246184    -1.438781804473     1.007825032230
         H            2.771893007826    -1.231363246184    -0.180260804473     1.007825032230
         H            0.371895007826     1.533063753816    -1.308545804473     1.007825032230
         H            0.896382007826     2.613458753816    -0.027532804473     1.007825032230
         H            0.877913007826    -2.568846246184     0.326068195527     1.007825032230
         H            0.838082007826    -1.260837246184     1.497816195527     1.007825032230
         H           -1.270582992174     1.957681753816     0.670830195527     1.007825032230
         H           -0.206600992174     0.926698753816     1.635102195527     1.007825032230
         H           -1.163560992174    -1.972822246184    -0.433222804473     1.007825032230

  Basis Set: AUG-CC-PVTZ
    Blend: AUG-CC-PVTZ
  Basis Set: (AUG-CC-PVTZ AUX)
    Blend: AUG-CC-PVTZ-JKFIT
	 Reference Energy          =    -363.0637755913261344 [Eh]
	 Singles Energy            =      -0.0000000000000000 [Eh]
	 Same-Spin Energy          =      -0.3764513398758362 [Eh]
	 Opposite-Spin Energy      =      -1.2452508385778038 [Eh]
	 Correlation Energy        =      -1.6217021784536401 [Eh]
	 Total Energy              =    -364.6854777697797658 [Eh]

	 ================> DF-SCS-MP2 Energies <==================
	-----------------------------------------------------------
	 SCS Same-Spin Scale       =       0.3333333333333333 [-]
	 SCS Opposite-Spin Scale   =       1.2000000000000000 [-]
	 SCS Same-Spin Energy      =      -0.1254837799586120 [Eh]
	 SCS Opposite-Spin Energy  =      -1.4943010062933646 [Eh]
	 SCS Correlation Energy    =      -1.6197847862519765 [Eh]
	 SCS Total Energy          =    -364.6835603775780896 [Eh]
	-----------------------------------------------------------

  Dipole Moment: [D]
     X:     3.2177      Y:    -0.4532      Z:     0.7657     Total:     3.3384

*** Psi4 exiting successfully. Buy a developer a beer!
