                               Psi4 1.4a3.dev225

  ==> Input File <==

--------------------------------------------------------------------------
#psi4
#
memory 32 gb

molecule  {
0 1
  O       -2.5416370     0.0659770    -0.3927070
  N       -0.7122740    -1.2241950    -0.0249760
  C        1.8380290     0.7314390    -0.0343340
  C        1.7187040    -0.7521010    -0.3806110
  C        0.5749500     1.5632640    -0.2598230
  C        0.6933727    -1.5017491     0.4339818
  C       -0.6257670     1.1444980     0.6024810
  C       -1.3868420    -0.0349600     0.0307530
  H        2.6566510     1.1652070    -0.6217190
  H        2.1344690     0.8237010     1.0199600
  H        1.5025340    -0.8781880    -1.4483810
  H        2.6863370    -1.2343500    -0.1898600
  H        0.2863390     1.5300770    -1.3181450
  H        0.8108260     2.6104720    -0.0371320
  H        0.7923570    -2.5718330     0.3164690
  H        0.7525260    -1.2638240     1.4882170
  H       -1.3561390     1.9546950     0.6612310
  H       -0.2921570     0.9237120     1.6255030
  H       -1.2491170    -1.9758090    -0.4428220
units angstrom
no_reorient  #important for SAPT in psi4, default
symmetry c1  #important for SAPT in psi4, default
}

set PROPERTIES_ORIGIN ["COM"]
properties('MP2/aug-cc-pvtz', properties = ['dipole'])
--------------------------------------------------------------------------

    Molecular point group: c1
  Charge       = 0
  Multiplicity = 1
  Basis Set: AUG-CC-PVTZ
    Blend: AUG-CC-PVTZ
  Basis Set: (AUG-CC-PVTZ AUX)
    Blend: AUG-CC-PVTZ-JKFIT

    Orbital Energies [Eh]
    ---------------------

    Doubly Occupied:

       1A    -20.506543     2A    -15.576186     3A    -11.340655
       4A    -11.278729     5A    -11.236480     6A    -11.235257
       7A    -11.235155     8A    -11.234090     9A     -1.360446
      10A     -1.217219    11A     -1.094564    12A     -1.044918
      13A     -0.947443    14A     -0.886270    15A     -0.796407
      16A     -0.760810    17A     -0.681578    18A     -0.675895
      19A     -0.624876    20A     -0.615362    21A     -0.600213
      22A     -0.592357    23A     -0.567753    24A     -0.544891
      25A     -0.521170    26A     -0.516133    27A     -0.482471
      28A     -0.472112    29A     -0.469689    30A     -0.408032
      31A     -0.382947

  @DF-RHF Final Energy:  -363.07332510468046

   => Energetics <=

    Nuclear Repulsion Energy =            393.5289601955432772
    One-Electron Energy =               -1273.3912700857365508
    Two-Electron Energy =                 516.7889847855128664
    Total Energy =                       -363.0733251046804071
  Basis Set: (AUG-CC-PVTZ AUX)
    Blend: AUG-CC-PVTZ-RI
    Molecular point group: c1

    Geometry (in Angstrom), charge = 0, multiplicity = 1:

       Center              X                  Y                   Z               Mass
    ------------   -----------------  -----------------  -----------------  -----------------
         O           -2.470141201403     0.076501601060    -0.385100987174    15.994914619570
         N           -0.640778201403    -1.213670398940    -0.017369987174    14.003074004430
         C            1.909524798597     0.741963601060    -0.026727987174    12.000000000000
         C            1.790199798597    -0.741576398940    -0.373004987174    12.000000000000
         C            0.646445798597     1.573788601060    -0.252216987174    12.000000000000
         C            0.764868498597    -1.491224498940     0.441587812826    12.000000000000
         C           -0.554271201403     1.155022601060     0.610087012826    12.000000000000
         C           -1.315346201403    -0.024435398940     0.038359012826    12.000000000000
         H            2.728146798597     1.175731601060    -0.614112987174     1.007825032230
         H            2.205964798597     0.834225601060     1.027566012826     1.007825032230
         H            1.574029798597    -0.867663398940    -1.440774987174     1.007825032230
         H            2.757832798597    -1.223825398940    -0.182253987174     1.007825032230
         H            0.357834798597     1.540601601060    -1.310538987174     1.007825032230
         H            0.882321798597     2.620996601060    -0.029525987174     1.007825032230
         H            0.863852798597    -2.561308398940     0.324075012826     1.007825032230
         H            0.824021798597    -1.253299398940     1.495823012826     1.007825032230
         H           -1.284643201403     1.965219601060     0.668837012826     1.007825032230
         H           -0.220661201403     0.934236601060     1.633109012826     1.007825032230
         H           -1.177621201403    -1.965284398940    -0.435215987174     1.007825032230

  Basis Set: AUG-CC-PVTZ
    Blend: AUG-CC-PVTZ
  Basis Set: (AUG-CC-PVTZ AUX)
    Blend: AUG-CC-PVTZ-JKFIT
	 Reference Energy          =    -363.0733251046804639 [Eh]
	 Singles Energy            =      -0.0000000000000000 [Eh]
	 Same-Spin Energy          =      -0.3776109772627765 [Eh]
	 Opposite-Spin Energy      =      -1.2478318631893461 [Eh]
	 Correlation Energy        =      -1.6254428404521226 [Eh]
	 Total Energy              =    -364.6987679451326017 [Eh]

	 ================> DF-SCS-MP2 Energies <==================
	-----------------------------------------------------------
	 SCS Same-Spin Scale       =       0.3333333333333333 [-]
	 SCS Opposite-Spin Scale   =       1.2000000000000000 [-]
	 SCS Same-Spin Energy      =      -0.1258703257542588 [Eh]
	 SCS Opposite-Spin Energy  =      -1.4973982358272153 [Eh]
	 SCS Correlation Energy    =      -1.6232685615814741 [Eh]
	 SCS Total Energy          =    -364.6965936662619470 [Eh]
	-----------------------------------------------------------

  Dipole Moment: [D]
     X:     4.2255      Y:    -1.0655      Z:     0.9292     Total:     4.4557

*** Psi4 exiting successfully. Buy a developer a beer!
