                               Psi4 1.3.2 release

  ==> Input File <==

--------------------------------------------------------------------------
#psi4
#
memory 32 gb

molecule  {
0 1
  O       -2.5416370     0.0659770    -0.3927070
  N       -0.8310848    -1.2802904    -0.0820023
  C        1.8380290     0.7314390    -0.0343340
  C        1.7187040    -0.7521010    -0.3806110
  C        0.5749500     1.5632640    -0.2598230
  C        0.6466580    -1.4925250     0.4187290
  C       -0.6257670     1.1444980     0.6024810
  C       -1.3868420    -0.0349600     0.0307530
  H        2.6566510     1.1652070    -0.6217190
  H        2.1344690     0.8237010     1.0199600
  H        1.5025340    -0.8781880    -1.4483810
  H        2.6863370    -1.2343500    -0.1898600
  H        0.2863390     1.5300770    -1.3181450
  H        0.8108260     2.6104720    -0.0371320
  H        0.7923570    -2.5718330     0.3164690
  H        0.7525260    -1.2638240     1.4882170
  H       -1.3561390     1.9546950     0.6612310
  H       -0.2921570     0.9237120     1.6255030
  H       -1.2491170    -1.9758090    -0.4428220
units angstrom
no_reorient  #important for SAPT in psi4, default
symmetry c1  #important for SAPT in psi4, default
}

set PROPERTIES_ORIGIN ["COM"]
properties('MP2/aug-cc-pvtz', properties = ['dipole'])
--------------------------------------------------------------------------

    Molecular point group: c1
  Charge       = 0
  Multiplicity = 1
  Basis Set: AUG-CC-PVTZ
    Blend: AUG-CC-PVTZ
  Basis Set: (AUG-CC-PVTZ AUX)
    Blend: AUG-CC-PVTZ-JKFIT

    Orbital Energies [Eh]
    ---------------------

    Doubly Occupied:

       1A    -20.501210     2A    -15.567194     3A    -11.340637
       4A    -11.283565     5A    -11.241968     6A    -11.238645
       7A    -11.238223     8A    -11.234975     9A     -1.362251
      10A     -1.212033    11A     -1.100041    12A     -1.040257
      13A     -0.953726    14A     -0.879755    15A     -0.804414
      16A     -0.787928    17A     -0.679768    18A     -0.667115
      19A     -0.633884    20A     -0.610545    21A     -0.599751
      22A     -0.584004    23A     -0.572617    24A     -0.540699
      25A     -0.525213    26A     -0.511675    27A     -0.483592
      28A     -0.473836    29A     -0.469427    30A     -0.405418
      31A     -0.383134

  @DF-RHF Final Energy:  -363.04841418977560

   => Energetics <=

    Nuclear Repulsion Energy =            392.2905613069434594
    One-Electron Energy =               -1270.8229517437225695
    Two-Electron Energy =                 515.4839762470035112
    Total Energy =                       -363.0484141897755990
  Basis Set: (AUG-CC-PVTZ AUX)
    Blend: AUG-CC-PVTZ-RI
    Molecular point group: c1

    Geometry (in Angstrom), charge = 0, multiplicity = 1:

       Center              X                  Y                   Z               Mass
    ------------   -----------------  -----------------  -----------------  -----------------
         O           -2.450471826721     0.082469009851    -0.376420921526    15.994914619570
         N           -0.739919626721    -1.263798390149    -0.065716221526    14.003074004430
         C            1.929194173279     0.747931009851    -0.018047921526    12.000000000000
         C            1.809869173279    -0.735608990149    -0.364324921526    12.000000000000
         C            0.666115173279     1.579756009851    -0.243536921526    12.000000000000
         C            0.737823173279    -1.476032990149     0.435015078474    12.000000000000
         C           -0.534601826721     1.160990009851     0.618767078474    12.000000000000
         C           -1.295676826721    -0.018467990149     0.047039078474    12.000000000000
         H            2.747816173279     1.181699009851    -0.605432921526     1.007825032230
         H            2.225634173279     0.840193009851     1.036246078474     1.007825032230
         H            1.593699173279    -0.861695990149    -1.432094921526     1.007825032230
         H            2.777502173279    -1.217857990149    -0.173573921526     1.007825032230
         H            0.377504173279     1.546569009851    -1.301858921526     1.007825032230
         H            0.901991173279     2.626964009851    -0.020845921526     1.007825032230
         H            0.883522173279    -2.555340990149     0.332755078474     1.007825032230
         H            0.843691173279    -1.247331990149     1.504503078474     1.007825032230
         H           -1.264973826721     1.971187009851     0.677517078474     1.007825032230
         H           -0.200991826721     0.940204009851     1.641789078474     1.007825032230
         H           -1.157951826721    -1.959316990149    -0.426535921526     1.007825032230

  Basis Set: AUG-CC-PVTZ
    Blend: AUG-CC-PVTZ
  Basis Set: (AUG-CC-PVTZ AUX)
    Blend: AUG-CC-PVTZ-JKFIT
	 Reference Energy          =    -363.0484141897755990 [Eh]
	 Singles Energy            =      -0.0000000000000000 [Eh]
	 Same-Spin Energy          =      -0.3763751316031664 [Eh]
	 Opposite-Spin Energy      =      -1.2468073713842764 [Eh]
	 Correlation Energy        =      -1.6231825029874427 [Eh]
	 Total Energy              =    -364.6715966927630461 [Eh]

	 ================> DF-SCS-MP2 Energies <==================
	-----------------------------------------------------------
	 SCS Same-Spin Scale       =       0.3333333333333333 [-]
	 SCS Opposite-Spin Scale   =       1.2000000000000000 [-]
	 SCS Same-Spin Energy      =      -0.1254583772010555 [Eh]
	 SCS Opposite-Spin Energy  =      -1.4961688456611317 [Eh]
	 SCS Correlation Energy    =      -1.6216272228621871 [Eh]
	 SCS Total Energy          =    -364.6700414126377723 [Eh]
	-----------------------------------------------------------

  Dipole Moment: [D]
     X:     4.3035      Y:    -0.8547      Z:     0.9698     Total:     4.4935

*** Psi4 exiting successfully. Buy a developer a beer!
