                               Psi4 1.3.2 release

  ==> Input File <==

--------------------------------------------------------------------------
#psi4
#
memory 32 gb

molecule  {
0 1
  O       -2.5416370     0.0659770    -0.3927070
  N       -0.7122740    -1.2241950    -0.0249760
  C        1.8380290     0.7314390    -0.0343340
  C        1.7187040    -0.7521010    -0.3806110
  C        0.5749500     1.5632640    -0.2598230
  C        0.6466580    -1.4925250     0.4187290
  C       -0.6257670     1.1444980     0.6024810
  C       -1.3868420    -0.0349600     0.0307530
  H        2.6566510     1.1652070    -0.6217190
  H        2.1344690     0.8237010     1.0199600
  H        1.5190543    -0.8876335    -1.4504386
  H        2.6863370    -1.2343500    -0.1898600
  H        0.2863390     1.5300770    -1.3181450
  H        0.8108260     2.6104720    -0.0371320
  H        0.7923570    -2.5718330     0.3164690
  H        0.7525260    -1.2638240     1.4882170
  H       -1.3561390     1.9546950     0.6612310
  H       -0.2921570     0.9237120     1.6255030
  H       -1.2491170    -1.9758090    -0.4428220
units angstrom
no_reorient  #important for SAPT in psi4, default
symmetry c1  #important for SAPT in psi4, default
}

set PROPERTIES_ORIGIN ["COM"]
properties('MP2/aug-cc-pvtz', properties = ['dipole'])
--------------------------------------------------------------------------

    Molecular point group: c1
  Charge       = 0
  Multiplicity = 1
  Basis Set: AUG-CC-PVTZ
    Blend: AUG-CC-PVTZ
  Basis Set: (AUG-CC-PVTZ AUX)
    Blend: AUG-CC-PVTZ-JKFIT

    Orbital Energies [Eh]
    ---------------------

    Doubly Occupied:

       1A    -20.509024     2A    -15.578621     3A    -11.343002
       4A    -11.277453     5A    -11.236629     6A    -11.235940
       7A    -11.234337     8A    -11.233152     9A     -1.363417
      10A     -1.228211    11A     -1.093908    12A     -1.042155
      13A     -0.945414    14A     -0.888626    15A     -0.795644
      16A     -0.764046    17A     -0.687555    18A     -0.676842
      19A     -0.626520    20A     -0.611747    21A     -0.601682
      22A     -0.591702    23A     -0.569941    24A     -0.545324
      25A     -0.519321    26A     -0.515734    27A     -0.481237
      28A     -0.470662    29A     -0.469381    30A     -0.410555
      31A     -0.382739

  @DF-RHF Final Energy:  -363.07547484758811

   => Energetics <=

    Nuclear Repulsion Energy =            394.0515284082463836
    One-Electron Energy =               -1274.3929666686153723
    Two-Electron Energy =                 517.2659634127808204
    Total Energy =                       -363.0754748475881115
  Basis Set: (AUG-CC-PVTZ AUX)
    Blend: AUG-CC-PVTZ-RI
    Molecular point group: c1

    Geometry (in Angstrom), charge = 0, multiplicity = 1:

       Center              X                  Y                   Z               Mass
    ------------   -----------------  -----------------  -----------------  -----------------
         O           -2.465331267899     0.075606958746    -0.383464087205    15.994914619570
         N           -0.635968267899    -1.214565041254    -0.015733087205    14.003074004430
         C            1.914334732101     0.741068958746    -0.025091087205    12.000000000000
         C            1.795009732101    -0.742471041254    -0.371368087205    12.000000000000
         C            0.651255732101     1.572893958746    -0.250580087205    12.000000000000
         C            0.722963732101    -1.482895041254     0.427971912795    12.000000000000
         C           -0.549461267899     1.154127958746     0.611723912795    12.000000000000
         C           -1.310536267899    -0.025330041254     0.039995912795    12.000000000000
         H            2.732956732101     1.174836958746    -0.612476087205     1.007825032230
         H            2.210774732101     0.833330958746     1.029202912795     1.007825032230
         H            1.595360032101    -0.878003541254    -1.441195687205     1.007825032230
         H            2.762642732101    -1.224720041254    -0.180617087205     1.007825032230
         H            0.362644732101     1.539706958746    -1.308902087205     1.007825032230
         H            0.887131732101     2.620101958746    -0.027889087205     1.007825032230
         H            0.868662732101    -2.562203041254     0.325711912795     1.007825032230
         H            0.828831732101    -1.254194041254     1.497459912795     1.007825032230
         H           -1.279833267899     1.964324958746     0.670473912795     1.007825032230
         H           -0.215851267899     0.933341958746     1.634745912795     1.007825032230
         H           -1.172811267899    -1.966179041254    -0.433579087205     1.007825032230

  Basis Set: AUG-CC-PVTZ
    Blend: AUG-CC-PVTZ
  Basis Set: (AUG-CC-PVTZ AUX)
    Blend: AUG-CC-PVTZ-JKFIT
	 Reference Energy          =    -363.0754748475881115 [Eh]
	 Singles Energy            =      -0.0000000000000000 [Eh]
	 Same-Spin Energy          =      -0.3777104423609375 [Eh]
	 Opposite-Spin Energy      =      -1.2476337988238606 [Eh]
	 Correlation Energy        =      -1.6253442411847980 [Eh]
	 Total Energy              =    -364.7008190887729029 [Eh]

	 ================> DF-SCS-MP2 Energies <==================
	-----------------------------------------------------------
	 SCS Same-Spin Scale       =       0.3333333333333333 [-]
	 SCS Opposite-Spin Scale   =       1.2000000000000000 [-]
	 SCS Same-Spin Energy      =      -0.1259034807869792 [Eh]
	 SCS Opposite-Spin Energy  =      -1.4971605585886327 [Eh]
	 SCS Correlation Energy    =      -1.6230640393756119 [Eh]
	 SCS Total Energy          =    -364.6985388869637177 [Eh]
	-----------------------------------------------------------

  Dipole Moment: [D]
     X:     4.0773      Y:    -1.0392      Z:     0.8933     Total:     4.3014

*** Psi4 exiting successfully. Buy a developer a beer!
