                               Psi4 1.3.2 release

  ==> Input File <==

--------------------------------------------------------------------------
#psi4
#
memory 32 gb

molecule  {
0 1
  O       -2.5416370     0.0659770    -0.3927070
  N       -0.7122740    -1.2241950    -0.0249760
  C        1.8380290     0.7314390    -0.0343340
  C        1.7187040    -0.7521010    -0.3806110
  C        0.5749500     1.5632640    -0.2598230
  C        0.6440348    -1.5166939     0.4114209
  C       -0.6257670     1.1444980     0.6024810
  C       -1.3868420    -0.0349600     0.0307530
  H        2.6566510     1.1652070    -0.6217190
  H        2.1344690     0.8237010     1.0199600
  H        1.5025340    -0.8781880    -1.4483810
  H        2.6863370    -1.2343500    -0.1898600
  H        0.2863390     1.5300770    -1.3181450
  H        0.8108260     2.6104720    -0.0371320
  H        0.7923570    -2.5718330     0.3164690
  H        0.7525260    -1.2638240     1.4882170
  H       -1.3561390     1.9546950     0.6612310
  H       -0.2921570     0.9237120     1.6255030
  H       -1.2491170    -1.9758090    -0.4428220
units angstrom
no_reorient  #important for SAPT in psi4, default
symmetry c1  #important for SAPT in psi4, default
}

set PROPERTIES_ORIGIN ["COM"]
properties('MP2/aug-cc-pvtz', properties = ['dipole'])
--------------------------------------------------------------------------

    Molecular point group: c1
  Charge       = 0
  Multiplicity = 1
  Basis Set: AUG-CC-PVTZ
    Blend: AUG-CC-PVTZ
  Basis Set: (AUG-CC-PVTZ AUX)
    Blend: AUG-CC-PVTZ-JKFIT

    Orbital Energies [Eh]
    ---------------------

    Doubly Occupied:

       1A    -20.509223     2A    -15.578608     3A    -11.343624
       4A    -11.277095     5A    -11.236599     6A    -11.235908
       7A    -11.234663     8A    -11.233383     9A     -1.363555
      10A     -1.228020    11A     -1.093407    12A     -1.041597
      13A     -0.945569    14A     -0.889717    15A     -0.794670
      16A     -0.763561    17A     -0.687632    18A     -0.678261
      19A     -0.625020    20A     -0.611602    21A     -0.602416
      22A     -0.594152    23A     -0.569875    24A     -0.543919
      25A     -0.520543    26A     -0.514105    27A     -0.481268
      28A     -0.471315    29A     -0.469788    30A     -0.410971
      31A     -0.381499

  @DF-RHF Final Energy:  -363.07488570789866

   => Energetics <=

    Nuclear Repulsion Energy =            393.8148267237151572
    One-Electron Energy =               -1273.9162926270705611
    Two-Electron Energy =                 517.0265801954567451
    Total Energy =                       -363.0748857078986020
  Basis Set: (AUG-CC-PVTZ AUX)
    Blend: AUG-CC-PVTZ-RI
    Molecular point group: c1

    Geometry (in Angstrom), charge = 0, multiplicity = 1:

       Center              X                  Y                   Z               Mass
    ------------   -----------------  -----------------  -----------------  -----------------
         O           -2.464905673256     0.078087479685    -0.382706920402    15.994914619570
         N           -0.635542673256    -1.212084520315    -0.014975920402    14.003074004430
         C            1.914760326744     0.743549479685    -0.024333920402    12.000000000000
         C            1.795435326744    -0.739990520315    -0.370610920402    12.000000000000
         C            0.651681326744     1.575374479685    -0.249822920402    12.000000000000
         C            0.720766126744    -1.504583420315     0.421420979598    12.000000000000
         C           -0.549035673256     1.156608479685     0.612481079598    12.000000000000
         C           -1.310110673256    -0.022849520315     0.040753079598    12.000000000000
         H            2.733382326744     1.177317479685    -0.611718920402     1.007825032230
         H            2.211200326744     0.835811479685     1.029960079598     1.007825032230
         H            1.579265326744    -0.866077520315    -1.438380920402     1.007825032230
         H            2.763068326744    -1.222239520315    -0.179859920402     1.007825032230
         H            0.363070326744     1.542187479685    -1.308144920402     1.007825032230
         H            0.887557326744     2.622582479685    -0.027131920402     1.007825032230
         H            0.869088326744    -2.559722520315     0.326469079598     1.007825032230
         H            0.829257326744    -1.251713520315     1.498217079598     1.007825032230
         H           -1.279407673256     1.966805479685     0.671231079598     1.007825032230
         H           -0.215425673256     0.935822479685     1.635503079598     1.007825032230
         H           -1.172385673256    -1.963698520315    -0.432821920402     1.007825032230

  Basis Set: AUG-CC-PVTZ
    Blend: AUG-CC-PVTZ
  Basis Set: (AUG-CC-PVTZ AUX)
    Blend: AUG-CC-PVTZ-JKFIT
	 Reference Energy          =    -363.0748857078986589 [Eh]
	 Singles Energy            =      -0.0000000000000000 [Eh]
	 Same-Spin Energy          =      -0.3776439604761782 [Eh]
	 Opposite-Spin Energy      =      -1.2475941541354973 [Eh]
	 Correlation Energy        =      -1.6252381146116757 [Eh]
	 Total Energy              =    -364.7001238225103066 [Eh]

	 ================> DF-SCS-MP2 Energies <==================
	-----------------------------------------------------------
	 SCS Same-Spin Scale       =       0.3333333333333333 [-]
	 SCS Opposite-Spin Scale   =       1.2000000000000000 [-]
	 SCS Same-Spin Energy      =      -0.1258813201587261 [Eh]
	 SCS Opposite-Spin Energy  =      -1.4971129849625968 [Eh]
	 SCS Correlation Energy    =      -1.6229943051213229 [Eh]
	 SCS Total Energy          =    -364.6978800130199829 [Eh]
	-----------------------------------------------------------

  Dipole Moment: [D]
     X:     4.0669      Y:    -1.0520      Z:     0.8892     Total:     4.2939

*** Psi4 exiting successfully. Buy a developer a beer!
