                               Psi4 1.3.2 release

  ==> Input File <==

--------------------------------------------------------------------------
#psi4
#
memory 32 gb

molecule  {
0 1
  O       -2.5416370     0.0659770    -0.3927070
  N       -0.7122740    -1.2241950    -0.0249760
  C        1.8380290     0.7314390    -0.0343340
  C        1.7187040    -0.7521010    -0.3806110
  C        0.5749500     1.5632640    -0.2598230
  C        0.6466580    -1.4925250     0.4187290
  C       -0.6257670     1.1444980     0.6024810
  C       -1.3868420    -0.0349600     0.0307530
  H        2.6370926     1.1571946    -0.6536459
  H        2.1344690     0.8237010     1.0199600
  H        1.5025340    -0.8781880    -1.4483810
  H        2.6863370    -1.2343500    -0.1898600
  H        0.2863390     1.5300770    -1.3181450
  H        0.8108260     2.6104720    -0.0371320
  H        0.7923570    -2.5718330     0.3164690
  H        0.7525260    -1.2638240     1.4882170
  H       -1.3561390     1.9546950     0.6612310
  H       -0.2921570     0.9237120     1.6255030
  H       -1.2491170    -1.9758090    -0.4428220
units angstrom
no_reorient  #important for SAPT in psi4, default
symmetry c1  #important for SAPT in psi4, default
}

set PROPERTIES_ORIGIN ["COM"]
properties('MP2/aug-cc-pvtz', properties = ['dipole'])
--------------------------------------------------------------------------

    Molecular point group: c1
  Charge       = 0
  Multiplicity = 1
  Basis Set: AUG-CC-PVTZ
    Blend: AUG-CC-PVTZ
  Basis Set: (AUG-CC-PVTZ AUX)
    Blend: AUG-CC-PVTZ-JKFIT

    Orbital Energies [Eh]
    ---------------------

    Doubly Occupied:

       1A    -20.509025     2A    -15.578628     3A    -11.342997
       4A    -11.277202     5A    -11.236513     6A    -11.235827
       7A    -11.234218     8A    -11.233125     9A     -1.363417
      10A     -1.228216    11A     -1.094145    12A     -1.042152
      13A     -0.945431    14A     -0.888546    15A     -0.794725
      16A     -0.763930    17A     -0.688067    18A     -0.676960
      19A     -0.626575    20A     -0.611763    21A     -0.602128
      22A     -0.591524    23A     -0.570536    24A     -0.545174
      25A     -0.519715    26A     -0.515780    27A     -0.481483
      28A     -0.470247    29A     -0.468945    30A     -0.410526
      31A     -0.382671

  @DF-RHF Final Energy:  -363.07534518970272

   => Energetics <=

    Nuclear Repulsion Energy =            394.1175885828386640
    One-Electron Energy =               -1274.5254833378535295
    Two-Electron Energy =                 517.3325495653122061
    Total Energy =                       -363.0753451897027162
  Basis Set: (AUG-CC-PVTZ AUX)
    Blend: AUG-CC-PVTZ-RI
    Molecular point group: c1

    Geometry (in Angstrom), charge = 0, multiplicity = 1:

       Center              X                  Y                   Z               Mass
    ------------   -----------------  -----------------  -----------------  -----------------
         O           -2.465009728190     0.075594186707    -0.383197886759    15.994914619570
         N           -0.635646728190    -1.214577813293    -0.015466886759    14.003074004430
         C            1.914656271810     0.741056186707    -0.024824886759    12.000000000000
         C            1.795331271810    -0.742483813293    -0.371101886759    12.000000000000
         C            0.651577271810     1.572881186707    -0.250313886759    12.000000000000
         C            0.723285271810    -1.482907813293     0.428238113241    12.000000000000
         C           -0.549139728190     1.154115186707     0.611990113241    12.000000000000
         C           -1.310214728190    -0.025342813293     0.040262113241    12.000000000000
         H            2.713719871810     1.166811786707    -0.644136786759     1.007825032230
         H            2.211096271810     0.833318186707     1.029469113241     1.007825032230
         H            1.579161271810    -0.868570813293    -1.438871886759     1.007825032230
         H            2.762964271810    -1.224732813293    -0.180350886759     1.007825032230
         H            0.362966271810     1.539694186707    -1.308635886759     1.007825032230
         H            0.887453271810     2.620089186707    -0.027622886759     1.007825032230
         H            0.868984271810    -2.562215813293     0.325978113241     1.007825032230
         H            0.829153271810    -1.254206813293     1.497726113241     1.007825032230
         H           -1.279511728190     1.964312186707     0.670740113241     1.007825032230
         H           -0.215529728190     0.933329186707     1.635012113241     1.007825032230
         H           -1.172489728190    -1.966191813293    -0.433312886759     1.007825032230

  Basis Set: AUG-CC-PVTZ
    Blend: AUG-CC-PVTZ
  Basis Set: (AUG-CC-PVTZ AUX)
    Blend: AUG-CC-PVTZ-JKFIT
	 Reference Energy          =    -363.0753451897027162 [Eh]
	 Singles Energy            =      -0.0000000000000000 [Eh]
	 Same-Spin Energy          =      -0.3777299586888310 [Eh]
	 Opposite-Spin Energy      =      -1.2476959987843688 [Eh]
	 Correlation Energy        =      -1.6254259574731997 [Eh]
	 Total Energy              =    -364.7007711471759421 [Eh]

	 ================> DF-SCS-MP2 Energies <==================
	-----------------------------------------------------------
	 SCS Same-Spin Scale       =       0.3333333333333333 [-]
	 SCS Opposite-Spin Scale   =       1.2000000000000000 [-]
	 SCS Same-Spin Energy      =      -0.1259099862296103 [Eh]
	 SCS Opposite-Spin Energy  =      -1.4972351985412424 [Eh]
	 SCS Correlation Energy    =      -1.6231451847708527 [Eh]
	 SCS Total Energy          =    -364.6984903744735789 [Eh]
	-----------------------------------------------------------

  Dipole Moment: [D]
     X:     4.0681      Y:    -1.0380      Z:     0.8869     Total:     4.2911

*** Psi4 exiting successfully. Buy a developer a beer!
