                               Psi4 1.3.2 release

  ==> Input File <==

--------------------------------------------------------------------------
#psi4
#
memory 32 gb

molecule  {
0 1
  O       -2.5416370     0.0659770    -0.3927070
  N       -0.7122740    -1.2241950    -0.0249760
  C        1.8380290     0.7314390    -0.0343340
  C        1.7187040    -0.7521010    -0.3806110
  C        0.4923472     1.6176636    -0.2745695
  C        0.6466580    -1.4925250     0.4187290
  C       -0.6257670     1.1444980     0.6024810
  C       -1.3868420    -0.0349600     0.0307530
  H        2.6566510     1.1652070    -0.6217190
  H        2.1344690     0.8237010     1.0199600
  H        1.5025340    -0.8781880    -1.4483810
  H        2.6863370    -1.2343500    -0.1898600
  H        0.2863390     1.5300770    -1.3181450
  H        0.8108260     2.6104720    -0.0371320
  H        0.7923570    -2.5718330     0.3164690
  H        0.7525260    -1.2638240     1.4882170
  H       -1.3561390     1.9546950     0.6612310
  H       -0.2921570     0.9237120     1.6255030
  H       -1.2491170    -1.9758090    -0.4428220
units angstrom
no_reorient  #important for SAPT in psi4, default
symmetry c1  #important for SAPT in psi4, default
}

set PROPERTIES_ORIGIN ["COM"]
properties('MP2/aug-cc-pvtz', properties = ['dipole'])
--------------------------------------------------------------------------

    Molecular point group: c1
  Charge       = 0
  Multiplicity = 1
  Basis Set: AUG-CC-PVTZ
    Blend: AUG-CC-PVTZ
  Basis Set: (AUG-CC-PVTZ AUX)
    Blend: AUG-CC-PVTZ-JKFIT

    Orbital Energies [Eh]
    ---------------------

    Doubly Occupied:

       1A    -20.509603     2A    -15.579273     3A    -11.343956
       4A    -11.276950     5A    -11.235492     6A    -11.234918
       7A    -11.234180     8A    -11.233700     9A     -1.364044
      10A     -1.228424    11A     -1.087650    12A     -1.045854
      13A     -0.938985    14A     -0.889884    15A     -0.797049
      16A     -0.765487    17A     -0.687960    18A     -0.676959
      19A     -0.625238    20A     -0.612398    21A     -0.599088
      22A     -0.593325    23A     -0.569545    24A     -0.549839
      25A     -0.520978    26A     -0.519952    27A     -0.485068
      28A     -0.477611    29A     -0.445299    30A     -0.410973
      31A     -0.382875

  @DF-RHF Final Energy:  -363.06758398712748

   => Energetics <=

    Nuclear Repulsion Energy =            393.4531117564624196
    One-Electron Energy =               -1273.1962775998656525
    Two-Electron Energy =                 516.6755818562756986
    Total Energy =                       -363.0675839871274775
  Basis Set: (AUG-CC-PVTZ AUX)
    Blend: AUG-CC-PVTZ-RI
    Molecular point group: c1

    Geometry (in Angstrom), charge = 0, multiplicity = 1:

       Center              X                  Y                   Z               Mass
    ------------   -----------------  -----------------  -----------------  -----------------
         O           -2.456418578202     0.069750124564    -0.381917589024    15.994914619570
         N           -0.627055578202    -1.220421875436    -0.014186589024    14.003074004430
         C            1.923247421798     0.735212124564    -0.023544589024    12.000000000000
         C            1.803922421798    -0.748327875436    -0.369821589024    12.000000000000
         C            0.577565621798     1.621436724564    -0.263780089024    12.000000000000
         C            0.731876421798    -1.488751875436     0.429518410976    12.000000000000
         C           -0.540548578202     1.148271124564     0.613270410976    12.000000000000
         C           -1.301623578202    -0.031186875436     0.041542410976    12.000000000000
         H            2.741869421798     1.168980124564    -0.610929589024     1.007825032230
         H            2.219687421798     0.827474124564     1.030749410976     1.007825032230
         H            1.587752421798    -0.874414875436    -1.437591589024     1.007825032230
         H            2.771555421798    -1.230576875436    -0.179070589024     1.007825032230
         H            0.371557421798     1.533850124564    -1.307355589024     1.007825032230
         H            0.896044421798     2.614245124564    -0.026342589024     1.007825032230
         H            0.877575421798    -2.568059875436     0.327258410976     1.007825032230
         H            0.837744421798    -1.260050875436     1.499006410976     1.007825032230
         H           -1.270920578202     1.958468124564     0.672020410976     1.007825032230
         H           -0.206938578202     0.927485124564     1.636292410976     1.007825032230
         H           -1.163898578202    -1.972035875436    -0.432032589024     1.007825032230

  Basis Set: AUG-CC-PVTZ
    Blend: AUG-CC-PVTZ
  Basis Set: (AUG-CC-PVTZ AUX)
    Blend: AUG-CC-PVTZ-JKFIT
	 Reference Energy          =    -363.0675839871274775 [Eh]
	 Singles Energy            =      -0.0000000000000000 [Eh]
	 Same-Spin Energy          =      -0.3776888088232949 [Eh]
	 Opposite-Spin Energy      =      -1.2480371794829463 [Eh]
	 Correlation Energy        =      -1.6257259883062414 [Eh]
	 Total Energy              =    -364.6933099754336922 [Eh]

	 ================> DF-SCS-MP2 Energies <==================
	-----------------------------------------------------------
	 SCS Same-Spin Scale       =       0.3333333333333333 [-]
	 SCS Opposite-Spin Scale   =       1.2000000000000000 [-]
	 SCS Same-Spin Energy      =      -0.1258962696077650 [Eh]
	 SCS Opposite-Spin Energy  =      -1.4976446153795355 [Eh]
	 SCS Correlation Energy    =      -1.6235408849873005 [Eh]
	 SCS Total Energy          =    -364.6911248721147558 [Eh]
	-----------------------------------------------------------

  Dipole Moment: [D]
     X:     4.0229      Y:    -1.0394      Z:     0.8885     Total:     4.2490

*** Psi4 exiting successfully. Buy a developer a beer!
