                               Psi4 1.3.2 release

  ==> Input File <==

--------------------------------------------------------------------------
#psi4
#
memory 32 gb

molecule  {
0 1
  O       -2.5416370     0.0659770    -0.3927070
  N       -0.7122740    -1.2241950    -0.0249760
  C        1.8380290     0.7314390    -0.0343340
  C        1.7187040    -0.7521010    -0.3806110
  C        0.5749500     1.5632640    -0.2598230
  C        0.6466580    -1.4925250     0.4187290
  C       -0.4694686     1.1990091     0.4902341
  C       -1.3868420    -0.0349600     0.0307530
  H        2.6566510     1.1652070    -0.6217190
  H        2.1344690     0.8237010     1.0199600
  H        1.5025340    -0.8781880    -1.4483810
  H        2.6863370    -1.2343500    -0.1898600
  H        0.2863390     1.5300770    -1.3181450
  H        0.8108260     2.6104720    -0.0371320
  H        0.7923570    -2.5718330     0.3164690
  H        0.7525260    -1.2638240     1.4882170
  H       -1.3561390     1.9546950     0.6612310
  H       -0.2921570     0.9237120     1.6255030
  H       -1.2491170    -1.9758090    -0.4428220
units angstrom
no_reorient  #important for SAPT in psi4, default
symmetry c1  #important for SAPT in psi4, default
}

set PROPERTIES_ORIGIN ["COM"]
properties('MP2/aug-cc-pvtz', properties = ['dipole'])
--------------------------------------------------------------------------

    Molecular point group: c1
  Charge       = 0
  Multiplicity = 1
  Basis Set: AUG-CC-PVTZ
    Blend: AUG-CC-PVTZ
  Basis Set: (AUG-CC-PVTZ AUX)
    Blend: AUG-CC-PVTZ-JKFIT

    Orbital Energies [Eh]
    ---------------------

    Doubly Occupied:

       1A    -20.513742     2A    -15.578876     3A    -11.347782
       4A    -11.277096     5A    -11.246972     6A    -11.235229
       7A    -11.233765     8A    -11.224030     9A     -1.363814
      10A     -1.228871    11A     -1.121365    12A     -1.049652
      13A     -0.939213    14A     -0.885863    15A     -0.801311
      16A     -0.754696    17A     -0.690332    18A     -0.678259
      19A     -0.636935    20A     -0.619090    21A     -0.599225
      22A     -0.594160    23A     -0.571798    24A     -0.555451
      25A     -0.518630    26A     -0.502913    27A     -0.485396
      28A     -0.480531    29A     -0.444934    30A     -0.399098
      31A     -0.383489

  @DF-RHF Final Energy:  -363.02659651956827

   => Energetics <=

    Nuclear Repulsion Energy =            395.4140514208261266
    One-Electron Energy =               -1276.9562630114944568
    Two-Electron Energy =                 518.5156150711001146
    Total Energy =                       -363.0265965195682156
  Basis Set: (AUG-CC-PVTZ AUX)
    Blend: AUG-CC-PVTZ-RI
    Molecular point group: c1

    Geometry (in Angstrom), charge = 0, multiplicity = 1:

       Center              X                  Y                   Z               Mass
    ------------   -----------------  -----------------  -----------------  -----------------
         O           -2.481769757662     0.069738292658    -0.371571261179    15.994914619570
         N           -0.652406757662    -1.220433707342    -0.003840261179    14.003074004430
         C            1.897896242338     0.735200292658    -0.013198261179    12.000000000000
         C            1.778571242338    -0.748339707342    -0.359475261179    12.000000000000
         C            0.634817242338     1.567025292658    -0.238687261179    12.000000000000
         C            0.706525242338    -1.488763707342     0.439864738821    12.000000000000
         C           -0.409601357662     1.202770392658     0.511369838821    12.000000000000
         C           -1.326974757662    -0.031198707342     0.051888738821    12.000000000000
         H            2.716518242338     1.168968292658    -0.600583261179     1.007825032230
         H            2.194336242338     0.827462292658     1.041095738821     1.007825032230
         H            1.562401242338    -0.874426707342    -1.427245261179     1.007825032230
         H            2.746204242338    -1.230588707342    -0.168724261179     1.007825032230
         H            0.346206242338     1.533838292658    -1.297009261179     1.007825032230
         H            0.870693242338     2.614233292658    -0.015996261179     1.007825032230
         H            0.852224242338    -2.568071707342     0.337604738821     1.007825032230
         H            0.812393242338    -1.260062707342     1.509352738821     1.007825032230
         H           -1.296271757662     1.958456292658     0.682366738821     1.007825032230
         H           -0.232289757662     0.927473292658     1.646638738821     1.007825032230
         H           -1.189249757662    -1.972047707342    -0.421686261179     1.007825032230

  Basis Set: AUG-CC-PVTZ
    Blend: AUG-CC-PVTZ
  Basis Set: (AUG-CC-PVTZ AUX)
    Blend: AUG-CC-PVTZ-JKFIT
	 Reference Energy          =    -363.0265965195682725 [Eh]
	 Singles Energy            =      -0.0000000000000000 [Eh]
	 Same-Spin Energy          =      -0.3807390532378969 [Eh]
	 Opposite-Spin Energy      =      -1.2521964021262830 [Eh]
	 Correlation Energy        =      -1.6329354553641799 [Eh]
	 Total Energy              =    -364.6595319749324631 [Eh]

	 ================> DF-SCS-MP2 Energies <==================
	-----------------------------------------------------------
	 SCS Same-Spin Scale       =       0.3333333333333333 [-]
	 SCS Opposite-Spin Scale   =       1.2000000000000000 [-]
	 SCS Same-Spin Energy      =      -0.1269130177459656 [Eh]
	 SCS Opposite-Spin Energy  =      -1.5026356825515397 [Eh]
	 SCS Correlation Energy    =      -1.6295487002975053 [Eh]
	 SCS Total Energy          =    -364.6561452198657776 [Eh]
	-----------------------------------------------------------

  Dipole Moment: [D]
     X:     4.0318      Y:    -1.1248      Z:     0.7384     Total:     4.2504

*** Psi4 exiting successfully. Buy a developer a beer!
