                               Psi4 1.3.2 release

  ==> Input File <==

--------------------------------------------------------------------------
#psi4
#
memory 32 gb

molecule  {
0 1
  O       -2.5416370     0.0659770    -0.3927070
  N       -0.7122740    -1.2241950    -0.0249760
  C        1.9544406     0.7389952    -0.1437616
  C        1.7187040    -0.7521010    -0.3806110
  C        0.5749500     1.5632640    -0.2598230
  C        0.6466580    -1.4925250     0.4187290
  C       -0.6257670     1.1444980     0.6024810
  C       -1.3868420    -0.0349600     0.0307530
  H        2.6566510     1.1652070    -0.6217190
  H        2.1344690     0.8237010     1.0199600
  H        1.5025340    -0.8781880    -1.4483810
  H        2.6863370    -1.2343500    -0.1898600
  H        0.2863390     1.5300770    -1.3181450
  H        0.8108260     2.6104720    -0.0371320
  H        0.7923570    -2.5718330     0.3164690
  H        0.7525260    -1.2638240     1.4882170
  H       -1.3561390     1.9546950     0.6612310
  H       -0.2921570     0.9237120     1.6255030
  H       -1.2491170    -1.9758090    -0.4428220
units angstrom
no_reorient  #important for SAPT in psi4, default
symmetry c1  #important for SAPT in psi4, default
}

set PROPERTIES_ORIGIN ["COM"]
properties('MP2/aug-cc-pvtz', properties = ['dipole'])
--------------------------------------------------------------------------

    Molecular point group: c1
  Charge       = 0
  Multiplicity = 1
  Basis Set: AUG-CC-PVTZ
    Blend: AUG-CC-PVTZ
  Basis Set: (AUG-CC-PVTZ AUX)
    Blend: AUG-CC-PVTZ-JKFIT

    Orbital Energies [Eh]
    ---------------------

    Doubly Occupied:

       1A    -20.509755     2A    -15.579374     3A    -11.343703
       4A    -11.281246     5A    -11.239436     6A    -11.238730
       7A    -11.235330     8A    -11.233817     9A     -1.364073
      10A     -1.228740    11A     -1.086471    12A     -1.042489
      13A     -0.950571    14A     -0.886923    15A     -0.802178
      16A     -0.765397    17A     -0.687363    18A     -0.682576
      19A     -0.633350    20A     -0.609201    21A     -0.595678
      22A     -0.592763    23A     -0.574027    24A     -0.548426
      25A     -0.529364    26A     -0.513650    27A     -0.490100
      28A     -0.462634    29A     -0.445117    30A     -0.411337
      31A     -0.384066

  @DF-RHF Final Energy:  -363.04427413912754

   => Energetics <=

    Nuclear Repulsion Energy =            392.3785302919029050
    One-Electron Energy =               -1270.9498355244256800
    Two-Electron Energy =                 515.5270310933951805
    Total Energy =                       -363.0442741391275376
  Basis Set: (AUG-CC-PVTZ AUX)
    Blend: AUG-CC-PVTZ-RI
    Molecular point group: c1

    Geometry (in Angstrom), charge = 0, multiplicity = 1:

       Center              X                  Y                   Z               Mass
    ------------   -----------------  -----------------  -----------------  -----------------
         O           -2.477537140058     0.074720946979    -0.371870433306    15.994914619570
         N           -0.648174140058    -1.215451053021    -0.004139433306    14.003074004430
         C            2.018540459942     0.747739146979    -0.122925033306    12.000000000000
         C            1.782803859942    -0.743357053021    -0.359774433306    12.000000000000
         C            0.639049859942     1.572007946979    -0.238986433306    12.000000000000
         C            0.710757859942    -1.483781053021     0.439565566694    12.000000000000
         C           -0.561667140058     1.153241946979     0.623317566694    12.000000000000
         C           -1.322742140058    -0.026216053021     0.051589566694    12.000000000000
         H            2.720750859942     1.173950946979    -0.600882433306     1.007825032230
         H            2.198568859942     0.832444946979     1.040796566694     1.007825032230
         H            1.566633859942    -0.869444053021    -1.427544433306     1.007825032230
         H            2.750436859942    -1.225606053021    -0.169023433306     1.007825032230
         H            0.350438859942     1.538820946979    -1.297308433306     1.007825032230
         H            0.874925859942     2.619215946979    -0.016295433306     1.007825032230
         H            0.856456859942    -2.563089053021     0.337305566694     1.007825032230
         H            0.816625859942    -1.255080053021     1.509053566694     1.007825032230
         H           -1.292039140058     1.963438946979     0.682067566694     1.007825032230
         H           -0.228057140058     0.932455946979     1.646339566694     1.007825032230
         H           -1.185017140058    -1.967065053021    -0.421985433306     1.007825032230

  Basis Set: AUG-CC-PVTZ
    Blend: AUG-CC-PVTZ
  Basis Set: (AUG-CC-PVTZ AUX)
    Blend: AUG-CC-PVTZ-JKFIT
	 Reference Energy          =    -363.0442741391275376 [Eh]
	 Singles Energy            =      -0.0000000000000000 [Eh]
	 Same-Spin Energy          =      -0.3777036028908629 [Eh]
	 Opposite-Spin Energy      =      -1.2486739885149694 [Eh]
	 Correlation Energy        =      -1.6263775914058323 [Eh]
	 Total Energy              =    -364.6706517305333932 [Eh]

	 ================> DF-SCS-MP2 Energies <==================
	-----------------------------------------------------------
	 SCS Same-Spin Scale       =       0.3333333333333333 [-]
	 SCS Opposite-Spin Scale   =       1.2000000000000000 [-]
	 SCS Same-Spin Energy      =      -0.1259012009636210 [Eh]
	 SCS Opposite-Spin Energy  =      -1.4984087862179631 [Eh]
	 SCS Correlation Energy    =      -1.6243099871815840 [Eh]
	 SCS Total Energy          =    -364.6685841263090992 [Eh]
	-----------------------------------------------------------

  Dipole Moment: [D]
     X:     4.0349      Y:    -1.0651      Z:     0.8522     Total:     4.2593

*** Psi4 exiting successfully. Buy a developer a beer!
