                               Psi4 1.3.2 release

  ==> Input File <==

--------------------------------------------------------------------------
#psi4
#
memory 32 gb

molecule  {
0 1
  O       -2.5416370     0.0659770    -0.3927070
  N       -0.7122740    -1.2241950    -0.0249760
  C        1.8380290     0.7314390    -0.0343340
  C        1.7187040    -0.7521010    -0.3806110
  C        0.5749500     1.5632640    -0.2598230
  C        0.6466580    -1.4925250     0.4187290
  C       -0.6257670     1.1444980     0.6024810
  C       -1.5739863    -0.0186023    -0.0378723
  H        2.6566510     1.1652070    -0.6217190
  H        2.1344690     0.8237010     1.0199600
  H        1.5025340    -0.8781880    -1.4483810
  H        2.6863370    -1.2343500    -0.1898600
  H        0.2863390     1.5300770    -1.3181450
  H        0.8108260     2.6104720    -0.0371320
  H        0.7923570    -2.5718330     0.3164690
  H        0.7525260    -1.2638240     1.4882170
  H       -1.3561390     1.9546950     0.6612310
  H       -0.2921570     0.9237120     1.6255030
  H       -1.2491170    -1.9758090    -0.4428220
units angstrom
no_reorient  #important for SAPT in psi4, default
symmetry c1  #important for SAPT in psi4, default
}

set PROPERTIES_ORIGIN ["COM"]
properties('MP2/aug-cc-pvtz', properties = ['dipole'])
--------------------------------------------------------------------------

    Molecular point group: c1
  Charge       = 0
  Multiplicity = 1
  Basis Set: AUG-CC-PVTZ
    Blend: AUG-CC-PVTZ
  Basis Set: (AUG-CC-PVTZ AUX)
    Blend: AUG-CC-PVTZ-JKFIT

    Orbital Energies [Eh]
    ---------------------

    Doubly Occupied:

       1A    -20.550646     2A    -15.546821     3A    -11.336721
       4A    -11.264273     5A    -11.228152     6A    -11.226016
       7A    -11.224013     8A    -11.222205     9A     -1.528161
      10A     -1.194076    11A     -1.078481    12A     -1.020580
      13A     -0.924820    14A     -0.865354    15A     -0.783471
      16A     -0.740179    17A     -0.703248    18A     -0.694485
      19A     -0.644832    20A     -0.637176    21A     -0.603530
      22A     -0.592049    23A     -0.586909    24A     -0.554144
      25A     -0.541040    26A     -0.507450    27A     -0.471930
      28A     -0.469671    29A     -0.459318    30A     -0.385064
      31A     -0.372661

  @DF-RHF Final Energy:  -362.99922596710593

   => Energetics <=

    Nuclear Repulsion Energy =            394.0572809097688491
    One-Electron Energy =               -1274.1980645058406481
    Two-Electron Energy =                 517.1415576289658702
    Total Energy =                       -362.9992259671058719
  Basis Set: (AUG-CC-PVTZ AUX)
    Blend: AUG-CC-PVTZ-RI
    Molecular point group: c1

    Geometry (in Angstrom), charge = 0, multiplicity = 1:

       Center              X                  Y                   Z               Mass
    ------------   -----------------  -----------------  -----------------  -----------------
         O           -2.445325078766     0.073786969225    -0.376200199878    15.994914619570
         N           -0.615962078766    -1.216385030775    -0.008469199878    14.003074004430
         C            1.934340921234     0.739248969225    -0.017827199878    12.000000000000
         C            1.815015921234    -0.744291030775    -0.364104199878    12.000000000000
         C            0.671261921234     1.571073969225    -0.243316199878    12.000000000000
         C            0.742969921234    -1.484715030775     0.435235800122    12.000000000000
         C           -0.529455078766     1.152307969225     0.618987800122    12.000000000000
         C           -1.477674378766    -0.010792330775    -0.021365499878    12.000000000000
         H            2.752962921234     1.173016969225    -0.605212199878     1.007825032230
         H            2.230780921234     0.831510969225     1.036466800122     1.007825032230
         H            1.598845921234    -0.870378030775    -1.431874199878     1.007825032230
         H            2.782648921234    -1.226540030775    -0.173353199878     1.007825032230
         H            0.382650921234     1.537886969225    -1.301638199878     1.007825032230
         H            0.907137921234     2.618281969225    -0.020625199878     1.007825032230
         H            0.888668921234    -2.564023030775     0.332975800122     1.007825032230
         H            0.848837921234    -1.256014030775     1.504723800122     1.007825032230
         H           -1.259827078766     1.962504969225     0.677737800122     1.007825032230
         H           -0.195845078766     0.931521969225     1.642009800122     1.007825032230
         H           -1.152805078766    -1.967999030775    -0.426315199878     1.007825032230

  Basis Set: AUG-CC-PVTZ
    Blend: AUG-CC-PVTZ
  Basis Set: (AUG-CC-PVTZ AUX)
    Blend: AUG-CC-PVTZ-JKFIT
	 Reference Energy          =    -362.9992259671059287 [Eh]
	 Singles Energy            =      -0.0000000000000000 [Eh]
	 Same-Spin Energy          =      -0.3743180014950495 [Eh]
	 Opposite-Spin Energy      =      -1.2410676484249969 [Eh]
	 Correlation Energy        =      -1.6153856499200465 [Eh]
	 Total Energy              =    -364.6146116170259575 [Eh]

	 ================> DF-SCS-MP2 Energies <==================
	-----------------------------------------------------------
	 SCS Same-Spin Scale       =       0.3333333333333333 [-]
	 SCS Opposite-Spin Scale   =       1.2000000000000000 [-]
	 SCS Same-Spin Energy      =      -0.1247726671650165 [Eh]
	 SCS Opposite-Spin Energy  =      -1.4892811781099964 [Eh]
	 SCS Correlation Energy    =      -1.6140538452750128 [Eh]
	 SCS Total Energy          =    -364.6132798123809380 [Eh]
	-----------------------------------------------------------

  Dipole Moment: [D]
     X:     2.2751      Y:    -0.5568      Z:     0.4470     Total:     2.3845

*** Psi4 exiting successfully. Buy a developer a beer!
