                               Psi4 1.3.2 release

  ==> Input File <==

--------------------------------------------------------------------------
#psi4
#
memory 32 gb

molecule  {
0 1
  O       -2.5416370     0.0659770    -0.3927070
  N       -0.7122740    -1.2241950    -0.0249760
  C        1.8380290     0.7314390    -0.0343340
  C        1.6378271    -0.7579347    -0.3113220
  C        0.5749500     1.5632640    -0.2598230
  C        0.6466580    -1.4925250     0.4187290
  C       -0.6257670     1.1444980     0.6024810
  C       -1.3868420    -0.0349600     0.0307530
  H        2.6566510     1.1652070    -0.6217190
  H        2.1344690     0.8237010     1.0199600
  H        1.5025340    -0.8781880    -1.4483810
  H        2.6863370    -1.2343500    -0.1898600
  H        0.2863390     1.5300770    -1.3181450
  H        0.8108260     2.6104720    -0.0371320
  H        0.7923570    -2.5718330     0.3164690
  H        0.7525260    -1.2638240     1.4882170
  H       -1.3561390     1.9546950     0.6612310
  H       -0.2921570     0.9237120     1.6255030
  H       -1.2491170    -1.9758090    -0.4428220
units angstrom
no_reorient  #important for SAPT in psi4, default
symmetry c1  #important for SAPT in psi4, default
}

set PROPERTIES_ORIGIN ["COM"]
properties('MP2/aug-cc-pvtz', properties = ['dipole'])
--------------------------------------------------------------------------

    Molecular point group: c1
  Charge       = 0
  Multiplicity = 1
  Basis Set: AUG-CC-PVTZ
    Blend: AUG-CC-PVTZ
  Basis Set: (AUG-CC-PVTZ AUX)
    Blend: AUG-CC-PVTZ-JKFIT

    Orbital Energies [Eh]
    ---------------------

    Doubly Occupied:

       1A    -20.509304     2A    -15.578298     3A    -11.343530
       4A    -11.275034     5A    -11.239847     6A    -11.236657
       7A    -11.235758     8A    -11.234895     9A     -1.363878
      10A     -1.232601    11A     -1.097024    12A     -1.050782
      13A     -0.952550    14A     -0.884539    15A     -0.790998
      16A     -0.765406    17A     -0.691310    18A     -0.680921
      19A     -0.628186    20A     -0.617524    21A     -0.601736
      22A     -0.592880    23A     -0.566892    24A     -0.556152
      25A     -0.519776    26A     -0.508406    27A     -0.479319
      28A     -0.467670    29A     -0.459468    30A     -0.410756
      31A     -0.386028

  @DF-RHF Final Energy:  -363.06211461059524

   => Energetics <=

    Nuclear Repulsion Energy =            395.6263356614275040
    One-Electron Energy =               -1277.4606536641672392
    Two-Electron Energy =                 518.7722033921445473
    Total Energy =                       -363.0621146105952448
  Basis Set: (AUG-CC-PVTZ AUX)
    Blend: AUG-CC-PVTZ-RI
    Molecular point group: c1

    Geometry (in Angstrom), charge = 0, multiplicity = 1:

       Center              X                  Y                   Z               Mass
    ------------   -----------------  -----------------  -----------------  -----------------
         O           -2.456601723371     0.076141826229    -0.390835078939    15.994914619570
         N           -0.627238723371    -1.214030173771    -0.023104078939    14.003074004430
         C            1.923064276629     0.741603826229    -0.032462078939    12.000000000000
         C            1.722862376629    -0.747769873771    -0.309450078939    12.000000000000
         C            0.659985276629     1.573428826229    -0.257951078939    12.000000000000
         C            0.731693276629    -1.482360173771     0.420600921061    12.000000000000
         C           -0.540731723371     1.154662826229     0.604352921061    12.000000000000
         C           -1.301806723371    -0.024795173771     0.032624921061    12.000000000000
         H            2.741686276629     1.175371826229    -0.619847078939     1.007825032230
         H            2.219504276629     0.833865826229     1.021831921061     1.007825032230
         H            1.587569276629    -0.868023173771    -1.446509078939     1.007825032230
         H            2.771372276629    -1.224185173771    -0.187988078939     1.007825032230
         H            0.371374276629     1.540241826229    -1.316273078939     1.007825032230
         H            0.895861276629     2.620636826229    -0.035260078939     1.007825032230
         H            0.877392276629    -2.561668173771     0.318340921061     1.007825032230
         H            0.837561276629    -1.253659173771     1.490088921061     1.007825032230
         H           -1.271103723371     1.964859826229     0.663102921061     1.007825032230
         H           -0.207121723371     0.933876826229     1.627374921061     1.007825032230
         H           -1.164081723371    -1.965644173771    -0.440950078939     1.007825032230

  Basis Set: AUG-CC-PVTZ
    Blend: AUG-CC-PVTZ
  Basis Set: (AUG-CC-PVTZ AUX)
    Blend: AUG-CC-PVTZ-JKFIT
	 Reference Energy          =    -363.0621146105952448 [Eh]
	 Singles Energy            =      -0.0000000000000000 [Eh]
	 Same-Spin Energy          =      -0.3787873313031987 [Eh]
	 Opposite-Spin Energy      =      -1.2490995357330950 [Eh]
	 Correlation Energy        =      -1.6278868670362936 [Eh]
	 Total Energy              =    -364.6900014776315402 [Eh]

	 ================> DF-SCS-MP2 Energies <==================
	-----------------------------------------------------------
	 SCS Same-Spin Scale       =       0.3333333333333333 [-]
	 SCS Opposite-Spin Scale   =       1.2000000000000000 [-]
	 SCS Same-Spin Energy      =      -0.1262624437677329 [Eh]
	 SCS Opposite-Spin Energy  =      -1.4989194428797139 [Eh]
	 SCS Correlation Energy    =      -1.6251818866474468 [Eh]
	 SCS Total Energy          =    -364.6872964972426985 [Eh]
	-----------------------------------------------------------

  Dipole Moment: [D]
     X:     4.0715      Y:    -1.0209      Z:     0.9201     Total:     4.2972

*** Psi4 exiting successfully. Buy a developer a beer!
