                               Psi4 1.3.2 release

  ==> Input File <==

--------------------------------------------------------------------------
#psi4
#
memory 32 gb

molecule  {
0 1
  O       -2.5416370     0.0659770    -0.3927070
  N       -0.7122740    -1.2241950    -0.0249760
  C        1.8380290     0.7314390    -0.0343340
  C        1.6933268    -0.7481433    -0.3877949
  C        0.5749500     1.5632640    -0.2598230
  C        0.6466580    -1.4925250     0.4187290
  C       -0.6257670     1.1444980     0.6024810
  C       -1.3868420    -0.0349600     0.0307530
  H        2.6566510     1.1652070    -0.6217190
  H        2.1344690     0.8237010     1.0199600
  H        1.5025340    -0.8781880    -1.4483810
  H        2.6863370    -1.2343500    -0.1898600
  H        0.2863390     1.5300770    -1.3181450
  H        0.8108260     2.6104720    -0.0371320
  H        0.7923570    -2.5718330     0.3164690
  H        0.7525260    -1.2638240     1.4882170
  H       -1.3561390     1.9546950     0.6612310
  H       -0.2921570     0.9237120     1.6255030
  H       -1.2491170    -1.9758090    -0.4428220
units angstrom
no_reorient  #important for SAPT in psi4, default
symmetry c1  #important for SAPT in psi4, default
}

set PROPERTIES_ORIGIN ["COM"]
properties('MP2/aug-cc-pvtz', properties = ['dipole'])
--------------------------------------------------------------------------

    Molecular point group: c1
  Charge       = 0
  Multiplicity = 1
  Basis Set: AUG-CC-PVTZ
    Blend: AUG-CC-PVTZ
  Basis Set: (AUG-CC-PVTZ AUX)
    Blend: AUG-CC-PVTZ-JKFIT

    Orbital Energies [Eh]
    ---------------------

    Doubly Occupied:

       1A    -20.508928     2A    -15.578159     3A    -11.342955
       4A    -11.277182     5A    -11.236351     6A    -11.235765
       7A    -11.234921     8A    -11.233319     9A     -1.363371
      10A     -1.228794    11A     -1.094314    12A     -1.042792
      13A     -0.946161    14A     -0.887633    15A     -0.795739
      16A     -0.763976    17A     -0.687993    18A     -0.677272
      19A     -0.626245    20A     -0.612897    21A     -0.602002
      22A     -0.591910    23A     -0.567465    24A     -0.545892
      25A     -0.519042    26A     -0.516943    27A     -0.483132
      28A     -0.471398    29A     -0.465862    30A     -0.410460
      31A     -0.382916

  @DF-RHF Final Energy:  -363.07453798125607

   => Energetics <=

    Nuclear Repulsion Energy =            394.4094533075931395
    One-Electron Energy =               -1275.1044088241917507
    Two-Electron Energy =                 517.6204175353425398
    Total Energy =                       -363.0745379812560714
  Basis Set: (AUG-CC-PVTZ AUX)
    Blend: AUG-CC-PVTZ-RI
    Molecular point group: c1

    Geometry (in Angstrom), charge = 0, multiplicity = 1:

       Center              X                  Y                   Z               Mass
    ------------   -----------------  -----------------  -----------------  -----------------
         O           -2.462491115533     0.075102804497    -0.382720099978    15.994914619570
         N           -0.633128115533    -1.215069195503    -0.014989099978    14.003074004430
         C            1.917174884467     0.740564804497    -0.024347099978    12.000000000000
         C            1.772472684467    -0.739017495503    -0.377807999978    12.000000000000
         C            0.654095884467     1.572389804497    -0.249836099978    12.000000000000
         C            0.725803884467    -1.483399195503     0.428715900022    12.000000000000
         C           -0.546621115533     1.153623804497     0.612467900022    12.000000000000
         C           -1.307696115533    -0.025834195503     0.040739900022    12.000000000000
         H            2.735796884467     1.174332804497    -0.611732099978     1.007825032230
         H            2.213614884467     0.832826804497     1.029946900022     1.007825032230
         H            1.581679884467    -0.869062195503    -1.438394099978     1.007825032230
         H            2.765482884467    -1.225224195503    -0.179873099978     1.007825032230
         H            0.365484884467     1.539202804497    -1.308158099978     1.007825032230
         H            0.889971884467     2.619597804497    -0.027145099978     1.007825032230
         H            0.871502884467    -2.562707195503     0.326455900022     1.007825032230
         H            0.831671884467    -1.254698195503     1.498203900022     1.007825032230
         H           -1.276993115533     1.963820804497     0.671217900022     1.007825032230
         H           -0.213011115533     0.932837804497     1.635489900022     1.007825032230
         H           -1.169971115533    -1.966683195503    -0.432835099978     1.007825032230

  Basis Set: AUG-CC-PVTZ
    Blend: AUG-CC-PVTZ
  Basis Set: (AUG-CC-PVTZ AUX)
    Blend: AUG-CC-PVTZ-JKFIT
	 Reference Energy          =    -363.0745379812560714 [Eh]
	 Singles Energy            =      -0.0000000000000000 [Eh]
	 Same-Spin Energy          =      -0.3778304783718029 [Eh]
	 Opposite-Spin Energy      =      -1.2478123345668763 [Eh]
	 Correlation Energy        =      -1.6256428129386793 [Eh]
	 Total Energy              =    -364.7001807941947504 [Eh]

	 ================> DF-SCS-MP2 Energies <==================
	-----------------------------------------------------------
	 SCS Same-Spin Scale       =       0.3333333333333333 [-]
	 SCS Opposite-Spin Scale   =       1.2000000000000000 [-]
	 SCS Same-Spin Energy      =      -0.1259434927906010 [Eh]
	 SCS Opposite-Spin Energy  =      -1.4973748014802515 [Eh]
	 SCS Correlation Energy    =      -1.6233182942708524 [Eh]
	 SCS Total Energy          =    -364.6978562755269309 [Eh]
	-----------------------------------------------------------

  Dipole Moment: [D]
     X:     4.0693      Y:    -1.0375      Z:     0.8935     Total:     4.2934

*** Psi4 exiting successfully. Buy a developer a beer!
