                               Psi4 1.3.2 release

  ==> Input File <==

--------------------------------------------------------------------------
#psi4
#
memory 32 gb

molecule  {
0 1
  O       -2.5416370     0.0659770    -0.3927070
  N       -0.7511192    -1.2443746    -0.0440837
  C        1.8380290     0.7314390    -0.0343340
  C        1.7187040    -0.7521010    -0.3806110
  C        0.5749500     1.5632640    -0.2598230
  C        0.6466580    -1.4925250     0.4187290
  C       -0.6257670     1.1444980     0.6024810
  C       -1.3868420    -0.0349600     0.0307530
  H        2.6566510     1.1652070    -0.6217190
  H        2.1344690     0.8237010     1.0199600
  H        1.5025340    -0.8781880    -1.4483810
  H        2.6863370    -1.2343500    -0.1898600
  H        0.2863390     1.5300770    -1.3181450
  H        0.8108260     2.6104720    -0.0371320
  H        0.7923570    -2.5718330     0.3164690
  H        0.7525260    -1.2638240     1.4882170
  H       -1.3561390     1.9546950     0.6612310
  H       -0.2921570     0.9237120     1.6255030
  H       -1.2491170    -1.9758090    -0.4428220
units angstrom
no_reorient  #important for SAPT in psi4, default
symmetry c1  #important for SAPT in psi4, default
}

set PROPERTIES_ORIGIN ["COM"]
properties('MP2/aug-cc-pvtz', properties = ['dipole'])
--------------------------------------------------------------------------

    Molecular point group: c1
  Charge       = 0
  Multiplicity = 1
  Basis Set: AUG-CC-PVTZ
    Blend: AUG-CC-PVTZ
  Basis Set: (AUG-CC-PVTZ AUX)
    Blend: AUG-CC-PVTZ-JKFIT

    Orbital Energies [Eh]
    ---------------------

    Doubly Occupied:

       1A    -20.506292     2A    -15.574906     3A    -11.341721
       4A    -11.279524     5A    -11.238055     6A    -11.237082
       7A    -11.235670     8A    -11.233684     9A     -1.362734
      10A     -1.221649    11A     -1.095875    12A     -1.041259
      13A     -0.948054    14A     -0.885091    15A     -0.796105
      16A     -0.773491    17A     -0.682875    18A     -0.675367
      19A     -0.628088    20A     -0.612239    21A     -0.601133
      22A     -0.588632    23A     -0.570953    24A     -0.544753
      25A     -0.521508    26A     -0.514999    27A     -0.482050
      28A     -0.471655    29A     -0.469543    30A     -0.409168
      31A     -0.383195

  @DF-RHF Final Energy:  -363.07382674799817

   => Energetics <=

    Nuclear Repulsion Energy =            393.4517788538488503
    One-Electron Energy =               -1273.1965135227528663
    Two-Electron Energy =                 516.6709079209058473
    Total Energy =                       -363.0738267479981687
  Basis Set: (AUG-CC-PVTZ AUX)
    Blend: AUG-CC-PVTZ-RI
    Molecular point group: c1

    Geometry (in Angstrom), charge = 0, multiplicity = 1:

       Center              X                  Y                   Z               Mass
    ------------   -----------------  -----------------  -----------------  -----------------
         O           -2.460373878126     0.078021596240    -0.381116339635    15.994914619570
         N           -0.669856078126    -1.232330003760    -0.032493039635    14.003074004430
         C            1.919292121874     0.743483596240    -0.022743339635    12.000000000000
         C            1.799967121874    -0.740056403760    -0.369020339635    12.000000000000
         C            0.656213121874     1.575308596240    -0.248232339635    12.000000000000
         C            0.727921121874    -1.480480403760     0.430319660365    12.000000000000
         C           -0.544503878126     1.156542596240     0.614071660365    12.000000000000
         C           -1.305578878126    -0.022915403760     0.042343660365    12.000000000000
         H            2.737914121874     1.177251596240    -0.610128339635     1.007825032230
         H            2.215732121874     0.835745596240     1.031550660365     1.007825032230
         H            1.583797121874    -0.866143403760    -1.436790339635     1.007825032230
         H            2.767600121874    -1.222305403760    -0.178269339635     1.007825032230
         H            0.367602121874     1.542121596240    -1.306554339635     1.007825032230
         H            0.892089121874     2.622516596240    -0.025541339635     1.007825032230
         H            0.873620121874    -2.559788403760     0.328059660365     1.007825032230
         H            0.833789121874    -1.251779403760     1.499807660365     1.007825032230
         H           -1.274875878126     1.966739596240     0.672821660365     1.007825032230
         H           -0.210893878126     0.935756596240     1.637093660365     1.007825032230
         H           -1.167853878126    -1.963764403760    -0.431231339635     1.007825032230

  Basis Set: AUG-CC-PVTZ
    Blend: AUG-CC-PVTZ
  Basis Set: (AUG-CC-PVTZ AUX)
    Blend: AUG-CC-PVTZ-JKFIT
	 Reference Energy          =    -363.0738267479981687 [Eh]
	 Singles Energy            =      -0.0000000000000000 [Eh]
	 Same-Spin Energy          =      -0.3770947808125763 [Eh]
	 Opposite-Spin Energy      =      -1.2469286994635924 [Eh]
	 Correlation Energy        =      -1.6240234802761688 [Eh]
	 Total Energy              =    -364.6978502282743193 [Eh]

	 ================> DF-SCS-MP2 Energies <==================
	-----------------------------------------------------------
	 SCS Same-Spin Scale       =       0.3333333333333333 [-]
	 SCS Opposite-Spin Scale   =       1.2000000000000000 [-]
	 SCS Same-Spin Energy      =      -0.1256982602708588 [Eh]
	 SCS Opposite-Spin Energy  =      -1.4963144393563108 [Eh]
	 SCS Correlation Energy    =      -1.6220126996271695 [Eh]
	 SCS Total Energy          =    -364.6958394476253602 [Eh]
	-----------------------------------------------------------

  Dipole Moment: [D]
     X:     4.1517      Y:    -0.9819      Z:     0.9207     Total:     4.3645

*** Psi4 exiting successfully. Buy a developer a beer!
