                               Psi4 1.3.2 release

  ==> Input File <==

--------------------------------------------------------------------------
#psi4
#
memory 32 gb

molecule  {
0 1
  O       -2.5416370     0.0659770    -0.3927070
  N       -0.7122740    -1.2241950    -0.0249760
  C        1.8380290     0.7314390    -0.0343340
  C        1.7187040    -0.7521010    -0.3806110
  C        0.5749500     1.5632640    -0.2598230
  C        0.6466580    -1.4925250     0.4187290
  C       -0.6257670     1.1444980     0.6024810
  C       -1.3868420    -0.0349600     0.0307530
  H        2.6566510     1.1652070    -0.6217190
  H        2.1344690     0.8237010     1.0199600
  H        1.5025340    -0.8781880    -1.4483810
  H        2.6863370    -1.2343500    -0.1898600
  H        0.2863390     1.5300770    -1.3181450
  H        0.8108260     2.6104720    -0.0371320
  H        0.7923570    -2.5718330     0.3164690
  H        0.7525260    -1.2638240     1.4882170
  H       -1.3516245     1.9551222     0.6990900
  H       -0.2921570     0.9237120     1.6255030
  H       -1.2491170    -1.9758090    -0.4428220
units angstrom
no_reorient  #important for SAPT in psi4, default
symmetry c1  #important for SAPT in psi4, default
}

set PROPERTIES_ORIGIN ["COM"]
properties('MP2/aug-cc-pvtz', properties = ['dipole'])
--------------------------------------------------------------------------

    Molecular point group: c1
  Charge       = 0
  Multiplicity = 1
  Basis Set: AUG-CC-PVTZ
    Blend: AUG-CC-PVTZ
  Basis Set: (AUG-CC-PVTZ AUX)
    Blend: AUG-CC-PVTZ-JKFIT

    Orbital Energies [Eh]
    ---------------------

    Doubly Occupied:

       1A    -20.508983     2A    -15.578768     3A    -11.343207
       4A    -11.277291     5A    -11.236808     6A    -11.236001
       7A    -11.234381     8A    -11.233159     9A     -1.363367
      10A     -1.228292    11A     -1.093939    12A     -1.042090
      13A     -0.945417    14A     -0.888588    15A     -0.795475
      16A     -0.764722    17A     -0.687961    18A     -0.676482
      19A     -0.626559    20A     -0.611612    21A     -0.601073
      22A     -0.592138    23A     -0.570273    24A     -0.545310
      25A     -0.518750    26A     -0.515508    27A     -0.481167
      28A     -0.471531    29A     -0.469070    30A     -0.410481
      31A     -0.382755

  @DF-RHF Final Energy:  -363.07535932013838

   => Energetics <=

    Nuclear Repulsion Energy =            394.0527605664941007
    One-Electron Energy =               -1274.3939257832143994
    Two-Electron Energy =                 517.2658058965819237
    Total Energy =                       -363.0753593201384319
  Basis Set: (AUG-CC-PVTZ AUX)
    Blend: AUG-CC-PVTZ-RI
    Molecular point group: c1

    Geometry (in Angstrom), charge = 0, multiplicity = 1:

       Center              X                  Y                   Z               Mass
    ------------   -----------------  -----------------  -----------------  -----------------
         O           -2.465224270101     0.075518971510    -0.383819830952    15.994914619570
         N           -0.635861270101    -1.214653028490    -0.016088830952    14.003074004430
         C            1.914441729899     0.740980971510    -0.025446830952    12.000000000000
         C            1.795116729899    -0.742559028490    -0.371723830952    12.000000000000
         C            0.651362729899     1.572805971510    -0.250935830952    12.000000000000
         C            0.723070729899    -1.482983028490     0.427616169048    12.000000000000
         C           -0.549354270101     1.154039971510     0.611368169048    12.000000000000
         C           -1.310429270101    -0.025418028490     0.039640169048    12.000000000000
         H            2.733063729899     1.174748971510    -0.612831830952     1.007825032230
         H            2.210881729899     0.833242971510     1.028847169048     1.007825032230
         H            1.578946729899    -0.868646028490    -1.439493830952     1.007825032230
         H            2.762749729899    -1.224808028490    -0.180972830952     1.007825032230
         H            0.362751729899     1.539618971510    -1.309257830952     1.007825032230
         H            0.887238729899     2.620013971510    -0.028244830952     1.007825032230
         H            0.868769729899    -2.562291028490     0.325356169048     1.007825032230
         H            0.828938729899    -1.254282028490     1.497104169048     1.007825032230
         H           -1.275211770101     1.964664171510     0.707977169048     1.007825032230
         H           -0.215744270101     0.933253971510     1.634390169048     1.007825032230
         H           -1.172704270101    -1.966267028490    -0.433934830952     1.007825032230

  Basis Set: AUG-CC-PVTZ
    Blend: AUG-CC-PVTZ
  Basis Set: (AUG-CC-PVTZ AUX)
    Blend: AUG-CC-PVTZ-JKFIT
	 Reference Energy          =    -363.0753593201383751 [Eh]
	 Singles Energy            =      -0.0000000000000000 [Eh]
	 Same-Spin Energy          =      -0.3777150562912376 [Eh]
	 Opposite-Spin Energy      =      -1.2476530272617783 [Eh]
	 Correlation Energy        =      -1.6253680835530160 [Eh]
	 Total Energy              =    -364.7007274036914168 [Eh]

	 ================> DF-SCS-MP2 Energies <==================
	-----------------------------------------------------------
	 SCS Same-Spin Scale       =       0.3333333333333333 [-]
	 SCS Opposite-Spin Scale   =       1.2000000000000000 [-]
	 SCS Same-Spin Energy      =      -0.1259050187637459 [Eh]
	 SCS Opposite-Spin Energy  =      -1.4971836327141339 [Eh]
	 SCS Correlation Energy    =      -1.6230886514778797 [Eh]
	 SCS Total Energy          =    -364.6984479716162468 [Eh]
	-----------------------------------------------------------

  Dipole Moment: [D]
     X:     4.0737      Y:    -1.0331      Z:     0.9097     Total:     4.3000

*** Psi4 exiting successfully. Buy a developer a beer!
