                               Psi4 1.3.2 release

  ==> Input File <==

--------------------------------------------------------------------------
#psi4
#
memory 32 gb

molecule  {
0 1
  O       -2.5416601     0.0867835    -0.3871366
  N       -0.7122740    -1.2241950    -0.0249760
  C        1.8380290     0.7314390    -0.0343340
  C        1.7187040    -0.7521010    -0.3806110
  C        0.5749500     1.5632640    -0.2598230
  C        0.6466580    -1.4925250     0.4187290
  C       -0.6257670     1.1444980     0.6024810
  C       -1.3868420    -0.0349600     0.0307530
  H        2.6566510     1.1652070    -0.6217190
  H        2.1344690     0.8237010     1.0199600
  H        1.5025340    -0.8781880    -1.4483810
  H        2.6863370    -1.2343500    -0.1898600
  H        0.2863390     1.5300770    -1.3181450
  H        0.8108260     2.6104720    -0.0371320
  H        0.7923570    -2.5718330     0.3164690
  H        0.7525260    -1.2638240     1.4882170
  H       -1.3561390     1.9546950     0.6612310
  H       -0.2921570     0.9237120     1.6255030
  H       -1.2491170    -1.9758090    -0.4428220
units angstrom
no_reorient  #important for SAPT in psi4, default
symmetry c1  #important for SAPT in psi4, default
}

set PROPERTIES_ORIGIN ["COM"]
properties('MP2/aug-cc-pvtz', properties = ['dipole'])
--------------------------------------------------------------------------

    Molecular point group: c1
  Charge       = 0
  Multiplicity = 1
  Basis Set: AUG-CC-PVTZ
    Blend: AUG-CC-PVTZ
  Basis Set: (AUG-CC-PVTZ AUX)
    Blend: AUG-CC-PVTZ-JKFIT

    Orbital Energies [Eh]
    ---------------------

    Doubly Occupied:

       1A    -20.509320     2A    -15.579789     3A    -11.343054
       4A    -11.277930     5A    -11.236075     6A    -11.234928
       7A    -11.234517     8A    -11.232903     9A     -1.363235
      10A     -1.229444    11A     -1.093772    12A     -1.041955
      13A     -0.945319    14A     -0.888563    15A     -0.795412
      16A     -0.764238    17A     -0.688138    18A     -0.676860
      19A     -0.626350    20A     -0.611894    21A     -0.601746
      22A     -0.591870    23A     -0.569753    24A     -0.545320
      25A     -0.519280    26A     -0.515820    27A     -0.481132
      28A     -0.470249    29A     -0.469221    30A     -0.410058
      31A     -0.383668

  @DF-RHF Final Energy:  -363.07540864721130

   => Energetics <=

    Nuclear Repulsion Energy =            394.0833964834408789
    One-Electron Energy =               -1274.4539819651204198
    Two-Electron Energy =                 517.2951768344682932
    Total Energy =                       -363.0754086472112476
  Basis Set: (AUG-CC-PVTZ AUX)
    Blend: AUG-CC-PVTZ-RI
    Molecular point group: c1

    Geometry (in Angstrom), charge = 0, multiplicity = 1:

       Center              X                  Y                   Z               Mass
    ------------   -----------------  -----------------  -----------------  -----------------
         O           -2.465203868759     0.093386351386    -0.378699917278    15.994914619570
         N           -0.635817768759    -1.217592148614    -0.016539317278    14.003074004430
         C            1.914485231241     0.738041851386    -0.025897317278    12.000000000000
         C            1.795160231241    -0.745498148614    -0.372174317278    12.000000000000
         C            0.651406231241     1.569866851386    -0.251386317278    12.000000000000
         C            0.723114231241    -1.485922148614     0.427165682722    12.000000000000
         C           -0.549310768759     1.151100851386     0.610917682722    12.000000000000
         C           -1.310385768759    -0.028357148614     0.039189682722    12.000000000000
         H            2.733107231241     1.171809851386    -0.613282317278     1.007825032230
         H            2.210925231241     0.830303851386     1.028396682722     1.007825032230
         H            1.578990231241    -0.871585148614    -1.439944317278     1.007825032230
         H            2.762793231241    -1.227747148614    -0.181423317278     1.007825032230
         H            0.362795231241     1.536679851386    -1.309708317278     1.007825032230
         H            0.887282231241     2.617074851386    -0.028695317278     1.007825032230
         H            0.868813231241    -2.565230148614     0.324905682722     1.007825032230
         H            0.828982231241    -1.257221148614     1.496653682722     1.007825032230
         H           -1.279682768759     1.961297851386     0.669667682722     1.007825032230
         H           -0.215700768759     0.930314851386     1.633939682722     1.007825032230
         H           -1.172660768759    -1.969206148614    -0.434385317278     1.007825032230

  Basis Set: AUG-CC-PVTZ
    Blend: AUG-CC-PVTZ
  Basis Set: (AUG-CC-PVTZ AUX)
    Blend: AUG-CC-PVTZ-JKFIT
	 Reference Energy          =    -363.0754086472113045 [Eh]
	 Singles Energy            =      -0.0000000000000000 [Eh]
	 Same-Spin Energy          =      -0.3777234423796620 [Eh]
	 Opposite-Spin Energy      =      -1.2476803084634911 [Eh]
	 Correlation Energy        =      -1.6254037508431531 [Eh]
	 Total Energy              =    -364.7008123980544383 [Eh]

	 ================> DF-SCS-MP2 Energies <==================
	-----------------------------------------------------------
	 SCS Same-Spin Scale       =       0.3333333333333333 [-]
	 SCS Opposite-Spin Scale   =       1.2000000000000000 [-]
	 SCS Same-Spin Energy      =      -0.1259078141265540 [Eh]
	 SCS Opposite-Spin Energy  =      -1.4972163701561894 [Eh]
	 SCS Correlation Energy    =      -1.6231241842827433 [Eh]
	 SCS Total Energy          =    -364.6985328314940489 [Eh]
	-----------------------------------------------------------

  Dipole Moment: [D]
     X:     4.0693      Y:    -1.0951      Z:     0.8819     Total:     4.3054

*** Psi4 exiting successfully. Buy a developer a beer!
