                               Psi4 1.3.2 release

  ==> Input File <==

--------------------------------------------------------------------------
#psi4
#
memory 32 gb

molecule  {
0 1
  O       -2.5416370     0.0659770    -0.3927070
  N       -0.7122740    -1.2241950    -0.0249760
  C        1.8380290     0.7314390    -0.0343340
  C        1.7187040    -0.7521010    -0.3806110
  C        0.5749500     1.5632640    -0.2598230
  C        0.6466580    -1.4925250     0.4187290
  C       -0.7820654     1.0899869     0.7147279
  C       -1.3868420    -0.0349600     0.0307530
  H        2.6566510     1.1652070    -0.6217190
  H        2.1344690     0.8237010     1.0199600
  H        1.5025340    -0.8781880    -1.4483810
  H        2.6863370    -1.2343500    -0.1898600
  H        0.2863390     1.5300770    -1.3181450
  H        0.8108260     2.6104720    -0.0371320
  H        0.7923570    -2.5718330     0.3164690
  H        0.7525260    -1.2638240     1.4882170
  H       -1.3561390     1.9546950     0.6612310
  H       -0.2921570     0.9237120     1.6255030
  H       -1.2491170    -1.9758090    -0.4428220
units angstrom
no_reorient  #important for SAPT in psi4, default
symmetry c1  #important for SAPT in psi4, default
}

set PROPERTIES_ORIGIN ["COM"]
properties('MP2/aug-cc-pvtz', properties = ['dipole'])
--------------------------------------------------------------------------

    Molecular point group: c1
  Charge       = 0
  Multiplicity = 1
  Basis Set: AUG-CC-PVTZ
    Blend: AUG-CC-PVTZ
  Basis Set: (AUG-CC-PVTZ AUX)
    Blend: AUG-CC-PVTZ-JKFIT

    Orbital Energies [Eh]
    ---------------------

    Doubly Occupied:

       1A    -20.504119     2A    -15.578021     3A    -11.339617
       4A    -11.277391     5A    -11.247442     6A    -11.234858
       7A    -11.234069     8A    -11.232893     9A     -1.363407
      10A     -1.227303    11A     -1.084442    12A     -1.037569
      13A     -0.953954    14A     -0.886994    15A     -0.792425
      16A     -0.771041    17A     -0.689651    18A     -0.682188
      19A     -0.622455    20A     -0.611871    21A     -0.606117
      22A     -0.591641    23A     -0.583298    24A     -0.541891
      25A     -0.520652    26A     -0.517523    27A     -0.484037
      28A     -0.476340    29A     -0.438174    30A     -0.405557
      31A     -0.381974

  @DF-RHF Final Energy:  -363.05022896475930

   => Energetics <=

    Nuclear Repulsion Energy =            392.9248731805033685
    One-Electron Energy =               -1272.1123761835258392
    Two-Electron Energy =                 516.1372740382631719
    Total Energy =                       -363.0502289647592988
  Basis Set: (AUG-CC-PVTZ AUX)
    Blend: AUG-CC-PVTZ-RI
    Molecular point group: c1

    Geometry (in Angstrom), charge = 0, multiplicity = 1:

       Center              X                  Y                   Z               Mass
    ------------   -----------------  -----------------  -----------------  -----------------
         O           -2.448598314507     0.081307264925    -0.395393588616    15.994914619570
         N           -0.619235314507    -1.208864735075    -0.027662588616    14.003074004430
         C            1.931067685493     0.746769264925    -0.037020588616    12.000000000000
         C            1.811742685493    -0.736770735075    -0.383297588616    12.000000000000
         C            0.667988685493     1.578594264925    -0.262509588616    12.000000000000
         C            0.739696685493    -1.477194735075     0.416042411384    12.000000000000
         C           -0.689026714507     1.105317164925     0.712041311384    12.000000000000
         C           -1.293803314507    -0.019629735075     0.028066411384    12.000000000000
         H            2.749689685493     1.180537264925    -0.624405588616     1.007825032230
         H            2.227507685493     0.839031264925     1.017273411384     1.007825032230
         H            1.595572685493    -0.862857735075    -1.451067588616     1.007825032230
         H            2.779375685493    -1.219019735075    -0.192546588616     1.007825032230
         H            0.379377685493     1.545407264925    -1.320831588616     1.007825032230
         H            0.903864685493     2.625802264925    -0.039818588616     1.007825032230
         H            0.885395685493    -2.556502735075     0.313782411384     1.007825032230
         H            0.845564685493    -1.248493735075     1.485530411384     1.007825032230
         H           -1.263100314507     1.970025264925     0.658544411384     1.007825032230
         H           -0.199118314507     0.939042264925     1.622816411384     1.007825032230
         H           -1.156078314507    -1.960478735075    -0.445508588616     1.007825032230

  Basis Set: AUG-CC-PVTZ
    Blend: AUG-CC-PVTZ
  Basis Set: (AUG-CC-PVTZ AUX)
    Blend: AUG-CC-PVTZ-JKFIT
	 Reference Energy          =    -363.0502289647592988 [Eh]
	 Singles Energy            =      -0.0000000000000000 [Eh]
	 Same-Spin Energy          =      -0.3779913152727942 [Eh]
	 Opposite-Spin Energy      =      -1.2488405922166597 [Eh]
	 Correlation Energy        =      -1.6268319074894539 [Eh]
	 Total Energy              =    -364.6770608722487736 [Eh]

	 ================> DF-SCS-MP2 Energies <==================
	-----------------------------------------------------------
	 SCS Same-Spin Scale       =       0.3333333333333333 [-]
	 SCS Opposite-Spin Scale   =       1.2000000000000000 [-]
	 SCS Same-Spin Energy      =      -0.1259971050909314 [Eh]
	 SCS Opposite-Spin Energy  =      -1.4986087106599915 [Eh]
	 SCS Correlation Energy    =      -1.6246058157509229 [Eh]
	 SCS Total Energy          =    -364.6748347805101957 [Eh]
	-----------------------------------------------------------

  Dipole Moment: [D]
     X:     4.2026      Y:    -0.9315      Z:     0.9588     Total:     4.4101

*** Psi4 exiting successfully. Buy a developer a beer!
