                               Psi4 1.3.2 release

  ==> Input File <==

--------------------------------------------------------------------------
#psi4
#
memory 32 gb

molecule  {
0 1
  O       -2.5416370     0.0659770    -0.3927070
  N       -0.7122740    -1.2241950    -0.0249760
  C        1.8630083     0.7611508    -0.0709662
  C        1.7187040    -0.7521010    -0.3806110
  C        0.5749500     1.5632640    -0.2598230
  C        0.6466580    -1.4925250     0.4187290
  C       -0.6257670     1.1444980     0.6024810
  C       -1.3868420    -0.0349600     0.0307530
  H        2.6566510     1.1652070    -0.6217190
  H        2.1344690     0.8237010     1.0199600
  H        1.5025340    -0.8781880    -1.4483810
  H        2.6863370    -1.2343500    -0.1898600
  H        0.2863390     1.5300770    -1.3181450
  H        0.8108260     2.6104720    -0.0371320
  H        0.7923570    -2.5718330     0.3164690
  H        0.7525260    -1.2638240     1.4882170
  H       -1.3561390     1.9546950     0.6612310
  H       -0.2921570     0.9237120     1.6255030
  H       -1.2491170    -1.9758090    -0.4428220
units angstrom
no_reorient  #important for SAPT in psi4, default
symmetry c1  #important for SAPT in psi4, default
}

set PROPERTIES_ORIGIN ["COM"]
properties('MP2/aug-cc-pvtz', properties = ['dipole'])
--------------------------------------------------------------------------

    Molecular point group: c1
  Charge       = 0
  Multiplicity = 1
  Basis Set: AUG-CC-PVTZ
    Blend: AUG-CC-PVTZ
  Basis Set: (AUG-CC-PVTZ AUX)
    Blend: AUG-CC-PVTZ-JKFIT

    Orbital Energies [Eh]
    ---------------------

    Doubly Occupied:

       1A    -20.509280     2A    -15.578727     3A    -11.343265
       4A    -11.278159     5A    -11.237379     6A    -11.236315
       7A    -11.234903     8A    -11.232721     9A     -1.363642
      10A     -1.228147    11A     -1.092022    12A     -1.040821
      13A     -0.947814    14A     -0.887565    15A     -0.795801
      16A     -0.764419    17A     -0.687345    18A     -0.678767
      19A     -0.628041    20A     -0.609936    21A     -0.599190
      22A     -0.591953    23A     -0.572719    24A     -0.546372
      25A     -0.522090    26A     -0.514912    27A     -0.479793
      28A     -0.472821    29A     -0.463779    30A     -0.411108
      31A     -0.383138

  @DF-RHF Final Energy:  -363.07256383052680

   => Energetics <=

    Nuclear Repulsion Energy =            393.5382625866189983
    One-Electron Energy =               -1273.3557673599036661
    Two-Electron Energy =                 516.7449409427579212
    Total Energy =                       -363.0725638305267466
  Basis Set: (AUG-CC-PVTZ AUX)
    Blend: AUG-CC-PVTZ-RI
    Molecular point group: c1

    Geometry (in Angstrom), charge = 0, multiplicity = 1:

       Center              X                  Y                   Z               Mass
    ------------   -----------------  -----------------  -----------------  -----------------
         O           -2.467834733181     0.072369888919    -0.379595171605    15.994914619570
         N           -0.638471733181    -1.217802111081    -0.011864171605    14.003074004430
         C            1.936810566819     0.767543688919    -0.057854371605    12.000000000000
         C            1.792506266819    -0.745708111081    -0.367499171605    12.000000000000
         C            0.648752266819     1.569656888919    -0.246711171605    12.000000000000
         C            0.720460266819    -1.486132111081     0.431840828395    12.000000000000
         C           -0.551964733181     1.150890888919     0.615592828395    12.000000000000
         C           -1.313039733181    -0.028567111081     0.043864828395    12.000000000000
         H            2.730453266819     1.171599888919    -0.608607171605     1.007825032230
         H            2.208271266819     0.830093888919     1.033071828395     1.007825032230
         H            1.576336266819    -0.871795111081    -1.435269171605     1.007825032230
         H            2.760139266819    -1.227957111081    -0.176748171605     1.007825032230
         H            0.360141266819     1.536469888919    -1.305033171605     1.007825032230
         H            0.884628266819     2.616864888919    -0.024020171605     1.007825032230
         H            0.866159266819    -2.565440111081     0.329580828395     1.007825032230
         H            0.826328266819    -1.257431111081     1.501328828395     1.007825032230
         H           -1.282336733181     1.961087888919     0.674342828395     1.007825032230
         H           -0.218354733181     0.930104888919     1.638614828395     1.007825032230
         H           -1.175314733181    -1.969416111081    -0.429710171605     1.007825032230

  Basis Set: AUG-CC-PVTZ
    Blend: AUG-CC-PVTZ
  Basis Set: (AUG-CC-PVTZ AUX)
    Blend: AUG-CC-PVTZ-JKFIT
	 Reference Energy          =    -363.0725638305268035 [Eh]
	 Singles Energy            =      -0.0000000000000000 [Eh]
	 Same-Spin Energy          =      -0.3775962170711424 [Eh]
	 Opposite-Spin Energy      =      -1.2476388526804245 [Eh]
	 Correlation Energy        =      -1.6252350697515670 [Eh]
	 Total Energy              =    -364.6977989002783715 [Eh]

	 ================> DF-SCS-MP2 Energies <==================
	-----------------------------------------------------------
	 SCS Same-Spin Scale       =       0.3333333333333333 [-]
	 SCS Opposite-Spin Scale   =       1.2000000000000000 [-]
	 SCS Same-Spin Energy      =      -0.1258654056903808 [Eh]
	 SCS Opposite-Spin Energy  =      -1.4971666232165093 [Eh]
	 SCS Correlation Energy    =      -1.6230320289068900 [Eh]
	 SCS Total Energy          =    -364.6955958594336948 [Eh]
	-----------------------------------------------------------

  Dipole Moment: [D]
     X:     4.0676      Y:    -1.0298      Z:     0.8810     Total:     4.2874

*** Psi4 exiting successfully. Buy a developer a beer!
