                               Psi4 1.3.2 release

  ==> Input File <==

--------------------------------------------------------------------------
#psi4
#
memory 32 gb

molecule  {
0 1
  O       -2.5416370     0.0659770    -0.3927070
  N       -0.7122740    -1.2241950    -0.0249760
  C        1.8380290     0.7314390    -0.0343340
  C        1.7187040    -0.7521010    -0.3806110
  C        0.5749500     1.5632640    -0.2598230
  C        0.6466580    -1.4925250     0.4187290
  C       -0.6257670     1.1444980     0.6024810
  C       -1.3868420    -0.0349600     0.0307530
  H        2.5820245     1.1256642    -0.5681723
  H        2.1344690     0.8237010     1.0199600
  H        1.5025340    -0.8781880    -1.4483810
  H        2.6863370    -1.2343500    -0.1898600
  H        0.2863390     1.5300770    -1.3181450
  H        0.8108260     2.6104720    -0.0371320
  H        0.7923570    -2.5718330     0.3164690
  H        0.7525260    -1.2638240     1.4882170
  H       -1.3561390     1.9546950     0.6612310
  H       -0.2921570     0.9237120     1.6255030
  H       -1.2491170    -1.9758090    -0.4428220
units angstrom
no_reorient  #important for SAPT in psi4, default
symmetry c1  #important for SAPT in psi4, default
}

set PROPERTIES_ORIGIN ["COM"]
properties('MP2/aug-cc-pvtz', properties = ['dipole'])
--------------------------------------------------------------------------

    Molecular point group: c1
  Charge       = 0
  Multiplicity = 1
  Basis Set: AUG-CC-PVTZ
    Blend: AUG-CC-PVTZ
  Basis Set: (AUG-CC-PVTZ AUX)
    Blend: AUG-CC-PVTZ-JKFIT

    Orbital Energies [Eh]
    ---------------------

    Doubly Occupied:

       1A    -20.508609     2A    -15.578198     3A    -11.342548
       4A    -11.276641     5A    -11.235885     6A    -11.235223
       7A    -11.233518     8A    -11.220448     9A     -1.363002
      10A     -1.227752    11A     -1.096521    12A     -1.041874
      13A     -0.950048    14A     -0.888217    15A     -0.800710
      16A     -0.763965    17A     -0.687757    18A     -0.680000
      19A     -0.630916    20A     -0.611356    21A     -0.601209
      22A     -0.592161    23A     -0.573089    24A     -0.544826
      25A     -0.521102    26A     -0.515352    27A     -0.480370
      28A     -0.475415    29A     -0.468885    30A     -0.410246
      31A     -0.382463

  @DF-RHF Final Energy:  -363.06977785388699

   => Energetics <=

    Nuclear Repulsion Energy =            394.6209113561096160
    One-Electron Energy =               -1275.5047665121717273
    Two-Electron Energy =                 517.8140773021750647
    Total Energy =                       -363.0697778538869898
  Basis Set: (AUG-CC-PVTZ AUX)
    Blend: AUG-CC-PVTZ-RI
    Molecular point group: c1

    Geometry (in Angstrom), charge = 0, multiplicity = 1:

       Center              X                  Y                   Z               Mass
    ------------   -----------------  -----------------  -----------------  -----------------
         O           -2.464518951615     0.075875191167    -0.383959642489    15.994914619570
         N           -0.635155951615    -1.214296808833    -0.016228642489    14.003074004430
         C            1.915147048385     0.741337191167    -0.025586642489    12.000000000000
         C            1.795822048385    -0.742202808833    -0.371863642489    12.000000000000
         C            0.652068048385     1.573162191167    -0.251075642489    12.000000000000
         C            0.723776048385    -1.482626808833     0.427476357511    12.000000000000
         C           -0.548648951615     1.154396191167     0.611228357511    12.000000000000
         C           -1.309723951615    -0.025061808833     0.039500357511    12.000000000000
         H            2.659142548385     1.135562391167    -0.559424942489     1.007825032230
         H            2.211587048385     0.833599191167     1.028707357511     1.007825032230
         H            1.579652048385    -0.868289808833    -1.439633642489     1.007825032230
         H            2.763455048385    -1.224451808833    -0.181112642489     1.007825032230
         H            0.363457048385     1.539975191167    -1.309397642489     1.007825032230
         H            0.887944048385     2.620370191167    -0.028384642489     1.007825032230
         H            0.869475048385    -2.561934808833     0.325216357511     1.007825032230
         H            0.829644048385    -1.253925808833     1.496964357511     1.007825032230
         H           -1.279020951615     1.964593191167     0.669978357511     1.007825032230
         H           -0.215038951615     0.933610191167     1.634250357511     1.007825032230
         H           -1.171998951615    -1.965910808833    -0.434074642489     1.007825032230

  Basis Set: AUG-CC-PVTZ
    Blend: AUG-CC-PVTZ
  Basis Set: (AUG-CC-PVTZ AUX)
    Blend: AUG-CC-PVTZ-JKFIT
	 Reference Energy          =    -363.0697778538869898 [Eh]
	 Singles Energy            =      -0.0000000000000000 [Eh]
	 Same-Spin Energy          =      -0.3777129860223495 [Eh]
	 Opposite-Spin Energy      =      -1.2471134848244274 [Eh]
	 Correlation Energy        =      -1.6248264708467768 [Eh]
	 Total Energy              =    -364.6946043247337457 [Eh]

	 ================> DF-SCS-MP2 Energies <==================
	-----------------------------------------------------------
	 SCS Same-Spin Scale       =       0.3333333333333333 [-]
	 SCS Opposite-Spin Scale   =       1.2000000000000000 [-]
	 SCS Same-Spin Energy      =      -0.1259043286741165 [Eh]
	 SCS Opposite-Spin Energy  =      -1.4965361817893128 [Eh]
	 SCS Correlation Energy    =      -1.6224405104634294 [Eh]
	 SCS Total Energy          =    -364.6922183643504241 [Eh]
	-----------------------------------------------------------

  Dipole Moment: [D]
     X:     4.1338      Y:    -1.0070      Z:     0.8728     Total:     4.3432

*** Psi4 exiting successfully. Buy a developer a beer!
