                               Psi4 1.4a3.dev225

  ==> Input File <==

--------------------------------------------------------------------------
#psi4
#
memory 32 gb

molecule  {
0 1
  O       -2.5416370     0.0659770    -0.3927070
  N       -0.7122740    -1.2241950    -0.0249760
  C        1.8380290     0.7314390    -0.0343340
  C        1.7187040    -0.7521010    -0.3806110
  C        0.5749500     1.5632640    -0.2598230
  C        0.6279721    -1.4888353     0.4126279
  C       -0.6257670     1.1444980     0.6024810
  C       -1.3868420    -0.0349600     0.0307530
  H        2.6566510     1.1652070    -0.6217190
  H        2.1344690     0.8237010     1.0199600
  H        1.5025340    -0.8781880    -1.4483810
  H        2.6863370    -1.2343500    -0.1898600
  H        0.2863390     1.5300770    -1.3181450
  H        0.8108260     2.6104720    -0.0371320
  H        0.7923570    -2.5718330     0.3164690
  H        0.7525260    -1.2638240     1.4882170
  H       -1.3561390     1.9546950     0.6612310
  H       -0.2921570     0.9237120     1.6255030
  H       -1.2491170    -1.9758090    -0.4428220
units angstrom
no_reorient  #important for SAPT in psi4, default
symmetry c1  #important for SAPT in psi4, default
}

set PROPERTIES_ORIGIN ["COM"]
properties('MP2/aug-cc-pvtz', properties = ['dipole'])
--------------------------------------------------------------------------

    Molecular point group: c1
  Charge       = 0
  Multiplicity = 1
  Basis Set: AUG-CC-PVTZ
    Blend: AUG-CC-PVTZ
  Basis Set: (AUG-CC-PVTZ AUX)
    Blend: AUG-CC-PVTZ-JKFIT

    Orbital Energies [Eh]
    ---------------------

    Doubly Occupied:

       1A    -20.510092     2A    -15.579529     3A    -11.343985
       4A    -11.277016     5A    -11.236807     6A    -11.236218
       7A    -11.234046     8A    -11.232639     9A     -1.364728
      10A     -1.233108    11A     -1.093794    12A     -1.041109
      13A     -0.944566    14A     -0.889645    15A     -0.795206
      16A     -0.765351    17A     -0.690780    18A     -0.677200
      19A     -0.626967    20A     -0.610792    21A     -0.602551
      22A     -0.591495    23A     -0.570953    24A     -0.545307
      25A     -0.518841    26A     -0.515072    27A     -0.480728
      28A     -0.470667    29A     -0.468356    30A     -0.411581
      31A     -0.382304

  @DF-RHF Final Energy:  -363.07505866749534

   => Energetics <=

    Nuclear Repulsion Energy =            394.3164594843984219
    One-Electron Energy =               -1274.9001711256073577
    Two-Electron Energy =                 517.5086529737136516
    Total Energy =                       -363.0750586674953411
  Basis Set: (AUG-CC-PVTZ AUX)
    Blend: AUG-CC-PVTZ-RI
    Molecular point group: c1

    Geometry (in Angstrom), charge = 0, multiplicity = 1:

       Center              X                  Y                   Z               Mass
    ------------   -----------------  -----------------  -----------------  -----------------
         O           -2.463201167835     0.075131243517    -0.382835002109    15.994914619570
         N           -0.633838167835    -1.215040756483    -0.015104002109    14.003074004430
         C            1.916464832165     0.740593243517    -0.024462002109    12.000000000000
         C            1.797139832165    -0.742946756483    -0.370739002109    12.000000000000
         C            0.653385832165     1.572418243517    -0.249951002109    12.000000000000
         C            0.706407932165    -1.479681056483     0.422499897891    12.000000000000
         C           -0.547331167835     1.153652243517     0.612352997891    12.000000000000
         C           -1.308406167835    -0.025805756483     0.040624997891    12.000000000000
         H            2.735086832165     1.174361243517    -0.611847002109     1.007825032230
         H            2.212904832165     0.832855243517     1.029831997891     1.007825032230
         H            1.580969832165    -0.869033756483    -1.438509002109     1.007825032230
         H            2.764772832165    -1.225195756483    -0.179988002109     1.007825032230
         H            0.364774832165     1.539231243517    -1.308273002109     1.007825032230
         H            0.889261832165     2.619626243517    -0.027260002109     1.007825032230
         H            0.870792832165    -2.562678756483     0.326340997891     1.007825032230
         H            0.830961832165    -1.254669756483     1.498088997891     1.007825032230
         H           -1.277703167835     1.963849243517     0.671102997891     1.007825032230
         H           -0.213721167835     0.932866243517     1.635374997891     1.007825032230
         H           -1.170681167835    -1.966654756483    -0.432950002109     1.007825032230

  Basis Set: AUG-CC-PVTZ
    Blend: AUG-CC-PVTZ
  Basis Set: (AUG-CC-PVTZ AUX)
    Blend: AUG-CC-PVTZ-JKFIT
	 Reference Energy          =    -363.0750586674953411 [Eh]
	 Singles Energy            =      -0.0000000000000000 [Eh]
	 Same-Spin Energy          =      -0.3778255157261525 [Eh]
	 Opposite-Spin Energy      =      -1.2476834677775757 [Eh]
	 Correlation Energy        =      -1.6255089835037282 [Eh]
	 Total Energy              =    -364.7005676509990622 [Eh]

	 ================> DF-SCS-MP2 Energies <==================
	-----------------------------------------------------------
	 SCS Same-Spin Scale       =       0.3333333333333333 [-]
	 SCS Opposite-Spin Scale   =       1.2000000000000000 [-]
	 SCS Same-Spin Energy      =      -0.1259418385753842 [Eh]
	 SCS Opposite-Spin Energy  =      -1.4972201613330907 [Eh]
	 SCS Correlation Energy    =      -1.6231619999084748 [Eh]
	 SCS Total Energy          =    -364.6982206674038025 [Eh]
	-----------------------------------------------------------

  Dipole Moment: [D]
     X:     4.0096      Y:    -1.0240      Z:     0.8811     Total:     4.2310

*** Psi4 exiting successfully. Buy a developer a beer!
