                               Psi4 1.4a3.dev225

  ==> Input File <==

--------------------------------------------------------------------------
#psi4
#
memory 32 gb

molecule  {
0 1
  O       -2.5416370     0.0659770    -0.3927070
  N       -0.7122740    -1.2241950    -0.0249760
  C        1.8380290     0.7314390    -0.0343340
  C        1.7187040    -0.7521010    -0.3806110
  C        0.5749500     1.5632640    -0.2598230
  C        0.6466580    -1.4925250     0.4187290
  C       -0.6257670     1.1444980     0.6024810
  C       -1.4336281    -0.0308706     0.0135967
  H        2.6566510     1.1652070    -0.6217190
  H        2.1344690     0.8237010     1.0199600
  H        1.5025340    -0.8781880    -1.4483810
  H        2.6863370    -1.2343500    -0.1898600
  H        0.2863390     1.5300770    -1.3181450
  H        0.8108260     2.6104720    -0.0371320
  H        0.7923570    -2.5718330     0.3164690
  H        0.7525260    -1.2638240     1.4882170
  H       -1.3561390     1.9546950     0.6612310
  H       -0.2921570     0.9237120     1.6255030
  H       -1.2491170    -1.9758090    -0.4428220
units angstrom
no_reorient  #important for SAPT in psi4, default
symmetry c1  #important for SAPT in psi4, default
}

set PROPERTIES_ORIGIN ["COM"]
properties('MP2/aug-cc-pvtz', properties = ['dipole'])
--------------------------------------------------------------------------

    Molecular point group: c1
  Charge       = 0
  Multiplicity = 1
  Basis Set: AUG-CC-PVTZ
    Blend: AUG-CC-PVTZ
  Basis Set: (AUG-CC-PVTZ AUX)
    Blend: AUG-CC-PVTZ-JKFIT

    Orbital Energies [Eh]
    ---------------------

    Doubly Occupied:

       1A    -20.519089     2A    -15.570978     3A    -11.341730
       4A    -11.274353     5A    -11.234680     6A    -11.233941
       7A    -11.231540     8A    -11.230792     9A     -1.397207
      10A     -1.222178    11A     -1.090085    12A     -1.037145
      13A     -0.940009    14A     -0.883159    15A     -0.792184
      16A     -0.755592    17A     -0.686205    18A     -0.679689
      19A     -0.625916    20A     -0.611756    21A     -0.599980
      22A     -0.597845    23A     -0.570711    24A     -0.550068
      25A     -0.524984    26A     -0.515263    27A     -0.478866
      28A     -0.472234    29A     -0.467015    30A     -0.410972
      31A     -0.383165

  @DF-RHF Final Energy:  -363.07479531082299

   => Energetics <=

    Nuclear Repulsion Energy =            393.9450903688118046
    One-Electron Energy =               -1274.1811055671871600
    Two-Electron Energy =                 517.1612198875523063
    Total Energy =                       -363.0747953108229922
  Basis Set: (AUG-CC-PVTZ AUX)
    Blend: AUG-CC-PVTZ-RI
    Molecular point group: c1

    Geometry (in Angstrom), charge = 0, multiplicity = 1:

       Center              X                  Y                   Z               Mass
    ------------   -----------------  -----------------  -----------------  -----------------
         O           -2.460219294102     0.075088829053    -0.381661871296    15.994914619570
         N           -0.630856294102    -1.215083170947    -0.013930871296    14.003074004430
         C            1.919446705898     0.740550829053    -0.023288871296    12.000000000000
         C            1.800121705898    -0.742989170947    -0.369565871296    12.000000000000
         C            0.656367705898     1.572375829053    -0.248777871296    12.000000000000
         C            0.728075705898    -1.483413170947     0.429774128704    12.000000000000
         C           -0.544349294102     1.153609829053     0.613526128704    12.000000000000
         C           -1.352210394102    -0.021758770947     0.024641828704    12.000000000000
         H            2.738068705898     1.174318829053    -0.610673871296     1.007825032230
         H            2.215886705898     0.832812829053     1.031005128704     1.007825032230
         H            1.583951705898    -0.869076170947    -1.437335871296     1.007825032230
         H            2.767754705898    -1.225238170947    -0.178814871296     1.007825032230
         H            0.367756705898     1.539188829053    -1.307099871296     1.007825032230
         H            0.892243705898     2.619583829053    -0.026086871296     1.007825032230
         H            0.873774705898    -2.562721170947     0.327514128704     1.007825032230
         H            0.833943705898    -1.254712170947     1.499262128704     1.007825032230
         H           -1.274721294102     1.963806829053     0.672276128704     1.007825032230
         H           -0.210739294102     0.932823829053     1.636548128704     1.007825032230
         H           -1.167699294102    -1.966697170947    -0.431776871296     1.007825032230

  Basis Set: AUG-CC-PVTZ
    Blend: AUG-CC-PVTZ
  Basis Set: (AUG-CC-PVTZ AUX)
    Blend: AUG-CC-PVTZ-JKFIT
	 Reference Energy          =    -363.0747953108229922 [Eh]
	 Singles Energy            =      -0.0000000000000000 [Eh]
	 Same-Spin Energy          =      -0.3766867454435814 [Eh]
	 Opposite-Spin Energy      =      -1.2457054911627647 [Eh]
	 Correlation Energy        =      -1.6223922366063461 [Eh]
	 Total Energy              =    -364.6971875474293370 [Eh]

	 ================> DF-SCS-MP2 Energies <==================
	-----------------------------------------------------------
	 SCS Same-Spin Scale       =       0.3333333333333333 [-]
	 SCS Opposite-Spin Scale   =       1.2000000000000000 [-]
	 SCS Same-Spin Energy      =      -0.1255622484811938 [Eh]
	 SCS Opposite-Spin Energy  =      -1.4948465893953176 [Eh]
	 SCS Correlation Energy    =      -1.6204088378765114 [Eh]
	 SCS Total Energy          =    -364.6952041486995313 [Eh]
	-----------------------------------------------------------

  Dipole Moment: [D]
     X:     3.6701      Y:    -0.9238      Z:     0.7988     Total:     3.8680

*** Psi4 exiting successfully. Buy a developer a beer!
