                               Psi4 1.3.2 release

  ==> Input File <==

--------------------------------------------------------------------------
#psi4
#
memory 32 gb

molecule  {
0 1
  O       -2.5416370     0.0659770    -0.3927070
  N       -0.7122740    -1.2241950    -0.0249760
  C        1.8380290     0.7314390    -0.0343340
  C        1.7187040    -0.7521010    -0.3806110
  C        0.5749500     1.5632640    -0.2598230
  C        0.4597991    -1.4556285     0.3577177
  C       -0.6257670     1.1444980     0.6024810
  C       -1.3868420    -0.0349600     0.0307530
  H        2.6566510     1.1652070    -0.6217190
  H        2.1344690     0.8237010     1.0199600
  H        1.5025340    -0.8781880    -1.4483810
  H        2.6863370    -1.2343500    -0.1898600
  H        0.2863390     1.5300770    -1.3181450
  H        0.8108260     2.6104720    -0.0371320
  H        0.7923570    -2.5718330     0.3164690
  H        0.7525260    -1.2638240     1.4882170
  H       -1.3561390     1.9546950     0.6612310
  H       -0.2921570     0.9237120     1.6255030
  H       -1.2491170    -1.9758090    -0.4428220
units angstrom
no_reorient  #important for SAPT in psi4, default
symmetry c1  #important for SAPT in psi4, default
}

set PROPERTIES_ORIGIN ["COM"]
properties('MP2/aug-cc-pvtz', properties = ['dipole'])
--------------------------------------------------------------------------

    Molecular point group: c1
  Charge       = 0
  Multiplicity = 1
  Basis Set: AUG-CC-PVTZ
    Blend: AUG-CC-PVTZ
  Basis Set: (AUG-CC-PVTZ AUX)
    Blend: AUG-CC-PVTZ-JKFIT

    Orbital Energies [Eh]
    ---------------------

    Doubly Occupied:

       1A    -20.520900     2A    -15.585157     3A    -11.353099
       4A    -11.279203     5A    -11.239929     6A    -11.236967
       7A    -11.231024     8A    -11.228873     9A     -1.380513
      10A     -1.289130    11A     -1.093349    12A     -1.032196
      13A     -0.937316    14A     -0.904897    15A     -0.797644
      16A     -0.779568    17A     -0.715604    18A     -0.682475
      19A     -0.638160    20A     -0.614566    21A     -0.603217
      22A     -0.592248    23A     -0.574018    24A     -0.544459
      25A     -0.517122    26A     -0.503520    27A     -0.476049
      28A     -0.471182    29A     -0.454276    30A     -0.419718
      31A     -0.365136

  @DF-RHF Final Energy:  -363.02548121911127

   => Energetics <=

    Nuclear Repulsion Energy =            396.6300550326465668
    One-Electron Energy =               -1279.1880432948657926
    Two-Electron Energy =                 519.5325070431078984
    Total Energy =                       -363.0254812191112705
  Basis Set: (AUG-CC-PVTZ AUX)
    Blend: AUG-CC-PVTZ-RI
    Molecular point group: c1

    Geometry (in Angstrom), charge = 0, multiplicity = 1:

       Center              X                  Y                   Z               Mass
    ------------   -----------------  -----------------  -----------------  -----------------
         O           -2.445355364200     0.071607479107    -0.377008165181    15.994914619570
         N           -0.615992364200    -1.218564520893    -0.009277165181    14.003074004430
         C            1.934310635800     0.737069479107    -0.018635165181    12.000000000000
         C            1.814985635800    -0.746470520893    -0.364912165181    12.000000000000
         C            0.671231635800     1.568894479107    -0.244124165181    12.000000000000
         C            0.556080735800    -1.449998020893     0.373416534819    12.000000000000
         C           -0.529485364200     1.150128479107     0.618179834819    12.000000000000
         C           -1.290560364200    -0.029329520893     0.046451834819    12.000000000000
         H            2.752932635800     1.170837479107    -0.606020165181     1.007825032230
         H            2.230750635800     0.829331479107     1.035658834819     1.007825032230
         H            1.598815635800    -0.872557520893    -1.432682165181     1.007825032230
         H            2.782618635800    -1.228719520893    -0.174161165181     1.007825032230
         H            0.382620635800     1.535707479107    -1.302446165181     1.007825032230
         H            0.907107635800     2.616102479107    -0.021433165181     1.007825032230
         H            0.888638635800    -2.566202520893     0.332167834819     1.007825032230
         H            0.848807635800    -1.258193520893     1.503915834819     1.007825032230
         H           -1.259857364200     1.960325479107     0.676929834819     1.007825032230
         H           -0.195875364200     0.929342479107     1.641201834819     1.007825032230
         H           -1.152835364200    -1.970178520893    -0.427123165181     1.007825032230

  Basis Set: AUG-CC-PVTZ
    Blend: AUG-CC-PVTZ
  Basis Set: (AUG-CC-PVTZ AUX)
    Blend: AUG-CC-PVTZ-JKFIT
	 Reference Energy          =    -363.0254812191112705 [Eh]
	 Singles Energy            =      -0.0000000000000000 [Eh]
	 Same-Spin Energy          =      -0.3803321271408336 [Eh]
	 Opposite-Spin Energy      =      -1.2505177189994803 [Eh]
	 Correlation Energy        =      -1.6308498461403138 [Eh]
	 Total Energy              =    -364.6563310652516066 [Eh]

	 ================> DF-SCS-MP2 Energies <==================
	-----------------------------------------------------------
	 SCS Same-Spin Scale       =       0.3333333333333333 [-]
	 SCS Opposite-Spin Scale   =       1.2000000000000000 [-]
	 SCS Same-Spin Energy      =      -0.1267773757136112 [Eh]
	 SCS Opposite-Spin Energy  =      -1.5006212627993762 [Eh]
	 SCS Correlation Energy    =      -1.6273986385129875 [Eh]
	 SCS Total Energy          =    -364.6528798576242707 [Eh]
	-----------------------------------------------------------

  Dipole Moment: [D]
     X:     3.3552      Y:    -0.8906      Z:     0.6874     Total:     3.5388

*** Psi4 exiting successfully. Buy a developer a beer!
