                               Psi4 1.3.2 release

  ==> Input File <==

--------------------------------------------------------------------------
#psi4
#
memory 32 gb

molecule  {
0 1
  O       -2.5414376     0.0869274    -0.3877092
  N       -0.7122740    -1.2241950    -0.0249760
  C        1.8380290     0.7314390    -0.0343340
  C        1.7187040    -0.7521010    -0.3806110
  C        0.5749500     1.5632640    -0.2598230
  C        0.6466580    -1.4925250     0.4187290
  C       -0.6257670     1.1444980     0.6024810
  C       -1.3868420    -0.0349600     0.0307530
  H        2.6566510     1.1652070    -0.6217190
  H        2.1344690     0.8237010     1.0199600
  H        1.5025340    -0.8781880    -1.4483810
  H        2.6863370    -1.2343500    -0.1898600
  H        0.2863390     1.5300770    -1.3181450
  H        0.8108260     2.6104720    -0.0371320
  H        0.7923570    -2.5718330     0.3164690
  H        0.7525260    -1.2638240     1.4882170
  H       -1.3561390     1.9546950     0.6612310
  H       -0.2921570     0.9237120     1.6255030
  H       -1.2491170    -1.9758090    -0.4428220
units angstrom
no_reorient  #important for SAPT in psi4, default
symmetry c1  #important for SAPT in psi4, default
}

set PROPERTIES_ORIGIN ["COM"]
properties('MP2/aug-cc-pvtz', properties = ['dipole'])
--------------------------------------------------------------------------

    Molecular point group: c1
  Charge       = 0
  Multiplicity = 1
  Basis Set: AUG-CC-PVTZ
    Blend: AUG-CC-PVTZ
  Basis Set: (AUG-CC-PVTZ AUX)
    Blend: AUG-CC-PVTZ-JKFIT

    Orbital Energies [Eh]
    ---------------------

    Doubly Occupied:

       1A    -20.509319     2A    -15.579789     3A    -11.343054
       4A    -11.277930     5A    -11.236076     6A    -11.234928
       7A    -11.234516     8A    -11.232902     9A     -1.363235
      10A     -1.229444    11A     -1.093772    12A     -1.041954
      13A     -0.945319    14A     -0.888563    15A     -0.795411
      16A     -0.764237    17A     -0.688137    18A     -0.676859
      19A     -0.626351    20A     -0.611893    21A     -0.601745
      22A     -0.591864    23A     -0.569753    24A     -0.545325
      25A     -0.519281    26A     -0.515817    27A     -0.481130
      28A     -0.470247    29A     -0.469221    30A     -0.410058
      31A     -0.383668

  @DF-RHF Final Energy:  -363.07540810673675

   => Energetics <=

    Nuclear Repulsion Energy =            394.0847135380461168
    One-Electron Energy =               -1274.4566485562020262
    Two-Electron Energy =                 517.2965269114191642
    Total Energy =                       -363.0754081067367451
  Basis Set: (AUG-CC-PVTZ AUX)
    Blend: AUG-CC-PVTZ-RI
    Molecular point group: c1

    Geometry (in Angstrom), charge = 0, multiplicity = 1:

       Center              X                  Y                   Z               Mass
    ------------   -----------------  -----------------  -----------------  -----------------
         O           -2.465012839758     0.093509897782    -0.379191527192    15.994914619570
         N           -0.635849239758    -1.217612502218    -0.016458327192    14.003074004430
         C            1.914453760242     0.738021497782    -0.025816327192    12.000000000000
         C            1.795128760242    -0.745518502218    -0.372093327192    12.000000000000
         C            0.651374760242     1.569846497782    -0.251305327192    12.000000000000
         C            0.723082760242    -1.485942502218     0.427246672808    12.000000000000
         C           -0.549342239758     1.151080497782     0.610998672808    12.000000000000
         C           -1.310417239758    -0.028377502218     0.039270672808    12.000000000000
         H            2.733075760242     1.171789497782    -0.613201327192     1.007825032230
         H            2.210893760242     0.830283497782     1.028477672808     1.007825032230
         H            1.578958760242    -0.871605502218    -1.439863327192     1.007825032230
         H            2.762761760242    -1.227767502218    -0.181342327192     1.007825032230
         H            0.362763760242     1.536659497782    -1.309627327192     1.007825032230
         H            0.887250760242     2.617054497782    -0.028614327192     1.007825032230
         H            0.868781760242    -2.565250502218     0.324986672808     1.007825032230
         H            0.828950760242    -1.257241502218     1.496734672808     1.007825032230
         H           -1.279714239758     1.961277497782     0.669748672808     1.007825032230
         H           -0.215732239758     0.930294497782     1.634020672808     1.007825032230
         H           -1.172692239758    -1.969226502218    -0.434304327192     1.007825032230

  Basis Set: AUG-CC-PVTZ
    Blend: AUG-CC-PVTZ
  Basis Set: (AUG-CC-PVTZ AUX)
    Blend: AUG-CC-PVTZ-JKFIT
	 Reference Energy          =    -363.0754081067367451 [Eh]
	 Singles Energy            =      -0.0000000000000000 [Eh]
	 Same-Spin Energy          =      -0.3777237129293872 [Eh]
	 Opposite-Spin Energy      =      -1.2476805468984780 [Eh]
	 Correlation Energy        =      -1.6254042598278651 [Eh]
	 Total Energy              =    -364.7008123665646053 [Eh]

	 ================> DF-SCS-MP2 Energies <==================
	-----------------------------------------------------------
	 SCS Same-Spin Scale       =       0.3333333333333333 [-]
	 SCS Opposite-Spin Scale   =       1.2000000000000000 [-]
	 SCS Same-Spin Energy      =      -0.1259079043097957 [Eh]
	 SCS Opposite-Spin Energy  =      -1.4972166562781735 [Eh]
	 SCS Correlation Energy    =      -1.6231245605879692 [Eh]
	 SCS Total Energy          =    -364.6985326673247414 [Eh]
	-----------------------------------------------------------

  Dipole Moment: [D]
     X:     4.0690      Y:    -1.0954      Z:     0.8829     Total:     4.3053

*** Psi4 exiting successfully. Buy a developer a beer!
