                               Psi4 1.3.2 release

  ==> Input File <==

--------------------------------------------------------------------------
#psi4
#
memory 32 gb

molecule  {
0 1
  O       -2.5416370     0.0659770    -0.3927070
  N       -0.7122740    -1.2241950    -0.0249760
  C        1.8380290     0.7314390    -0.0343340
  C        1.7441176    -0.7556068    -0.3733216
  C        0.5749500     1.5632640    -0.2598230
  C        0.6466580    -1.4925250     0.4187290
  C       -0.6257670     1.1444980     0.6024810
  C       -1.3868420    -0.0349600     0.0307530
  H        2.6566510     1.1652070    -0.6217190
  H        2.1344690     0.8237010     1.0199600
  H        1.5025340    -0.8781880    -1.4483810
  H        2.6863370    -1.2343500    -0.1898600
  H        0.2863390     1.5300770    -1.3181450
  H        0.8108260     2.6104720    -0.0371320
  H        0.7923570    -2.5718330     0.3164690
  H        0.7525260    -1.2638240     1.4882170
  H       -1.3561390     1.9546950     0.6612310
  H       -0.2921570     0.9237120     1.6255030
  H       -1.2491170    -1.9758090    -0.4428220
units angstrom
no_reorient  #important for SAPT in psi4, default
symmetry c1  #important for SAPT in psi4, default
}

set PROPERTIES_ORIGIN ["COM"]
properties('MP2/aug-cc-pvtz', properties = ['dipole'])
--------------------------------------------------------------------------

    Molecular point group: c1
  Charge       = 0
  Multiplicity = 1
  Basis Set: AUG-CC-PVTZ
    Blend: AUG-CC-PVTZ
  Basis Set: (AUG-CC-PVTZ AUX)
    Blend: AUG-CC-PVTZ-JKFIT

    Orbital Energies [Eh]
    ---------------------

    Doubly Occupied:

       1A    -20.509231     2A    -15.579217     3A    -11.343155
       4A    -11.277576     5A    -11.237133     6A    -11.236092
       7A    -11.234001     8A    -11.232881     9A     -1.363578
      10A     -1.227818    11A     -1.093706    12A     -1.041651
      13A     -0.944684    14A     -0.889578    15A     -0.795432
      16A     -0.764144    17A     -0.687779    18A     -0.676493
      19A     -0.626689    20A     -0.610903    21A     -0.601794
      22A     -0.591821    23A     -0.572686    24A     -0.544733
      25A     -0.519710    26A     -0.514366    27A     -0.479678
      28A     -0.473382    29A     -0.468367    30A     -0.410747
      31A     -0.382497

  @DF-RHF Final Energy:  -363.07485438889847

   => Energetics <=

    Nuclear Repulsion Energy =            393.7664436558418402
    One-Electron Energy =               -1273.8195537593840072
    Two-Electron Energy =                 516.9782557146437512
    Total Energy =                       -363.0748543888984159
  Basis Set: (AUG-CC-PVTZ AUX)
    Blend: AUG-CC-PVTZ-RI
    Molecular point group: c1

    Geometry (in Angstrom), charge = 0, multiplicity = 1:

       Center              X                  Y                   Z               Mass
    ------------   -----------------  -----------------  -----------------  -----------------
         O           -2.467880819250     0.075894799380    -0.384255945029    15.994914619570
         N           -0.638517819250    -1.214277200620    -0.016524945029    14.003074004430
         C            1.911785180750     0.741356799380    -0.025882945029    12.000000000000
         C            1.817873780750    -0.745689000620    -0.364870545029    12.000000000000
         C            0.648706180750     1.573181799380    -0.251371945029    12.000000000000
         C            0.720414180750    -1.482607200620     0.427180054971    12.000000000000
         C           -0.552010819250     1.154415799380     0.610932054971    12.000000000000
         C           -1.313085819250    -0.025042200620     0.039204054971    12.000000000000
         H            2.730407180750     1.175124799380    -0.613267945029     1.007825032230
         H            2.208225180750     0.833618799380     1.028411054971     1.007825032230
         H            1.576290180750    -0.868270200620    -1.439929945029     1.007825032230
         H            2.760093180750    -1.224432200620    -0.181408945029     1.007825032230
         H            0.360095180750     1.539994799380    -1.309693945029     1.007825032230
         H            0.884582180750     2.620389799380    -0.028680945029     1.007825032230
         H            0.866113180750    -2.561915200620     0.324920054971     1.007825032230
         H            0.826282180750    -1.253906200620     1.496668054971     1.007825032230
         H           -1.282382819250     1.964612799380     0.669682054971     1.007825032230
         H           -0.218400819250     0.933629799380     1.633954054971     1.007825032230
         H           -1.175360819250    -1.965891200620    -0.434370945029     1.007825032230

  Basis Set: AUG-CC-PVTZ
    Blend: AUG-CC-PVTZ
  Basis Set: (AUG-CC-PVTZ AUX)
    Blend: AUG-CC-PVTZ-JKFIT
	 Reference Energy          =    -363.0748543888984727 [Eh]
	 Singles Energy            =      -0.0000000000000000 [Eh]
	 Same-Spin Energy          =      -0.3776537146781148 [Eh]
	 Opposite-Spin Energy      =      -1.2476057883887264 [Eh]
	 Correlation Energy        =      -1.6252595030668413 [Eh]
	 Total Energy              =    -364.7001138919653158 [Eh]

	 ================> DF-SCS-MP2 Energies <==================
	-----------------------------------------------------------
	 SCS Same-Spin Scale       =       0.3333333333333333 [-]
	 SCS Opposite-Spin Scale   =       1.2000000000000000 [-]
	 SCS Same-Spin Energy      =      -0.1258845715593716 [Eh]
	 SCS Opposite-Spin Energy  =      -1.4971269460664716 [Eh]
	 SCS Correlation Energy    =      -1.6230115176258431 [Eh]
	 SCS Total Energy          =    -364.6978659065243278 [Eh]
	-----------------------------------------------------------

  Dipole Moment: [D]
     X:     4.0722      Y:    -1.0331      Z:     0.8995     Total:     4.2965

*** Psi4 exiting successfully. Buy a developer a beer!
