                               Psi4 1.3.2 release

  ==> Input File <==

--------------------------------------------------------------------------
#psi4
#
memory 32 gb

molecule  {
0 1
  O       -2.5416370     0.0659770    -0.3927070
  N       -0.7122740    -1.2241950    -0.0249760
  C        1.8380290     0.7314390    -0.0343340
  C        1.7187040    -0.7521010    -0.3806110
  C        0.5749500     1.5632640    -0.2598230
  C        0.6466580    -1.4925250     0.4187290
  C       -0.6257670     1.1444980     0.6024810
  C       -1.2513491    -0.1168146     0.0412620
  H        2.6566510     1.1652070    -0.6217190
  H        2.1344690     0.8237010     1.0199600
  H        1.5025340    -0.8781880    -1.4483810
  H        2.6863370    -1.2343500    -0.1898600
  H        0.2863390     1.5300770    -1.3181450
  H        0.8108260     2.6104720    -0.0371320
  H        0.7923570    -2.5718330     0.3164690
  H        0.7525260    -1.2638240     1.4882170
  H       -1.3561390     1.9546950     0.6612310
  H       -0.2921570     0.9237120     1.6255030
  H       -1.2491170    -1.9758090    -0.4428220
units angstrom
no_reorient  #important for SAPT in psi4, default
symmetry c1  #important for SAPT in psi4, default
}

set PROPERTIES_ORIGIN ["COM"]
properties('MP2/aug-cc-pvtz', properties = ['dipole'])
--------------------------------------------------------------------------

    Molecular point group: c1
  Charge       = 0
  Multiplicity = 1
  Basis Set: AUG-CC-PVTZ
    Blend: AUG-CC-PVTZ
  Basis Set: (AUG-CC-PVTZ AUX)
    Blend: AUG-CC-PVTZ-JKFIT

    Orbital Energies [Eh]
    ---------------------

    Doubly Occupied:

       1A    -20.473380     2A    -15.607225     3A    -11.335444
       4A    -11.291744     5A    -11.245723     6A    -11.239948
       7A    -11.238639     8A    -11.237046     9A     -1.342300
      10A     -1.214810    11A     -1.104634    12A     -1.049865
      13A     -0.960711    14A     -0.903932    15A     -0.808237
      16A     -0.794249    17A     -0.707335    18A     -0.668505
      19A     -0.640789    20A     -0.624575    21A     -0.607929
      22A     -0.584346    23A     -0.569754    24A     -0.534718
      25A     -0.521933    26A     -0.495787    27A     -0.484354
      28A     -0.474238    29A     -0.467515    30A     -0.381619
      31A     -0.369437

  @DF-RHF Final Energy:  -363.03302657017849

   => Energetics <=

    Nuclear Repulsion Energy =            395.1650662871925874
    One-Electron Energy =               -1276.4347453801563006
    Two-Electron Energy =                 518.2366525227852208
    Total Energy =                       -363.0330265701785493
  Basis Set: (AUG-CC-PVTZ AUX)
    Blend: AUG-CC-PVTZ-RI
    Molecular point group: c1

    Geometry (in Angstrom), charge = 0, multiplicity = 1:

       Center              X                  Y                   Z               Mass
    ------------   -----------------  -----------------  -----------------  -----------------
         O           -2.479561966474     0.084208840872    -0.384597595290    15.994914619570
         N           -0.650198966474    -1.205963159128    -0.016866595290    14.003074004430
         C            1.900104033526     0.749670840872    -0.026224595290    12.000000000000
         C            1.780779033526    -0.733869159128    -0.372501595290    12.000000000000
         C            0.637025033526     1.581495840872    -0.251713595290    12.000000000000
         C            0.708733033526    -1.474293159128     0.426838404710    12.000000000000
         C           -0.563691966474     1.162729840872     0.610590404710    12.000000000000
         C           -1.189274066474    -0.098582759128     0.049371404710    12.000000000000
         H            2.718726033526     1.183438840872    -0.613609595290     1.007825032230
         H            2.196544033526     0.841932840872     1.028069404710     1.007825032230
         H            1.564609033526    -0.859956159128    -1.440271595290     1.007825032230
         H            2.748412033526    -1.216118159128    -0.181750595290     1.007825032230
         H            0.348414033526     1.548308840872    -1.310035595290     1.007825032230
         H            0.872901033526     2.628703840872    -0.029022595290     1.007825032230
         H            0.854432033526    -2.553601159128     0.324578404710     1.007825032230
         H            0.814601033526    -1.245592159128     1.496326404710     1.007825032230
         H           -1.294063966474     1.972926840872     0.669340404710     1.007825032230
         H           -0.230081966474     0.941943840872     1.633612404710     1.007825032230
         H           -1.187041966474    -1.957577159128    -0.434712595290     1.007825032230

  Basis Set: AUG-CC-PVTZ
    Blend: AUG-CC-PVTZ
  Basis Set: (AUG-CC-PVTZ AUX)
    Blend: AUG-CC-PVTZ-JKFIT
	 Reference Energy          =    -363.0330265701784924 [Eh]
	 Singles Energy            =      -0.0000000000000000 [Eh]
	 Same-Spin Energy          =      -0.3799142283642788 [Eh]
	 Opposite-Spin Energy      =      -1.2518533501233768 [Eh]
	 Correlation Energy        =      -1.6317675784876555 [Eh]
	 Total Energy              =    -364.6647941486661466 [Eh]

	 ================> DF-SCS-MP2 Energies <==================
	-----------------------------------------------------------
	 SCS Same-Spin Scale       =       0.3333333333333333 [-]
	 SCS Opposite-Spin Scale   =       1.2000000000000000 [-]
	 SCS Same-Spin Energy      =      -0.1266380761214262 [Eh]
	 SCS Opposite-Spin Energy  =      -1.5022240201480521 [Eh]
	 SCS Correlation Energy    =      -1.6288620962694784 [Eh]
	 SCS Total Energy          =    -364.6618886664479646 [Eh]
	-----------------------------------------------------------

  Dipole Moment: [D]
     X:     5.3133      Y:    -1.7220      Z:     1.1216     Total:     5.6969

*** Psi4 exiting successfully. Buy a developer a beer!
