                               Psi4 1.4a3.dev225

  ==> Input File <==

--------------------------------------------------------------------------
#psi4
#
memory 32 gb

molecule  {
0 1
  O       -2.5416370     0.0659770    -0.3927070
  N       -0.7122740    -1.2241950    -0.0249760
  C        1.8380290     0.7314390    -0.0343340
  C        1.7187040    -0.7521010    -0.3806110
  C        0.5749500     1.5632640    -0.2598230
  C        0.6466580    -1.4925250     0.4187290
  C       -0.6257670     1.1444980     0.6024810
  C       -1.3621933    -0.0784145     0.0287167
  H        2.6566510     1.1652070    -0.6217190
  H        2.1344690     0.8237010     1.0199600
  H        1.5025340    -0.8781880    -1.4483810
  H        2.6863370    -1.2343500    -0.1898600
  H        0.2863390     1.5300770    -1.3181450
  H        0.8108260     2.6104720    -0.0371320
  H        0.7923570    -2.5718330     0.3164690
  H        0.7525260    -1.2638240     1.4882170
  H       -1.3561390     1.9546950     0.6612310
  H       -0.2921570     0.9237120     1.6255030
  H       -1.2491170    -1.9758090    -0.4428220
units angstrom
no_reorient  #important for SAPT in psi4, default
symmetry c1  #important for SAPT in psi4, default
}

set PROPERTIES_ORIGIN ["COM"]
properties('MP2/aug-cc-pvtz', properties = ['dipole'])
--------------------------------------------------------------------------

    Molecular point group: c1
  Charge       = 0
  Multiplicity = 1
  Basis Set: AUG-CC-PVTZ
    Blend: AUG-CC-PVTZ
  Basis Set: (AUG-CC-PVTZ AUX)
    Blend: AUG-CC-PVTZ-JKFIT

    Orbital Energies [Eh]
    ---------------------

    Doubly Occupied:

       1A    -20.499369     2A    -15.587711     3A    -11.340073
       4A    -11.282789     5A    -11.237735     6A    -11.235760
       7A    -11.235064     8A    -11.233953     9A     -1.349805
      10A     -1.239704    11A     -1.095944    12A     -1.042608
      13A     -0.948364    14A     -0.892064    15A     -0.797787
      16A     -0.772769    17A     -0.694497    18A     -0.671706
      19A     -0.629544    20A     -0.614052    21A     -0.602883
      22A     -0.585556    23A     -0.572544    24A     -0.538823
      25A     -0.521603    26A     -0.513615    27A     -0.482349
      28A     -0.470451    29A     -0.469284    30A     -0.402367
      31A     -0.384580

  @DF-RHF Final Energy:  -363.07155679570729

   => Energetics <=

    Nuclear Repulsion Energy =            394.3159588180405990
    One-Electron Energy =               -1274.8843271678608744
    Two-Electron Energy =                 517.4968115541129237
    Total Energy =                       -363.0715567957073517
  Basis Set: (AUG-CC-PVTZ AUX)
    Blend: AUG-CC-PVTZ-RI
    Molecular point group: c1

    Geometry (in Angstrom), charge = 0, multiplicity = 1:

       Center              X                  Y                   Z               Mass
    ------------   -----------------  -----------------  -----------------  -----------------
         O           -2.467799651315     0.080133985549    -0.383266341400    15.994914619570
         N           -0.638436651315    -1.210038014451    -0.015535341400    14.003074004430
         C            1.911866348685     0.745595985549    -0.024893341400    12.000000000000
         C            1.792541348685    -0.737944014451    -0.371170341400    12.000000000000
         C            0.648787348685     1.577420985549    -0.250382341400    12.000000000000
         C            0.720495348685    -1.478368014451     0.428169658600    12.000000000000
         C           -0.551929651315     1.158654985549     0.611921658600    12.000000000000
         C           -1.288355951315    -0.064257514451     0.038157358600    12.000000000000
         H            2.730488348685     1.179363985549    -0.612278341400     1.007825032230
         H            2.208306348685     0.837857985549     1.029400658600     1.007825032230
         H            1.576371348685    -0.864031014451    -1.438940341400     1.007825032230
         H            2.760174348685    -1.220193014451    -0.180419341400     1.007825032230
         H            0.360176348685     1.544233985549    -1.308704341400     1.007825032230
         H            0.884663348685     2.624628985549    -0.027691341400     1.007825032230
         H            0.866194348685    -2.557676014451     0.325909658600     1.007825032230
         H            0.826363348685    -1.249667014451     1.497657658600     1.007825032230
         H           -1.282301651315     1.968851985549     0.670671658600     1.007825032230
         H           -0.218319651315     0.937868985549     1.634943658600     1.007825032230
         H           -1.175279651315    -1.961652014451    -0.433381341400     1.007825032230

  Basis Set: AUG-CC-PVTZ
    Blend: AUG-CC-PVTZ
  Basis Set: (AUG-CC-PVTZ AUX)
    Blend: AUG-CC-PVTZ-JKFIT
	 Reference Energy          =    -363.0715567957072949 [Eh]
	 Singles Energy            =      -0.0000000000000000 [Eh]
	 Same-Spin Energy          =      -0.3779903598462178 [Eh]
	 Opposite-Spin Energy      =      -1.2481796845402622 [Eh]
	 Correlation Energy        =      -1.6261700443864799 [Eh]
	 Total Energy              =    -364.6977268400937646 [Eh]

	 ================> DF-SCS-MP2 Energies <==================
	-----------------------------------------------------------
	 SCS Same-Spin Scale       =       0.3333333333333333 [-]
	 SCS Opposite-Spin Scale   =       1.2000000000000000 [-]
	 SCS Same-Spin Energy      =      -0.1259967866154059 [Eh]
	 SCS Opposite-Spin Energy  =      -1.4978156214483145 [Eh]
	 SCS Correlation Energy    =      -1.6238124080637204 [Eh]
	 SCS Total Energy          =    -364.6953692037710084 [Eh]
	-----------------------------------------------------------

  Dipole Moment: [D]
     X:     4.3864      Y:    -1.3375      Z:     0.9298     Total:     4.6791

*** Psi4 exiting successfully. Buy a developer a beer!
