                               Psi4 1.3.2 release

  ==> Input File <==

--------------------------------------------------------------------------
#psi4
#
memory 32 gb

molecule  {
0 1
  O       -2.5416370     0.0659770    -0.3927070
  N       -0.7122740    -1.2241950    -0.0249760
  C        1.8380290     0.7314390    -0.0343340
  C        1.7187040    -0.7521010    -0.3806110
  C        0.5749500     1.5632640    -0.2598230
  C        0.6466580    -1.4925250     0.4187290
  C       -0.6257670     1.1444980     0.6024810
  C       -1.3868420    -0.0349600     0.0307530
  H        2.6566510     1.1652070    -0.6217190
  H        2.1344690     0.8237010     1.0199600
  H        1.5025340    -0.8781880    -1.4483810
  H        2.6863370    -1.2343500    -0.1898600
  H        0.2863390     1.5300770    -1.3181450
  H        0.8108260     2.6104720    -0.0371320
  H        0.7923570    -2.5718330     0.3164690
  H        0.7525260    -1.2638240     1.4882170
  H       -1.4898591     2.1030299     0.6719872
  H       -0.2921570     0.9237120     1.6255030
  H       -1.2491170    -1.9758090    -0.4428220
units angstrom
no_reorient  #important for SAPT in psi4, default
symmetry c1  #important for SAPT in psi4, default
}

set PROPERTIES_ORIGIN ["COM"]
properties('MP2/aug-cc-pvtz', properties = ['dipole'])
--------------------------------------------------------------------------

    Molecular point group: c1
  Charge       = 0
  Multiplicity = 1
  Basis Set: AUG-CC-PVTZ
    Blend: AUG-CC-PVTZ
  Basis Set: (AUG-CC-PVTZ AUX)
    Blend: AUG-CC-PVTZ-JKFIT

    Orbital Energies [Eh]
    ---------------------

    Doubly Occupied:

       1A    -20.508906     2A    -15.580229     3A    -11.344679
       4A    -11.278439     5A    -11.257303     6A    -11.237915
       7A    -11.235347     8A    -11.234334     9A     -1.363456
      10A     -1.229497    11A     -1.093693    12A     -1.039373
      13A     -0.940769    14A     -0.889402    15A     -0.796496
      16A     -0.755887    17A     -0.688890    18A     -0.677184
      19A     -0.626335    20A     -0.612623    21A     -0.600780
      22A     -0.591229    23A     -0.556260    24A     -0.543674
      25A     -0.516849    26A     -0.512834    27A     -0.481678
      28A     -0.470939    29A     -0.457096    30A     -0.411159
      31A     -0.383455

  @DF-RHF Final Energy:  -363.05458267649590

   => Energetics <=

    Nuclear Repulsion Energy =            393.1529984079988935
    One-Electron Energy =               -1272.5817375672702383
    Two-Electron Energy =                 516.3741564827754473
    Total Energy =                       -363.0545826764958974
  Basis Set: (AUG-CC-PVTZ AUX)
    Blend: AUG-CC-PVTZ-RI
    Molecular point group: c1

    Geometry (in Angstrom), charge = 0, multiplicity = 1:

       Center              X                  Y                   Z               Mass
    ------------   -----------------  -----------------  -----------------  -----------------
         O           -2.463992299077     0.074200792120    -0.383578286040    15.994914619570
         N           -0.634629299077    -1.215971207880    -0.015847286040    14.003074004430
         C            1.915673700923     0.739662792120    -0.025205286040    12.000000000000
         C            1.796348700923    -0.743877207880    -0.371482286040    12.000000000000
         C            0.652594700923     1.571487792120    -0.250694286040    12.000000000000
         C            0.724302700923    -1.484301207880     0.427857713960    12.000000000000
         C           -0.548122299077     1.152721792120     0.611609713960    12.000000000000
         C           -1.309197299077    -0.026736207880     0.039881713960    12.000000000000
         H            2.734295700923     1.173430792120    -0.612590286040     1.007825032230
         H            2.212113700923     0.831924792120     1.029088713960     1.007825032230
         H            1.580178700923    -0.869964207880    -1.439252286040     1.007825032230
         H            2.763981700923    -1.226126207880    -0.180731286040     1.007825032230
         H            0.363983700923     1.538300792120    -1.309016286040     1.007825032230
         H            0.888470700923     2.618695792120    -0.028003286040     1.007825032230
         H            0.870001700923    -2.563609207880     0.325597713960     1.007825032230
         H            0.830170700923    -1.255600207880     1.497345713960     1.007825032230
         H           -1.412214399077     2.111253692120     0.681115913960     1.007825032230
         H           -0.214512299077     0.931935792120     1.634631713960     1.007825032230
         H           -1.171472299077    -1.967585207880    -0.433693286040     1.007825032230

  Basis Set: AUG-CC-PVTZ
    Blend: AUG-CC-PVTZ
  Basis Set: (AUG-CC-PVTZ AUX)
    Blend: AUG-CC-PVTZ-JKFIT
	 Reference Energy          =    -363.0545826764958974 [Eh]
	 Singles Energy            =      -0.0000000000000000 [Eh]
	 Same-Spin Energy          =      -0.3779959050482884 [Eh]
	 Opposite-Spin Energy      =      -1.2496915250872458 [Eh]
	 Correlation Energy        =      -1.6276874301355342 [Eh]
	 Total Energy              =    -364.6822701066314494 [Eh]

	 ================> DF-SCS-MP2 Energies <==================
	-----------------------------------------------------------
	 SCS Same-Spin Scale       =       0.3333333333333333 [-]
	 SCS Opposite-Spin Scale   =       1.2000000000000000 [-]
	 SCS Same-Spin Energy      =      -0.1259986350160961 [Eh]
	 SCS Opposite-Spin Energy  =      -1.4996298301046949 [Eh]
	 SCS Correlation Energy    =      -1.6256284651207911 [Eh]
	 SCS Total Energy          =    -364.6802111416166667 [Eh]
	-----------------------------------------------------------

  Dipole Moment: [D]
     X:     4.1303      Y:    -1.1085      Z:     0.8580     Total:     4.3617

*** Psi4 exiting successfully. Buy a developer a beer!
