                               Psi4 1.3.2 release

  ==> Input File <==

--------------------------------------------------------------------------
#psi4
#
memory 32 gb

molecule  {
0 1
  O       -2.5416370     0.0659770    -0.3927070
  N       -0.7122740    -1.2241950    -0.0249760
  C        1.8380290     0.7314390    -0.0343340
  C        1.7187040    -0.7521010    -0.3806110
  C        0.5749500     1.5632640    -0.2598230
  C        0.6466580    -1.4925250     0.4187290
  C       -0.6140097     0.9996838     0.5335286
  C       -1.3868420    -0.0349600     0.0307530
  H        2.6566510     1.1652070    -0.6217190
  H        2.1344690     0.8237010     1.0199600
  H        1.5025340    -0.8781880    -1.4483810
  H        2.6863370    -1.2343500    -0.1898600
  H        0.2863390     1.5300770    -1.3181450
  H        0.8108260     2.6104720    -0.0371320
  H        0.7923570    -2.5718330     0.3164690
  H        0.7525260    -1.2638240     1.4882170
  H       -1.3561390     1.9546950     0.6612310
  H       -0.2921570     0.9237120     1.6255030
  H       -1.2491170    -1.9758090    -0.4428220
units angstrom
no_reorient  #important for SAPT in psi4, default
symmetry c1  #important for SAPT in psi4, default
}

set PROPERTIES_ORIGIN ["COM"]
properties('MP2/aug-cc-pvtz', properties = ['dipole'])
--------------------------------------------------------------------------

    Molecular point group: c1
  Charge       = 0
  Multiplicity = 1
  Basis Set: AUG-CC-PVTZ
    Blend: AUG-CC-PVTZ
  Basis Set: (AUG-CC-PVTZ AUX)
    Blend: AUG-CC-PVTZ-JKFIT

    Orbital Energies [Eh]
    ---------------------

    Doubly Occupied:

       1A    -20.509851     2A    -15.576460     3A    -11.338442
       4A    -11.277103     5A    -11.242072     6A    -11.241405
       7A    -11.234659     8A    -11.232297     9A     -1.367482
      10A     -1.231498    11A     -1.096640    12A     -1.052047
      13A     -0.950705    14A     -0.898746    15A     -0.798530
      16A     -0.755399    17A     -0.694201    18A     -0.684667
      19A     -0.630747    20A     -0.612538    21A     -0.600549
      22A     -0.596561    23A     -0.566661    24A     -0.544627
      25A     -0.518736    26A     -0.503971    27A     -0.480160
      28A     -0.469070    29A     -0.451248    30A     -0.419610
      31A     -0.382266

  @DF-RHF Final Energy:  -363.04440078258710

   => Energetics <=

    Nuclear Repulsion Energy =            396.6784234063155168
    One-Electron Energy =               -1279.5277499619796799
    Two-Electron Energy =                 519.8049257730771160
    Total Energy =                       -363.0444007825871040
  Basis Set: (AUG-CC-PVTZ AUX)
    Blend: AUG-CC-PVTZ-RI
    Molecular point group: c1

    Geometry (in Angstrom), charge = 0, multiplicity = 1:

       Center              X                  Y                   Z               Mass
    ------------   -----------------  -----------------  -----------------  -----------------
         O           -2.466431670765     0.090889845899    -0.376165489417    15.994914619570
         N           -0.637068670765    -1.199282154101    -0.008434489417    14.003074004430
         C            1.913234329235     0.756351845899    -0.017792489417    12.000000000000
         C            1.793909329235    -0.727188154101    -0.364069489417    12.000000000000
         C            0.650155329235     1.588176845899    -0.243281489417    12.000000000000
         C            0.721863329235    -1.467612154101     0.435270510583    12.000000000000
         C           -0.538804370765     1.024596645899     0.550070110583    12.000000000000
         C           -1.311636670765    -0.010047154101     0.047294510583    12.000000000000
         H            2.731856329235     1.190119845899    -0.605177489417     1.007825032230
         H            2.209674329235     0.848613845899     1.036501510583     1.007825032230
         H            1.577739329235    -0.853275154101    -1.431839489417     1.007825032230
         H            2.761542329235    -1.209437154101    -0.173318489417     1.007825032230
         H            0.361544329235     1.554989845899    -1.301603489417     1.007825032230
         H            0.886031329235     2.635384845899    -0.020590489417     1.007825032230
         H            0.867562329235    -2.546920154101     0.333010510583     1.007825032230
         H            0.827731329235    -1.238911154101     1.504758510583     1.007825032230
         H           -1.280933670765     1.979607845899     0.677772510583     1.007825032230
         H           -0.216951670765     0.948624845899     1.642044510583     1.007825032230
         H           -1.173911670765    -1.950896154101    -0.426280489417     1.007825032230

  Basis Set: AUG-CC-PVTZ
    Blend: AUG-CC-PVTZ
  Basis Set: (AUG-CC-PVTZ AUX)
    Blend: AUG-CC-PVTZ-JKFIT
	 Reference Energy          =    -363.0444007825871040 [Eh]
	 Singles Energy            =      -0.0000000000000000 [Eh]
	 Same-Spin Energy          =      -0.3801510352515335 [Eh]
	 Opposite-Spin Energy      =      -1.2514166116561125 [Eh]
	 Correlation Energy        =      -1.6315676469076461 [Eh]
	 Total Energy              =    -364.6759684294947306 [Eh]

	 ================> DF-SCS-MP2 Energies <==================
	-----------------------------------------------------------
	 SCS Same-Spin Scale       =       0.3333333333333333 [-]
	 SCS Opposite-Spin Scale   =       1.2000000000000000 [-]
	 SCS Same-Spin Energy      =      -0.1267170117505111 [Eh]
	 SCS Opposite-Spin Energy  =      -1.5016999339873349 [Eh]
	 SCS Correlation Energy    =      -1.6284169457378461 [Eh]
	 SCS Total Energy          =    -364.6728177283249579 [Eh]
	-----------------------------------------------------------

  Dipole Moment: [D]
     X:     4.1634      Y:    -0.9540      Z:     0.9055     Total:     4.3663

*** Psi4 exiting successfully. Buy a developer a beer!
