                               Psi4 1.3.2 release

  ==> Input File <==

--------------------------------------------------------------------------
#psi4
#
memory 32 gb

molecule  {
0 1
  O       -2.5416370     0.0659770    -0.3927070
  N       -0.7122740    -1.2241950    -0.0249760
  C        1.8380290     0.7314390    -0.0343340
  C        1.7187040    -0.7521010    -0.3806110
  C        0.5749500     1.5632640    -0.2598230
  C        0.6466580    -1.4925250     0.4187290
  C       -0.6257670     1.1444980     0.6024810
  C       -1.4056775    -0.0454000     0.0204289
  H        2.6566510     1.1652070    -0.6217190
  H        2.1344690     0.8237010     1.0199600
  H        1.5025340    -0.8781880    -1.4483810
  H        2.6863370    -1.2343500    -0.1898600
  H        0.2863390     1.5300770    -1.3181450
  H        0.8108260     2.6104720    -0.0371320
  H        0.7923570    -2.5718330     0.3164690
  H        0.7525260    -1.2638240     1.4882170
  H       -1.3561390     1.9546950     0.6612310
  H       -0.2921570     0.9237120     1.6255030
  H       -1.2491170    -1.9758090    -0.4428220
units angstrom
no_reorient  #important for SAPT in psi4, default
symmetry c1  #important for SAPT in psi4, default
}

set PROPERTIES_ORIGIN ["COM"]
properties('MP2/aug-cc-pvtz', properties = ['dipole'])
--------------------------------------------------------------------------

    Molecular point group: c1
  Charge       = 0
  Multiplicity = 1
  Basis Set: AUG-CC-PVTZ
    Blend: AUG-CC-PVTZ
  Basis Set: (AUG-CC-PVTZ AUX)
    Blend: AUG-CC-PVTZ-JKFIT

    Orbital Energies [Eh]
    ---------------------

    Doubly Occupied:

       1A    -20.511870     2A    -15.577147     3A    -11.341643
       4A    -11.277315     5A    -11.235197     6A    -11.234552
       7A    -11.233723     8A    -11.232110     9A     -1.375914
      10A     -1.229540    11A     -1.092335    12A     -1.039559
      13A     -0.943177    14A     -0.886613    15A     -0.794230
      16A     -0.761715    17A     -0.688428    18A     -0.676556
      19A     -0.626185    20A     -0.611358    21A     -0.601043
      22A     -0.594588    23A     -0.569978    24A     -0.546727
      25A     -0.521722    26A     -0.515708    27A     -0.480338
      28A     -0.471185    29A     -0.468435    30A     -0.409498
      31A     -0.384520

  @DF-RHF Final Energy:  -363.07643822052802

   => Energetics <=

    Nuclear Repulsion Energy =            394.0547412251680726
    One-Electron Energy =               -1274.3965378377852176
    Two-Electron Energy =                 517.2653583920891833
    Total Energy =                       -363.0764382205279617
  Basis Set: (AUG-CC-PVTZ AUX)
    Blend: AUG-CC-PVTZ-RI
    Molecular point group: c1

    Geometry (in Angstrom), charge = 0, multiplicity = 1:

       Center              X                  Y                   Z               Mass
    ------------   -----------------  -----------------  -----------------  -----------------
         O           -2.463185292919     0.076630627197    -0.382386875307    15.994914619570
         N           -0.633822292919    -1.213541372803    -0.014655875307    14.003074004430
         C            1.916480707081     0.742092627197    -0.024013875307    12.000000000000
         C            1.797155707081    -0.741447372803    -0.370290875307    12.000000000000
         C            0.653401707081     1.573917627197    -0.249502875307    12.000000000000
         C            0.725109707081    -1.481871372803     0.429049124693    12.000000000000
         C           -0.547315292919     1.155151627197     0.612801124693    12.000000000000
         C           -1.327225792919    -0.034746372803     0.030749024693    12.000000000000
         H            2.735102707081     1.175860627197    -0.611398875307     1.007825032230
         H            2.212920707081     0.834354627197     1.030280124693     1.007825032230
         H            1.580985707081    -0.867534372803    -1.438060875307     1.007825032230
         H            2.764788707081    -1.223696372803    -0.179539875307     1.007825032230
         H            0.364790707081     1.540730627197    -1.307824875307     1.007825032230
         H            0.889277707081     2.621125627197    -0.026811875307     1.007825032230
         H            0.870808707081    -2.561179372803     0.326789124693     1.007825032230
         H            0.830977707081    -1.253170372803     1.498537124693     1.007825032230
         H           -1.277687292919     1.965348627197     0.671551124693     1.007825032230
         H           -0.213705292919     0.934365627197     1.635823124693     1.007825032230
         H           -1.170665292919    -1.965155372803    -0.432501875307     1.007825032230

  Basis Set: AUG-CC-PVTZ
    Blend: AUG-CC-PVTZ
  Basis Set: (AUG-CC-PVTZ AUX)
    Blend: AUG-CC-PVTZ-JKFIT
	 Reference Energy          =    -363.0764382205280185 [Eh]
	 Singles Energy            =      -0.0000000000000000 [Eh]
	 Same-Spin Energy          =      -0.3772104082775696 [Eh]
	 Opposite-Spin Energy      =      -1.2466999357198625 [Eh]
	 Correlation Energy        =      -1.6239103439974321 [Eh]
	 Total Energy              =    -364.7003485645254273 [Eh]

	 ================> DF-SCS-MP2 Energies <==================
	-----------------------------------------------------------
	 SCS Same-Spin Scale       =       0.3333333333333333 [-]
	 SCS Opposite-Spin Scale   =       1.2000000000000000 [-]
	 SCS Same-Spin Energy      =      -0.1257368027591899 [Eh]
	 SCS Opposite-Spin Energy  =      -1.4960399228638350 [Eh]
	 SCS Correlation Energy    =      -1.6217767256230249 [Eh]
	 SCS Total Energy          =    -364.6982149461510403 [Eh]
	-----------------------------------------------------------

  Dipole Moment: [D]
     X:     3.9444      Y:    -1.0668      Z:     0.8523     Total:     4.1740

*** Psi4 exiting successfully. Buy a developer a beer!
