                               Psi4 1.3.2 release

  ==> Input File <==

--------------------------------------------------------------------------
#psi4
#
memory 32 gb

molecule  {
0 1
  O       -2.5416370     0.0659770    -0.3927070
  N       -0.7122740    -1.2241950    -0.0249760
  C        1.8380290     0.7314390    -0.0343340
  C        1.7187040    -0.7521010    -0.3806110
  C        0.5749500     1.5632640    -0.2598230
  C        0.6466580    -1.4925250     0.4187290
  C       -0.6233062     1.0956373     0.5805113
  C       -1.3868420    -0.0349600     0.0307530
  H        2.6566510     1.1652070    -0.6217190
  H        2.1344690     0.8237010     1.0199600
  H        1.5025340    -0.8781880    -1.4483810
  H        2.6863370    -1.2343500    -0.1898600
  H        0.2863390     1.5300770    -1.3181450
  H        0.8108260     2.6104720    -0.0371320
  H        0.7923570    -2.5718330     0.3164690
  H        0.7525260    -1.2638240     1.4882170
  H       -1.3561390     1.9546950     0.6612310
  H       -0.2921570     0.9237120     1.6255030
  H       -1.2491170    -1.9758090    -0.4428220
units angstrom
no_reorient  #important for SAPT in psi4, default
symmetry c1  #important for SAPT in psi4, default
}

set PROPERTIES_ORIGIN ["COM"]
properties('MP2/aug-cc-pvtz', properties = ['dipole'])
--------------------------------------------------------------------------

    Molecular point group: c1
  Charge       = 0
  Multiplicity = 1
  Basis Set: AUG-CC-PVTZ
    Blend: AUG-CC-PVTZ
  Basis Set: (AUG-CC-PVTZ AUX)
    Blend: AUG-CC-PVTZ-JKFIT

    Orbital Energies [Eh]
    ---------------------

    Doubly Occupied:

       1A    -20.509423     2A    -15.578017     3A    -11.341848
       4A    -11.277251     5A    -11.237939     6A    -11.237255
       7A    -11.234400     8A    -11.232688     9A     -1.364809
      10A     -1.229144    11A     -1.094642    12A     -1.044861
      13A     -0.946498    14A     -0.891929    15A     -0.796373
      16A     -0.761373    17A     -0.689319    18A     -0.680095
      19A     -0.627282    20A     -0.611903    21A     -0.600337
      22A     -0.594051    23A     -0.566749    24A     -0.546415
      25A     -0.517720    26A     -0.513574    27A     -0.480749
      28A     -0.470047    29A     -0.465102    30A     -0.415013
      31A     -0.382673

  @DF-RHF Final Energy:  -363.07151962289913

   => Energetics <=

    Nuclear Repulsion Energy =            394.9320897815279068
    One-Electron Energy =               -1276.1282570907089848
    Two-Electron Energy =                 518.1246476862819463
    Total Energy =                       -363.0715196228991317
  Basis Set: (AUG-CC-PVTZ AUX)
    Blend: AUG-CC-PVTZ-RI
    Molecular point group: c1

    Geometry (in Angstrom), charge = 0, multiplicity = 1:

       Center              X                  Y                   Z               Mass
    ------------   -----------------  -----------------  -----------------  -----------------
         O           -2.465445165717     0.080707668504    -0.381151093756    15.994914619570
         N           -0.636082165717    -1.209464331496    -0.013420093756    14.003074004430
         C            1.914220834283     0.746169668504    -0.022778093756    12.000000000000
         C            1.794895834283    -0.737370331496    -0.369055093756    12.000000000000
         C            0.651141834283     1.577994668504    -0.248267093756    12.000000000000
         C            0.722849834283    -1.477794331496     0.430284906244    12.000000000000
         C           -0.547114365717     1.110367968504     0.592067206244    12.000000000000
         C           -1.310650165717    -0.020229331496     0.042308906244    12.000000000000
         H            2.732842834283     1.179937668504    -0.610163093756     1.007825032230
         H            2.210660834283     0.838431668504     1.031515906244     1.007825032230
         H            1.578725834283    -0.863457331496    -1.436825093756     1.007825032230
         H            2.762528834283    -1.219619331496    -0.178304093756     1.007825032230
         H            0.362530834283     1.544807668504    -1.306589093756     1.007825032230
         H            0.887017834283     2.625202668504    -0.025576093756     1.007825032230
         H            0.868548834283    -2.557102331496     0.328024906244     1.007825032230
         H            0.828717834283    -1.249093331496     1.499772906244     1.007825032230
         H           -1.279947165717     1.969425668504     0.672786906244     1.007825032230
         H           -0.215965165717     0.938442668504     1.637058906244     1.007825032230
         H           -1.172925165717    -1.961078331496    -0.431266093756     1.007825032230

  Basis Set: AUG-CC-PVTZ
    Blend: AUG-CC-PVTZ
  Basis Set: (AUG-CC-PVTZ AUX)
    Blend: AUG-CC-PVTZ-JKFIT
	 Reference Energy          =    -363.0715196228991317 [Eh]
	 Singles Energy            =      -0.0000000000000000 [Eh]
	 Same-Spin Energy          =      -0.3782876347241363 [Eh]
	 Opposite-Spin Energy      =      -1.2484404131562579 [Eh]
	 Correlation Energy        =      -1.6267280478803943 [Eh]
	 Total Energy              =    -364.6982476707795513 [Eh]

	 ================> DF-SCS-MP2 Energies <==================
	-----------------------------------------------------------
	 SCS Same-Spin Scale       =       0.3333333333333333 [-]
	 SCS Opposite-Spin Scale   =       1.2000000000000000 [-]
	 SCS Same-Spin Energy      =      -0.1260958782413788 [Eh]
	 SCS Opposite-Spin Energy  =      -1.4981284957875094 [Eh]
	 SCS Correlation Energy    =      -1.6242243740288882 [Eh]
	 SCS Total Energy          =    -364.6957439969280017 [Eh]
	-----------------------------------------------------------

  Dipole Moment: [D]
     X:     4.0970      Y:    -1.0100      Z:     0.9008     Total:     4.3147

*** Psi4 exiting successfully. Buy a developer a beer!
