                               Psi4 1.3.2 release

  ==> Input File <==

--------------------------------------------------------------------------
#psi4
#
memory 32 gb

molecule  {
0 1
  O       -2.5416370     0.0659770    -0.3927070
  N       -0.7122740    -1.2241950    -0.0249760
  C        1.8380290     0.7314390    -0.0343340
  C        1.7187040    -0.7521010    -0.3806110
  C        0.5749500     1.5632640    -0.2598230
  C        0.6466580    -1.4925250     0.4187290
  C       -0.6257670     1.1444980     0.6024810
  C       -1.3868420    -0.0349600     0.0307530
  H        2.8059041     1.2442926    -0.7288124
  H        2.1344690     0.8237010     1.0199600
  H        1.5025340    -0.8781880    -1.4483810
  H        2.6863370    -1.2343500    -0.1898600
  H        0.2863390     1.5300770    -1.3181450
  H        0.8108260     2.6104720    -0.0371320
  H        0.7923570    -2.5718330     0.3164690
  H        0.7525260    -1.2638240     1.4882170
  H       -1.3561390     1.9546950     0.6612310
  H       -0.2921570     0.9237120     1.6255030
  H       -1.2491170    -1.9758090    -0.4428220
units angstrom
no_reorient  #important for SAPT in psi4, default
symmetry c1  #important for SAPT in psi4, default
}

set PROPERTIES_ORIGIN ["COM"]
properties('MP2/aug-cc-pvtz', properties = ['dipole'])
--------------------------------------------------------------------------

    Molecular point group: c1
  Charge       = 0
  Multiplicity = 1
  Basis Set: AUG-CC-PVTZ
    Blend: AUG-CC-PVTZ
  Basis Set: (AUG-CC-PVTZ AUX)
    Blend: AUG-CC-PVTZ-JKFIT

    Orbital Energies [Eh]
    ---------------------

    Doubly Occupied:

       1A    -20.510455     2A    -15.580141     3A    -11.344543
       4A    -11.279517     5A    -11.256608     6A    -11.238934
       7A    -11.238195     8A    -11.236609     9A     -1.364852
      10A     -1.229880    11A     -1.092572    12A     -1.043784
      13A     -0.940832    14A     -0.889959    15A     -0.790332
      16A     -0.764847    17A     -0.689456    18A     -0.673652
      19A     -0.619819    20A     -0.613347    21A     -0.604096
      22A     -0.592220    23A     -0.564025    24A     -0.546440
      25A     -0.517766    26A     -0.515476    27A     -0.484008
      28A     -0.472725    29A     -0.454257    30A     -0.411581
      31A     -0.383662

  @DF-RHF Final Energy:  -363.05572252901425

   => Energetics <=

    Nuclear Repulsion Energy =            393.1793635624705416
    One-Electron Energy =               -1272.5809951231037758
    Two-Electron Energy =                 516.3459090316189304
    Total Energy =                       -363.0557225290142469
  Basis Set: (AUG-CC-PVTZ AUX)
    Blend: AUG-CC-PVTZ-RI
    Molecular point group: c1

    Geometry (in Angstrom), charge = 0, multiplicity = 1:

       Center              X                  Y                   Z               Mass
    ------------   -----------------  -----------------  -----------------  -----------------
         O           -2.466514205916     0.074817954039    -0.382527989714    15.994914619570
         N           -0.637151205916    -1.215354045961    -0.014796989714    14.003074004430
         C            1.913151794084     0.740279954039    -0.024154989714    12.000000000000
         C            1.793826794084    -0.743260045961    -0.370431989714    12.000000000000
         C            0.650072794084     1.572104954039    -0.249643989714    12.000000000000
         C            0.721780794084    -1.483684045961     0.428908010286    12.000000000000
         C           -0.550644205916     1.153338954039     0.612660010286    12.000000000000
         C           -1.311719205916    -0.026119045961     0.040932010286    12.000000000000
         H            2.881026894084     1.253133554039    -0.718633389714     1.007825032230
         H            2.209591794084     0.832541954039     1.030139010286     1.007825032230
         H            1.577656794084    -0.869347045961    -1.438201989714     1.007825032230
         H            2.761459794084    -1.225509045961    -0.179680989714     1.007825032230
         H            0.361461794084     1.538917954039    -1.307965989714     1.007825032230
         H            0.885948794084     2.619312954039    -0.026952989714     1.007825032230
         H            0.867479794084    -2.562992045961     0.326648010286     1.007825032230
         H            0.827648794084    -1.254983045961     1.498396010286     1.007825032230
         H           -1.281016205916     1.963535954039     0.671410010286     1.007825032230
         H           -0.217034205916     0.932552954039     1.635682010286     1.007825032230
         H           -1.173994205916    -1.966968045961    -0.432642989714     1.007825032230

  Basis Set: AUG-CC-PVTZ
    Blend: AUG-CC-PVTZ
  Basis Set: (AUG-CC-PVTZ AUX)
    Blend: AUG-CC-PVTZ-JKFIT
	 Reference Energy          =    -363.0557225290142469 [Eh]
	 Singles Energy            =      -0.0000000000000000 [Eh]
	 Same-Spin Energy          =      -0.3777876660103076 [Eh]
	 Opposite-Spin Energy      =      -1.2493635492856250 [Eh]
	 Correlation Energy        =      -1.6271512152959327 [Eh]
	 Total Energy              =    -364.6828737443102000 [Eh]

	 ================> DF-SCS-MP2 Energies <==================
	-----------------------------------------------------------
	 SCS Same-Spin Scale       =       0.3333333333333333 [-]
	 SCS Opposite-Spin Scale   =       1.2000000000000000 [-]
	 SCS Same-Spin Energy      =      -0.1259292220034358 [Eh]
	 SCS Opposite-Spin Energy  =      -1.4992362591427499 [Eh]
	 SCS Correlation Energy    =      -1.6251654811461858 [Eh]
	 SCS Total Energy          =    -364.6808880101604586 [Eh]
	-----------------------------------------------------------

  Dipole Moment: [D]
     X:     3.8913      Y:    -1.1240      Z:     0.9703     Total:     4.1650

*** Psi4 exiting successfully. Buy a developer a beer!
