                               Psi4 1.4a3.dev225

  ==> Input File <==

--------------------------------------------------------------------------
#psi4
#
memory 32 gb

molecule  {
0 1
  O       -2.5416370     0.0659770    -0.3927070
  N       -0.7122740    -1.2241950    -0.0249760
  C        1.8380290     0.7314390    -0.0343340
  C        1.7171422    -0.7715180    -0.3851432
  C        0.5749500     1.5632640    -0.2598230
  C        0.6466580    -1.4925250     0.4187290
  C       -0.6257670     1.1444980     0.6024810
  C       -1.3868420    -0.0349600     0.0307530
  H        2.6566510     1.1652070    -0.6217190
  H        2.1344690     0.8237010     1.0199600
  H        1.5025340    -0.8781880    -1.4483810
  H        2.6863370    -1.2343500    -0.1898600
  H        0.2863390     1.5300770    -1.3181450
  H        0.8108260     2.6104720    -0.0371320
  H        0.7923570    -2.5718330     0.3164690
  H        0.7525260    -1.2638240     1.4882170
  H       -1.3561390     1.9546950     0.6612310
  H       -0.2921570     0.9237120     1.6255030
  H       -1.2491170    -1.9758090    -0.4428220
units angstrom
no_reorient  #important for SAPT in psi4, default
symmetry c1  #important for SAPT in psi4, default
}

set PROPERTIES_ORIGIN ["COM"]
properties('MP2/aug-cc-pvtz', properties = ['dipole'])
--------------------------------------------------------------------------

    Molecular point group: c1
  Charge       = 0
  Multiplicity = 1
  Basis Set: AUG-CC-PVTZ
    Blend: AUG-CC-PVTZ
  Basis Set: (AUG-CC-PVTZ AUX)
    Blend: AUG-CC-PVTZ-JKFIT

    Orbital Energies [Eh]
    ---------------------

    Doubly Occupied:

       1A    -20.509082     2A    -15.578788     3A    -11.343052
       4A    -11.276982     5A    -11.236557     6A    -11.235857
       7A    -11.234006     8A    -11.233439     9A     -1.363482
      10A     -1.228443    11A     -1.092203    12A     -1.042539
      13A     -0.945295    14A     -0.887869    15A     -0.796261
      16A     -0.763935    17A     -0.688309    18A     -0.676551
      19A     -0.625900    20A     -0.611716    21A     -0.601268
      22A     -0.591744    23A     -0.570713    24A     -0.545906
      25A     -0.519312    26A     -0.516823    27A     -0.481690
      28A     -0.471430    29A     -0.465536    30A     -0.410598
      31A     -0.383494

  @DF-RHF Final Energy:  -363.07528828122929

   => Energetics <=

    Nuclear Repulsion Energy =            393.9369974202867866
    One-Electron Energy =               -1274.1670127592719837
    Two-Electron Energy =                 517.1547270577558493
    Total Energy =                       -363.0752882812292910
  Basis Set: (AUG-CC-PVTZ AUX)
    Blend: AUG-CC-PVTZ-RI
    Molecular point group: c1

    Geometry (in Angstrom), charge = 0, multiplicity = 1:

       Center              X                  Y                   Z               Mass
    ------------   -----------------  -----------------  -----------------  -----------------
         O           -2.465018304510     0.077583228264    -0.383001487106    15.994914619570
         N           -0.635655304510    -1.212588771736    -0.015270487106    14.003074004430
         C            1.914647695490     0.743045228264    -0.024628487106    12.000000000000
         C            1.793760895490    -0.759911771736    -0.375437687106    12.000000000000
         C            0.651568695490     1.574870228264    -0.250117487106    12.000000000000
         C            0.723276695490    -1.480918771736     0.428434512894    12.000000000000
         C           -0.549148304510     1.156104228264     0.612186512894    12.000000000000
         C           -1.310223304510    -0.023353771736     0.040458512894    12.000000000000
         H            2.733269695490     1.176813228264    -0.612013487106     1.007825032230
         H            2.211087695490     0.835307228264     1.029665512894     1.007825032230
         H            1.579152695490    -0.866581771736    -1.438675487106     1.007825032230
         H            2.762955695490    -1.222743771736    -0.180154487106     1.007825032230
         H            0.362957695490     1.541683228264    -1.308439487106     1.007825032230
         H            0.887444695490     2.622078228264    -0.027426487106     1.007825032230
         H            0.868975695490    -2.560226771736     0.326174512894     1.007825032230
         H            0.829144695490    -1.252217771736     1.497922512894     1.007825032230
         H           -1.279520304510     1.966301228264     0.670936512894     1.007825032230
         H           -0.215538304510     0.935318228264     1.635208512894     1.007825032230
         H           -1.172498304510    -1.964202771736    -0.433116487106     1.007825032230

  Basis Set: AUG-CC-PVTZ
    Blend: AUG-CC-PVTZ
  Basis Set: (AUG-CC-PVTZ AUX)
    Blend: AUG-CC-PVTZ-JKFIT
	 Reference Energy          =    -363.0752882812292910 [Eh]
	 Singles Energy            =      -0.0000000000000000 [Eh]
	 Same-Spin Energy          =      -0.3776452811031294 [Eh]
	 Opposite-Spin Energy      =      -1.2475925985108607 [Eh]
	 Correlation Energy        =      -1.6252378796139901 [Eh]
	 Total Energy              =    -364.7005261608432534 [Eh]

	 ================> DF-SCS-MP2 Energies <==================
	-----------------------------------------------------------
	 SCS Same-Spin Scale       =       0.3333333333333333 [-]
	 SCS Opposite-Spin Scale   =       1.2000000000000000 [-]
	 SCS Same-Spin Energy      =      -0.1258817603677098 [Eh]
	 SCS Opposite-Spin Energy  =      -1.4971111182130328 [Eh]
	 SCS Correlation Energy    =      -1.6229928785807426 [Eh]
	 SCS Total Energy          =    -364.6982811598100511 [Eh]
	-----------------------------------------------------------

  Dipole Moment: [D]
     X:     4.0735      Y:    -1.0410      Z:     0.8929     Total:     4.2982

*** Psi4 exiting successfully. Buy a developer a beer!
