                               Psi4 1.3.2 release

  ==> Input File <==

--------------------------------------------------------------------------
#psi4
#
memory 32 gb

molecule  {
0 1
  O       -2.5414846     0.0449958    -0.3975759
  N       -0.7122740    -1.2241950    -0.0249760
  C        1.8380290     0.7314390    -0.0343340
  C        1.7187040    -0.7521010    -0.3806110
  C        0.5749500     1.5632640    -0.2598230
  C        0.6466580    -1.4925250     0.4187290
  C       -0.6257670     1.1444980     0.6024810
  C       -1.3868420    -0.0349600     0.0307530
  H        2.6566510     1.1652070    -0.6217190
  H        2.1344690     0.8237010     1.0199600
  H        1.5025340    -0.8781880    -1.4483810
  H        2.6863370    -1.2343500    -0.1898600
  H        0.2863390     1.5300770    -1.3181450
  H        0.8108260     2.6104720    -0.0371320
  H        0.7923570    -2.5718330     0.3164690
  H        0.7525260    -1.2638240     1.4882170
  H       -1.3561390     1.9546950     0.6612310
  H       -0.2921570     0.9237120     1.6255030
  H       -1.2491170    -1.9758090    -0.4428220
units angstrom
no_reorient  #important for SAPT in psi4, default
symmetry c1  #important for SAPT in psi4, default
}

set PROPERTIES_ORIGIN ["COM"]
properties('MP2/aug-cc-pvtz', properties = ['dipole'])
--------------------------------------------------------------------------

    Molecular point group: c1
  Charge       = 0
  Multiplicity = 1
  Basis Set: AUG-CC-PVTZ
    Blend: AUG-CC-PVTZ
  Basis Set: (AUG-CC-PVTZ AUX)
    Blend: AUG-CC-PVTZ-JKFIT

    Orbital Energies [Eh]
    ---------------------

    Doubly Occupied:

       1A    -20.508797     2A    -15.577549     3A    -11.343034
       4A    -11.276737     5A    -11.237433     6A    -11.236808
       7A    -11.234213     8A    -11.233179     9A     -1.363720
      10A     -1.227075    11A     -1.094178    12A     -1.042420
      13A     -0.945494    14A     -0.888519    15A     -0.795488
      16A     -0.763836    17A     -0.687668    18A     -0.676838
      19A     -0.626084    20A     -0.611837    21A     -0.602028
      22A     -0.591798    23A     -0.570321    24A     -0.545069
      25A     -0.519510    26A     -0.515747    27A     -0.481352
      28A     -0.470869    29A     -0.469614    30A     -0.411053
      31A     -0.381839

  @DF-RHF Final Energy:  -363.07538894210921

   => Energetics <=

    Nuclear Repulsion Energy =            394.0948192723015495
    One-Electron Energy =               -1274.4802072690074510
    Two-Electron Energy =                 517.3099990545966875
    Total Energy =                       -363.0753889421092708
  Basis Set: (AUG-CC-PVTZ AUX)
    Blend: AUG-CC-PVTZ-RI
    Molecular point group: c1

    Geometry (in Angstrom), charge = 0, multiplicity = 1:

       Center              X                  Y                   Z               Mass
    ------------   -----------------  -----------------  -----------------  -----------------
         O           -2.465053191951     0.057509216236    -0.387662654566    15.994914619570
         N           -0.635842591951    -1.211681583764    -0.015062754566    14.003074004430
         C            1.914460408049     0.743952416236    -0.024420754566    12.000000000000
         C            1.795135408049    -0.739587583764    -0.370697754566    12.000000000000
         C            0.651381408049     1.575777416236    -0.249909754566    12.000000000000
         C            0.723089408049    -1.480011583764     0.428642245434    12.000000000000
         C           -0.549335591951     1.157011416236     0.612394245434    12.000000000000
         C           -1.310410591951    -0.022446583764     0.040666245434    12.000000000000
         H            2.733082408049     1.177720416236    -0.611805754566     1.007825032230
         H            2.210900408049     0.836214416236     1.029873245434     1.007825032230
         H            1.578965408049    -0.865674583764    -1.438467754566     1.007825032230
         H            2.762768408049    -1.221836583764    -0.179946754566     1.007825032230
         H            0.362770408049     1.542590416236    -1.308231754566     1.007825032230
         H            0.887257408049     2.622985416236    -0.027218754566     1.007825032230
         H            0.868788408049    -2.559319583764     0.326382245434     1.007825032230
         H            0.828957408049    -1.251310583764     1.498130245434     1.007825032230
         H           -1.279707591951     1.967208416236     0.671144245434     1.007825032230
         H           -0.215725591951     0.936225416236     1.635416245434     1.007825032230
         H           -1.172685591951    -1.963295583764    -0.432908754566     1.007825032230

  Basis Set: AUG-CC-PVTZ
    Blend: AUG-CC-PVTZ
  Basis Set: (AUG-CC-PVTZ AUX)
    Blend: AUG-CC-PVTZ-JKFIT
	 Reference Energy          =    -363.0753889421092140 [Eh]
	 Singles Energy            =      -0.0000000000000000 [Eh]
	 Same-Spin Energy          =      -0.3777325268135807 [Eh]
	 Opposite-Spin Energy      =      -1.2476588092678320 [Eh]
	 Correlation Energy        =      -1.6253913360814127 [Eh]
	 Total Energy              =    -364.7007802781906207 [Eh]

	 ================> DF-SCS-MP2 Energies <==================
	-----------------------------------------------------------
	 SCS Same-Spin Scale       =       0.3333333333333333 [-]
	 SCS Opposite-Spin Scale   =       1.2000000000000000 [-]
	 SCS Same-Spin Energy      =      -0.1259108422711936 [Eh]
	 SCS Opposite-Spin Energy  =      -1.4971905711213984 [Eh]
	 SCS Correlation Energy    =      -1.6231014133925921 [Eh]
	 SCS Total Energy          =    -364.6984903555018036 [Eh]
	-----------------------------------------------------------

  Dipole Moment: [D]
     X:     4.0745      Y:    -0.9770      Z:     0.9088     Total:     4.2874

*** Psi4 exiting successfully. Buy a developer a beer!
