                               Psi4 1.3.2 release

  ==> Input File <==

--------------------------------------------------------------------------
#psi4
#
memory 32 gb

molecule  {
0 1
  O       -2.5416370     0.0659770    -0.3927070
  N       -0.7122740    -1.2241950    -0.0249760
  C        1.8380290     0.7314390    -0.0343340
  C        1.7187040    -0.7521010    -0.3806110
  C        0.5492800     1.4840287    -0.3273781
  C        0.6466580    -1.4925250     0.4187290
  C       -0.6257670     1.1444980     0.6024810
  C       -1.3868420    -0.0349600     0.0307530
  H        2.6566510     1.1652070    -0.6217190
  H        2.1344690     0.8237010     1.0199600
  H        1.5025340    -0.8781880    -1.4483810
  H        2.6863370    -1.2343500    -0.1898600
  H        0.2863390     1.5300770    -1.3181450
  H        0.8108260     2.6104720    -0.0371320
  H        0.7923570    -2.5718330     0.3164690
  H        0.7525260    -1.2638240     1.4882170
  H       -1.3561390     1.9546950     0.6612310
  H       -0.2921570     0.9237120     1.6255030
  H       -1.2491170    -1.9758090    -0.4428220
units angstrom
no_reorient  #important for SAPT in psi4, default
symmetry c1  #important for SAPT in psi4, default
}

set PROPERTIES_ORIGIN ["COM"]
properties('MP2/aug-cc-pvtz', properties = ['dipole'])
--------------------------------------------------------------------------

    Molecular point group: c1
  Charge       = 0
  Multiplicity = 1
  Basis Set: AUG-CC-PVTZ
    Blend: AUG-CC-PVTZ
  Basis Set: (AUG-CC-PVTZ AUX)
    Blend: AUG-CC-PVTZ-JKFIT

    Orbital Energies [Eh]
    ---------------------

    Doubly Occupied:

       1A    -20.508109     2A    -15.578323     3A    -11.341354
       4A    -11.277301     5A    -11.238865     6A    -11.237497
       7A    -11.234339     8A    -11.232640     9A     -1.362924
      10A     -1.228345    11A     -1.096350    12A     -1.042613
      13A     -0.946076    14A     -0.886054    15A     -0.799166
      16A     -0.765975    17A     -0.686494    18A     -0.678244
      19A     -0.626212    20A     -0.613851    21A     -0.601486
      22A     -0.588334    23A     -0.568608    24A     -0.543893
      25A     -0.525897    26A     -0.517635    27A     -0.492997
      28A     -0.474287    29A     -0.450016    30A     -0.406644
      31A     -0.382581

  @DF-RHF Final Energy:  -363.06294209810477

   => Energetics <=

    Nuclear Repulsion Energy =            394.9401366544473149
    One-Electron Energy =               -1276.1399374015024932
    Two-Electron Energy =                 518.1368586489504651
    Total Energy =                       -363.0629420981047133
  Basis Set: (AUG-CC-PVTZ AUX)
    Blend: AUG-CC-PVTZ-RI
    Molecular point group: c1

    Geometry (in Angstrom), charge = 0, multiplicity = 1:

       Center              X                  Y                   Z               Mass
    ------------   -----------------  -----------------  -----------------  -----------------
         O           -2.462460044842     0.083930891894    -0.376313764951    15.994914619570
         N           -0.633097044842    -1.206241108106    -0.008582764951    14.003074004430
         C            1.917205955158     0.749392891894    -0.017940764951    12.000000000000
         C            1.797880955158    -0.734147108106    -0.364217764951    12.000000000000
         C            0.628456955158     1.501982591894    -0.310984864951    12.000000000000
         C            0.725834955158    -1.474571108106     0.435122235049    12.000000000000
         C           -0.546590044842     1.162451891894     0.618874235049    12.000000000000
         C           -1.307665044842    -0.017006108106     0.047146235049    12.000000000000
         H            2.735827955158     1.183160891894    -0.605325764951     1.007825032230
         H            2.213645955158     0.841654891894     1.036353235049     1.007825032230
         H            1.581710955158    -0.860234108106    -1.431987764951     1.007825032230
         H            2.765513955158    -1.216396108106    -0.173466764951     1.007825032230
         H            0.365515955158     1.548030891894    -1.301751764951     1.007825032230
         H            0.890002955158     2.628425891894    -0.020738764951     1.007825032230
         H            0.871533955158    -2.553879108106     0.332862235049     1.007825032230
         H            0.831702955158    -1.245870108106     1.504610235049     1.007825032230
         H           -1.276962044842     1.972648891894     0.677624235049     1.007825032230
         H           -0.212980044842     0.941665891894     1.641896235049     1.007825032230
         H           -1.169940044842    -1.957855108106    -0.426428764951     1.007825032230

  Basis Set: AUG-CC-PVTZ
    Blend: AUG-CC-PVTZ
  Basis Set: (AUG-CC-PVTZ AUX)
    Blend: AUG-CC-PVTZ-JKFIT
	 Reference Energy          =    -363.0629420981047701 [Eh]
	 Singles Energy            =      -0.0000000000000000 [Eh]
	 Same-Spin Energy          =      -0.3780948361431354 [Eh]
	 Opposite-Spin Energy      =      -1.2484683412148196 [Eh]
	 Correlation Energy        =      -1.6265631773579550 [Eh]
	 Total Energy              =    -364.6895052754627500 [Eh]

	 ================> DF-SCS-MP2 Energies <==================
	-----------------------------------------------------------
	 SCS Same-Spin Scale       =       0.3333333333333333 [-]
	 SCS Opposite-Spin Scale   =       1.2000000000000000 [-]
	 SCS Same-Spin Energy      =      -0.1260316120477118 [Eh]
	 SCS Opposite-Spin Energy  =      -1.4981620094577834 [Eh]
	 SCS Correlation Energy    =      -1.6241936215054953 [Eh]
	 SCS Total Energy          =    -364.6871357196102394 [Eh]
	-----------------------------------------------------------

  Dipole Moment: [D]
     X:     4.0685      Y:    -1.0659      Z:     0.8945     Total:     4.2999

*** Psi4 exiting successfully. Buy a developer a beer!
