                               Psi4 1.3.2 release

  ==> Input File <==

--------------------------------------------------------------------------
#psi4
#
memory 32 gb

molecule  {
0 1
  O       -2.5416370     0.0659770    -0.3927070
  N       -0.7122740    -1.2241950    -0.0249760
  C        1.8184652     0.7285945    -0.0164331
  C        1.7187040    -0.7521010    -0.3806110
  C        0.5749500     1.5632640    -0.2598230
  C        0.6466580    -1.4925250     0.4187290
  C       -0.6257670     1.1444980     0.6024810
  C       -1.3868420    -0.0349600     0.0307530
  H        2.6566510     1.1652070    -0.6217190
  H        2.1344690     0.8237010     1.0199600
  H        1.5025340    -0.8781880    -1.4483810
  H        2.6863370    -1.2343500    -0.1898600
  H        0.2863390     1.5300770    -1.3181450
  H        0.8108260     2.6104720    -0.0371320
  H        0.7923570    -2.5718330     0.3164690
  H        0.7525260    -1.2638240     1.4882170
  H       -1.3561390     1.9546950     0.6612310
  H       -0.2921570     0.9237120     1.6255030
  H       -1.2491170    -1.9758090    -0.4428220
units angstrom
no_reorient  #important for SAPT in psi4, default
symmetry c1  #important for SAPT in psi4, default
}

set PROPERTIES_ORIGIN ["COM"]
properties('MP2/aug-cc-pvtz', properties = ['dipole'])
--------------------------------------------------------------------------

    Molecular point group: c1
  Charge       = 0
  Multiplicity = 1
  Basis Set: AUG-CC-PVTZ
    Blend: AUG-CC-PVTZ
  Basis Set: (AUG-CC-PVTZ AUX)
    Blend: AUG-CC-PVTZ-JKFIT

    Orbital Energies [Eh]
    ---------------------

    Doubly Occupied:

       1A    -20.509035     2A    -15.578664     3A    -11.343022
       4A    -11.276851     5A    -11.236434     6A    -11.235619
       7A    -11.234613     8A    -11.233568     9A     -1.363443
      10A     -1.228326    11A     -1.095579    12A     -1.042343
      13A     -0.944987    14A     -0.888807    15A     -0.795683
      16A     -0.763953    17A     -0.688136    18A     -0.676116
      19A     -0.625574    20A     -0.612703    21A     -0.603733
      22A     -0.591638    23A     -0.568923    24A     -0.544694
      25A     -0.518313    26A     -0.516328    27A     -0.485235
      28A     -0.472133    29A     -0.464852    30A     -0.410443
      31A     -0.382549

  @DF-RHF Final Energy:  -363.07449044396742

   => Energetics <=

    Nuclear Repulsion Energy =            394.3801480815477021
    One-Electron Energy =               -1275.0446800238410106
    Two-Electron Energy =                 517.5900414983258315
    Total Energy =                       -363.0744904439674201
  Basis Set: (AUG-CC-PVTZ AUX)
    Blend: AUG-CC-PVTZ-RI
    Molecular point group: c1

    Geometry (in Angstrom), charge = 0, multiplicity = 1:

       Center              X                  Y                   Z               Mass
    ------------   -----------------  -----------------  -----------------  -----------------
         O           -2.463108008820     0.075824625036    -0.385381992285    15.994914619570
         N           -0.633745008820    -1.214347374964    -0.017650992285    14.003074004430
         C            1.896994191180     0.738442125036    -0.009108092285    12.000000000000
         C            1.797232991180    -0.742253374964    -0.373285992285    12.000000000000
         C            0.653478991180     1.573111625036    -0.252497992285    12.000000000000
         C            0.725186991180    -1.482677374964     0.426054007715    12.000000000000
         C           -0.547238008820     1.154345625036     0.609806007715    12.000000000000
         C           -1.308313008820    -0.025112374964     0.038078007715    12.000000000000
         H            2.735179991180     1.175054625036    -0.614393992285     1.007825032230
         H            2.212997991180     0.833548625036     1.027285007715     1.007825032230
         H            1.581062991180    -0.868340374964    -1.441055992285     1.007825032230
         H            2.764865991180    -1.224502374964    -0.182534992285     1.007825032230
         H            0.364867991180     1.539924625036    -1.310819992285     1.007825032230
         H            0.889354991180     2.620319625036    -0.029806992285     1.007825032230
         H            0.870885991180    -2.561985374964     0.323794007715     1.007825032230
         H            0.831054991180    -1.253976374964     1.495542007715     1.007825032230
         H           -1.277610008820     1.964542625036     0.668556007715     1.007825032230
         H           -0.213628008820     0.933559625036     1.632828007715     1.007825032230
         H           -1.170588008820    -1.965961374964    -0.435496992285     1.007825032230

  Basis Set: AUG-CC-PVTZ
    Blend: AUG-CC-PVTZ
  Basis Set: (AUG-CC-PVTZ AUX)
    Blend: AUG-CC-PVTZ-JKFIT
	 Reference Energy          =    -363.0744904439674201 [Eh]
	 Singles Energy            =      -0.0000000000000000 [Eh]
	 Same-Spin Energy          =      -0.3778453648824526 [Eh]
	 Opposite-Spin Energy      =      -1.2478251357713392 [Eh]
	 Correlation Energy        =      -1.6256705006537917 [Eh]
	 Total Energy              =    -364.7001609446211887 [Eh]

	 ================> DF-SCS-MP2 Energies <==================
	-----------------------------------------------------------
	 SCS Same-Spin Scale       =       0.3333333333333333 [-]
	 SCS Opposite-Spin Scale   =       1.2000000000000000 [-]
	 SCS Same-Spin Energy      =      -0.1259484549608175 [Eh]
	 SCS Opposite-Spin Energy  =      -1.4973901629256070 [Eh]
	 SCS Correlation Energy    =      -1.6233386178864246 [Eh]
	 SCS Total Energy          =    -364.6978290618538381 [Eh]
	-----------------------------------------------------------

  Dipole Moment: [D]
     X:     4.0674      Y:    -1.0373      Z:     0.9033     Total:     4.2936

*** Psi4 exiting successfully. Buy a developer a beer!
