                               Psi4 1.3.2 release

  ==> Input File <==

--------------------------------------------------------------------------
#psi4
#
memory 32 gb

molecule  {
0 1
  O       -2.5416370     0.0659770    -0.3927070
  N       -0.7122740    -1.2241950    -0.0249760
  C        1.8380290     0.7314390    -0.0343340
  C        1.7187040    -0.7521010    -0.3806110
  C        0.5749500     1.5632640    -0.2598230
  C        0.6466580    -1.4925250     0.4187290
  C       -0.6257670     1.1444980     0.6024810
  C       -1.3868420    -0.0349600     0.0307530
  H        2.6566510     1.1652070    -0.6217190
  H        2.1344690     0.8237010     1.0199600
  H        1.5025340    -0.8781880    -1.4483810
  H        2.6863370    -1.2343500    -0.1898600
  H        0.2863390     1.5300770    -1.3181450
  H        0.8108260     2.6104720    -0.0371320
  H        0.7923570    -2.5718330     0.3164690
  H        0.7525260    -1.2638240     1.4882170
  H       -1.2224189     1.8063601     0.6504748
  H       -0.2921570     0.9237120     1.6255030
  H       -1.2491170    -1.9758090    -0.4428220
units angstrom
no_reorient  #important for SAPT in psi4, default
symmetry c1  #important for SAPT in psi4, default
}

set PROPERTIES_ORIGIN ["COM"]
properties('MP2/aug-cc-pvtz', properties = ['dipole'])
--------------------------------------------------------------------------

    Molecular point group: c1
  Charge       = 0
  Multiplicity = 1
  Basis Set: AUG-CC-PVTZ
    Blend: AUG-CC-PVTZ
  Basis Set: (AUG-CC-PVTZ AUX)
    Blend: AUG-CC-PVTZ-JKFIT

    Orbital Energies [Eh]
    ---------------------

    Doubly Occupied:

       1A    -20.509668     2A    -15.577770     3A    -11.342310
       4A    -11.276750     5A    -11.235888     6A    -11.233885
       7A    -11.232480     8A    -11.212874     9A     -1.363962
      10A     -1.227618    11A     -1.097622    12A     -1.049958
      13A     -0.954936    14A     -0.888604    15A     -0.795159
      16A     -0.779251    17A     -0.687683    18A     -0.677499
      19A     -0.629748    20A     -0.613633    21A     -0.608107
      22A     -0.594116    23A     -0.583251    24A     -0.545677
      25A     -0.522996    26A     -0.515389    27A     -0.481926
      28A     -0.475845    29A     -0.468945    30A     -0.410391
      31A     -0.382501

  @DF-RHF Final Energy:  -363.04176927890074

   => Energetics <=

    Nuclear Repulsion Energy =            395.2502108089285571
    One-Electron Energy =               -1276.6310727155569111
    Two-Electron Energy =                 518.3390926277276094
    Total Energy =                       -363.0417692789006878
  Basis Set: (AUG-CC-PVTZ AUX)
    Blend: AUG-CC-PVTZ-RI
    Molecular point group: c1

    Geometry (in Angstrom), charge = 0, multiplicity = 1:

       Center              X                  Y                   Z               Mass
    ------------   -----------------  -----------------  -----------------  -----------------
         O           -2.466375773093     0.076844765463    -0.383386563755    15.994914619570
         N           -0.637012773093    -1.213327234537    -0.015655563755    14.003074004430
         C            1.913290226907     0.742306765463    -0.025013563755    12.000000000000
         C            1.793965226907    -0.741233234537    -0.371290563755    12.000000000000
         C            0.650211226907     1.574131765463    -0.250502563755    12.000000000000
         C            0.721919226907    -1.481657234537     0.428049436245    12.000000000000
         C           -0.550505773093     1.155365765463     0.611801436245    12.000000000000
         C           -1.311580773093    -0.024092234537     0.040073436245    12.000000000000
         H            2.731912226907     1.176074765463    -0.612398563755     1.007825032230
         H            2.209730226907     0.834568765463     1.029280436245     1.007825032230
         H            1.577795226907    -0.867320234537    -1.439060563755     1.007825032230
         H            2.761598226907    -1.223482234537    -0.180539563755     1.007825032230
         H            0.361600226907     1.540944765463    -1.308824563755     1.007825032230
         H            0.886087226907     2.621339765463    -0.027811563755     1.007825032230
         H            0.867618226907    -2.560965234537     0.325789436245     1.007825032230
         H            0.827787226907    -1.252956234537     1.497537436245     1.007825032230
         H           -1.147157673093     1.817227865463     0.659795236245     1.007825032230
         H           -0.216895773093     0.934579765463     1.634823436245     1.007825032230
         H           -1.173855773093    -1.964941234537    -0.433501563755     1.007825032230

  Basis Set: AUG-CC-PVTZ
    Blend: AUG-CC-PVTZ
  Basis Set: (AUG-CC-PVTZ AUX)
    Blend: AUG-CC-PVTZ-JKFIT
	 Reference Energy          =    -363.0417692789007447 [Eh]
	 Singles Energy            =      -0.0000000000000000 [Eh]
	 Same-Spin Energy          =      -0.3776401513642539 [Eh]
	 Opposite-Spin Energy      =      -1.2467914094220793 [Eh]
	 Correlation Energy        =      -1.6244315607863333 [Eh]
	 Total Energy              =    -364.6662008396870647 [Eh]

	 ================> DF-SCS-MP2 Energies <==================
	-----------------------------------------------------------
	 SCS Same-Spin Scale       =       0.3333333333333333 [-]
	 SCS Opposite-Spin Scale   =       1.2000000000000000 [-]
	 SCS Same-Spin Energy      =      -0.1258800504547513 [Eh]
	 SCS Opposite-Spin Energy  =      -1.4961496913064951 [Eh]
	 SCS Correlation Energy    =      -1.6220297417612464 [Eh]
	 SCS Total Energy          =    -364.6637990206619975 [Eh]
	-----------------------------------------------------------

  Dipole Moment: [D]
     X:     4.0509      Y:    -1.0122      Z:     0.9184     Total:     4.2752

*** Psi4 exiting successfully. Buy a developer a beer!
