                               Psi4 1.4a3.dev225

  ==> Input File <==

--------------------------------------------------------------------------
#psi4
#
memory 32 gb

molecule  {
0 1
  O       -2.5416370     0.0659770    -0.3927070
  N       -0.7122740    -1.2241950    -0.0249760
  C        1.8380290     0.7314390    -0.0343340
  C        1.7187040    -0.7521010    -0.3806110
  C        0.5749500     1.5632640    -0.2598230
  C        0.6466580    -1.4925250     0.4187290
  C       -0.6257670     1.1444980     0.6024810
  C       -1.3868420    -0.0349600     0.0307530
  H        2.6193377     1.1454356    -0.5949457
  H        2.1344690     0.8237010     1.0199600
  H        1.5025340    -0.8781880    -1.4483810
  H        2.6863370    -1.2343500    -0.1898600
  H        0.2863390     1.5300770    -1.3181450
  H        0.8108260     2.6104720    -0.0371320
  H        0.7923570    -2.5718330     0.3164690
  H        0.7525260    -1.2638240     1.4882170
  H       -1.3561390     1.9546950     0.6612310
  H       -0.2921570     0.9237120     1.6255030
  H       -1.2491170    -1.9758090    -0.4428220
units angstrom
no_reorient  #important for SAPT in psi4, default
symmetry c1  #important for SAPT in psi4, default
}

set PROPERTIES_ORIGIN ["COM"]
properties('MP2/aug-cc-pvtz', properties = ['dipole'])
--------------------------------------------------------------------------

    Molecular point group: c1
  Charge       = 0
  Multiplicity = 1
  Basis Set: AUG-CC-PVTZ
    Blend: AUG-CC-PVTZ
  Basis Set: (AUG-CC-PVTZ AUX)
    Blend: AUG-CC-PVTZ-JKFIT

    Orbital Energies [Eh]
    ---------------------

    Doubly Occupied:

       1A    -20.508818     2A    -15.578416     3A    -11.342774
       4A    -11.276959     5A    -11.236238     6A    -11.235560
       7A    -11.233882     8A    -11.226832     9A     -1.363212
      10A     -1.227988    11A     -1.095055    12A     -1.041993
      13A     -0.947498    14A     -0.888353    15A     -0.797828
      16A     -0.763978    17A     -0.687743    18A     -0.678317
      19A     -0.628512    20A     -0.611586    21A     -0.601513
      22A     -0.591960    23A     -0.571621    24A     -0.544989
      25A     -0.520261    26A     -0.515554    27A     -0.480763
      28A     -0.473027    29A     -0.469273    30A     -0.410405
      31A     -0.382598

  @DF-RHF Final Energy:  -363.07462023946226

   => Energetics <=

    Nuclear Repulsion Energy =            394.3458871454591304
    One-Electron Energy =               -1274.9740056042089691
    Two-Electron Energy =                 517.5534982192876896
    Total Energy =                       -363.0746202394622060
  Basis Set: (AUG-CC-PVTZ AUX)
    Blend: AUG-CC-PVTZ-RI
    Molecular point group: c1

    Geometry (in Angstrom), charge = 0, multiplicity = 1:

       Center              X                  Y                   Z               Mass
    ------------   -----------------  -----------------  -----------------  -----------------
         O           -2.464851493404     0.075698984979    -0.383721033248    15.994914619570
         N           -0.635488493404    -1.214473015021    -0.015990033248    14.003074004430
         C            1.914814506596     0.741160984979    -0.025348033248    12.000000000000
         C            1.795489506596    -0.742379015021    -0.371625033248    12.000000000000
         C            0.651735506596     1.572985984979    -0.250837033248    12.000000000000
         C            0.723443506596    -1.482803015021     0.427714966752    12.000000000000
         C           -0.548981493404     1.154219984979     0.611466966752    12.000000000000
         C           -1.310056493404    -0.025238015021     0.039738966752    12.000000000000
         H            2.696123206596     1.155157584979    -0.585959733248     1.007825032230
         H            2.211254506596     0.833422984979     1.028945966752     1.007825032230
         H            1.579319506596    -0.868466015021    -1.439395033248     1.007825032230
         H            2.763122506596    -1.224628015021    -0.180874033248     1.007825032230
         H            0.363124506596     1.539798984979    -1.309159033248     1.007825032230
         H            0.887611506596     2.620193984979    -0.028146033248     1.007825032230
         H            0.869142506596    -2.562111015021     0.325454966752     1.007825032230
         H            0.829311506596    -1.254102015021     1.497202966752     1.007825032230
         H           -1.279353493404     1.964416984979     0.670216966752     1.007825032230
         H           -0.215371493404     0.933433984979     1.634488966752     1.007825032230
         H           -1.172331493404    -1.966087015021    -0.433836033248     1.007825032230

  Basis Set: AUG-CC-PVTZ
    Blend: AUG-CC-PVTZ
  Basis Set: (AUG-CC-PVTZ AUX)
    Blend: AUG-CC-PVTZ-JKFIT
	 Reference Energy          =    -363.0746202394622628 [Eh]
	 Singles Energy            =      -0.0000000000000000 [Eh]
	 Same-Spin Energy          =      -0.3777140194693922 [Eh]
	 Opposite-Spin Energy      =      -1.2473512970471479 [Eh]
	 Correlation Energy        =      -1.6250653165165401 [Eh]
	 Total Energy              =    -364.6996855559788173 [Eh]

	 ================> DF-SCS-MP2 Energies <==================
	-----------------------------------------------------------
	 SCS Same-Spin Scale       =       0.3333333333333333 [-]
	 SCS Opposite-Spin Scale   =       1.2000000000000000 [-]
	 SCS Same-Spin Energy      =      -0.1259046731564641 [Eh]
	 SCS Opposite-Spin Energy  =      -1.4968215564565774 [Eh]
	 SCS Correlation Energy    =      -1.6227262296130416 [Eh]
	 SCS Total Energy          =    -364.6973464690752849 [Eh]
	-----------------------------------------------------------

  Dipole Moment: [D]
     X:     4.1055      Y:    -1.0204      Z:     0.8832     Total:     4.3216

*** Psi4 exiting successfully. Buy a developer a beer!
