                               Psi4 1.3.2 release

  ==> Input File <==

--------------------------------------------------------------------------
#psi4
#
memory 32 gb

molecule  {
0 1
  O       -2.5416370     0.0659770    -0.3927070
  N       -0.7122740    -1.2241950    -0.0249760
  C        1.8380290     0.7314390    -0.0343340
  C        1.7187040    -0.7521010    -0.3806110
  C        0.5749500     1.5632640    -0.2598230
  C        0.6466580    -1.4925250     0.4187290
  C       -0.6257670     1.1444980     0.6024810
  C       -1.4804142    -0.0267812    -0.0035596
  H        2.6566510     1.1652070    -0.6217190
  H        2.1344690     0.8237010     1.0199600
  H        1.5025340    -0.8781880    -1.4483810
  H        2.6863370    -1.2343500    -0.1898600
  H        0.2863390     1.5300770    -1.3181450
  H        0.8108260     2.6104720    -0.0371320
  H        0.7923570    -2.5718330     0.3164690
  H        0.7525260    -1.2638240     1.4882170
  H       -1.3561390     1.9546950     0.6612310
  H       -0.2921570     0.9237120     1.6255030
  H       -1.2491170    -1.9758090    -0.4428220
units angstrom
no_reorient  #important for SAPT in psi4, default
symmetry c1  #important for SAPT in psi4, default
}

set PROPERTIES_ORIGIN ["COM"]
properties('MP2/aug-cc-pvtz', properties = ['dipole'])
--------------------------------------------------------------------------

    Molecular point group: c1
  Charge       = 0
  Multiplicity = 1
  Basis Set: AUG-CC-PVTZ
    Blend: AUG-CC-PVTZ
  Basis Set: (AUG-CC-PVTZ AUX)
    Blend: AUG-CC-PVTZ-JKFIT

    Orbital Energies [Eh]
    ---------------------

    Doubly Occupied:

       1A    -20.529259     2A    -15.563147     3A    -11.340117
       4A    -11.271195     5A    -11.232584     6A    -11.231624
       7A    -11.228896     8A    -11.228220     9A     -1.436858
      10A     -1.213691    11A     -1.086221    12A     -1.031820
      13A     -0.934721    14A     -0.877484    15A     -0.789027
      16A     -0.747774    17A     -0.686605    18A     -0.684930
      19A     -0.629964    20A     -0.614231    21A     -0.600284
      22A     -0.597122    23A     -0.577016    24A     -0.552121
      25A     -0.533311    26A     -0.513148    27A     -0.476350
      28A     -0.472703    29A     -0.464382    30A     -0.406435
      31A     -0.381302

  @DF-RHF Final Energy:  -363.06395530531142

   => Energetics <=

    Nuclear Repulsion Energy =            393.8837846360323738
    One-Electron Energy =               -1274.0303958819113177
    Two-Electron Energy =                 517.0826559405675198
    Total Energy =                       -363.0639553053114241
  Basis Set: (AUG-CC-PVTZ AUX)
    Blend: AUG-CC-PVTZ-RI
    Molecular point group: c1

    Geometry (in Angstrom), charge = 0, multiplicity = 1:

       Center              X                  Y                   Z               Mass
    ------------   -----------------  -----------------  -----------------  -----------------
         O           -2.455254552120     0.074654879314    -0.379841317694    15.994914619570
         N           -0.625891552120    -1.215517120686    -0.012110317694    14.003074004430
         C            1.924411447880     0.740116879314    -0.021468317694    12.000000000000
         C            1.805086447880    -0.743423120686    -0.367745317694    12.000000000000
         C            0.661332447880     1.571941879314    -0.246957317694    12.000000000000
         C            0.733040447880    -1.483847120686     0.431594682306    12.000000000000
         C           -0.539384552120     1.153175879314     0.615346682306    12.000000000000
         C           -1.394031752120    -0.018103320686     0.009306082306    12.000000000000
         H            2.743033447880     1.173884879314    -0.608853317694     1.007825032230
         H            2.220851447880     0.832378879314     1.032825682306     1.007825032230
         H            1.588916447880    -0.869510120686    -1.435515317694     1.007825032230
         H            2.772719447880    -1.225672120686    -0.176994317694     1.007825032230
         H            0.372721447880     1.538754879314    -1.305279317694     1.007825032230
         H            0.897208447880     2.619149879314    -0.024266317694     1.007825032230
         H            0.878739447880    -2.563155120686     0.329334682306     1.007825032230
         H            0.838908447880    -1.255146120686     1.501082682306     1.007825032230
         H           -1.269756552120     1.963372879314     0.674096682306     1.007825032230
         H           -0.205774552120     0.932389879314     1.638368682306     1.007825032230
         H           -1.162734552120    -1.967131120686    -0.429956317694     1.007825032230

  Basis Set: AUG-CC-PVTZ
    Blend: AUG-CC-PVTZ
  Basis Set: (AUG-CC-PVTZ AUX)
    Blend: AUG-CC-PVTZ-JKFIT
	 Reference Energy          =    -363.0639553053114241 [Eh]
	 Singles Energy            =      -0.0000000000000000 [Eh]
	 Same-Spin Energy          =      -0.3757675282024240 [Eh]
	 Opposite-Spin Energy      =      -1.2439463391571814 [Eh]
	 Correlation Energy        =      -1.6197138673596054 [Eh]
	 Total Energy              =    -364.6836691726710455 [Eh]

	 ================> DF-SCS-MP2 Energies <==================
	-----------------------------------------------------------
	 SCS Same-Spin Scale       =       0.3333333333333333 [-]
	 SCS Opposite-Spin Scale   =       1.2000000000000000 [-]
	 SCS Same-Spin Energy      =      -0.1252558427341413 [Eh]
	 SCS Opposite-Spin Energy  =      -1.4927356069886177 [Eh]
	 SCS Correlation Energy    =      -1.6179914497227590 [Eh]
	 SCS Total Energy          =    -364.6819467550341756 [Eh]
	-----------------------------------------------------------

  Dipole Moment: [D]
     X:     3.2355      Y:    -0.8062      Z:     0.6914     Total:     3.4054

*** Psi4 exiting successfully. Buy a developer a beer!
