                               Psi4 1.4a3.dev225

  ==> Input File <==

--------------------------------------------------------------------------
#psi4
#
memory 32 gb

molecule  {
0 1
  O       -2.5416370     0.0659770    -0.3927070
  N       -0.7122740    -1.2241950    -0.0249760
  C        1.8380290     0.7314390    -0.0343340
  C        1.7187040    -0.7521010    -0.3806110
  C        0.5749500     1.5632640    -0.2598230
  C        0.6466580    -1.4925250     0.4187290
  C       -0.6257670     1.1444980     0.6024810
  C       -1.3868420    -0.0349600     0.0307530
  H        2.6566510     1.1652070    -0.6217190
  H        2.1344690     0.8237010     1.0199600
  H        1.4926786    -0.8839365    -1.4970619
  H        2.6863370    -1.2343500    -0.1898600
  H        0.2863390     1.5300770    -1.3181450
  H        0.8108260     2.6104720    -0.0371320
  H        0.7923570    -2.5718330     0.3164690
  H        0.7525260    -1.2638240     1.4882170
  H       -1.3561390     1.9546950     0.6612310
  H       -0.2921570     0.9237120     1.6255030
  H       -1.2491170    -1.9758090    -0.4428220
units angstrom
no_reorient  #important for SAPT in psi4, default
symmetry c1  #important for SAPT in psi4, default
}

set PROPERTIES_ORIGIN ["COM"]
properties('MP2/aug-cc-pvtz', properties = ['dipole'])
--------------------------------------------------------------------------

    Molecular point group: c1
  Charge       = 0
  Multiplicity = 1
  Basis Set: AUG-CC-PVTZ
    Blend: AUG-CC-PVTZ
  Basis Set: (AUG-CC-PVTZ AUX)
    Blend: AUG-CC-PVTZ-JKFIT

    Orbital Energies [Eh]
    ---------------------

    Doubly Occupied:

       1A    -20.509091     2A    -15.578670     3A    -11.343078
       4A    -11.277940     5A    -11.240374     6A    -11.236763
       7A    -11.236063     8A    -11.233705     9A     -1.363476
      10A     -1.228252    11A     -1.093615    12A     -1.041257
      13A     -0.945654    14A     -0.887431    15A     -0.792445
      16A     -0.763982    17A     -0.687232    18A     -0.677017
      19A     -0.626011    20A     -0.610915    21A     -0.601126
      22A     -0.591770    23A     -0.570298    24A     -0.545348
      25A     -0.519516    26A     -0.512305    27A     -0.478659
      28A     -0.470760    29A     -0.469880    30A     -0.410636
      31A     -0.382940

  @DF-RHF Final Energy:  -363.07341320096799

   => Energetics <=

    Nuclear Repulsion Energy =            393.8622902902089891
    One-Electron Energy =               -1274.0189900000646048
    Two-Electron Energy =                 517.0832865088876815
    Total Energy =                       -363.0734132009679342
  Basis Set: (AUG-CC-PVTZ AUX)
    Blend: AUG-CC-PVTZ-RI
    Molecular point group: c1

    Geometry (in Angstrom), charge = 0, multiplicity = 1:

       Center              X                  Y                   Z               Mass
    ------------   -----------------  -----------------  -----------------  -----------------
         O           -2.465096203030     0.075574010433    -0.383048572170    15.994914619570
         N           -0.635733203030    -1.214597989567    -0.015317572170    14.003074004430
         C            1.914569796970     0.741036010433    -0.024675572170    12.000000000000
         C            1.795244796970    -0.742503989567    -0.370952572170    12.000000000000
         C            0.651490796970     1.572861010433    -0.250164572170    12.000000000000
         C            0.723198796970    -1.482927989567     0.428387427830    12.000000000000
         C           -0.549226203030     1.154095010433     0.612139427830    12.000000000000
         C           -1.310301203030    -0.025362989567     0.040411427830    12.000000000000
         H            2.733191796970     1.174804010433    -0.612060572170     1.007825032230
         H            2.211009796970     0.833298010433     1.029618427830     1.007825032230
         H            1.569219396970    -0.874339489567    -1.487403472170     1.007825032230
         H            2.762877796970    -1.224752989567    -0.180201572170     1.007825032230
         H            0.362879796970     1.539674010433    -1.308486572170     1.007825032230
         H            0.887366796970     2.620069010433    -0.027473572170     1.007825032230
         H            0.868897796970    -2.562235989567     0.326127427830     1.007825032230
         H            0.829066796970    -1.254226989567     1.497875427830     1.007825032230
         H           -1.279598203030     1.964292010433     0.670889427830     1.007825032230
         H           -0.215616203030     0.933309010433     1.635161427830     1.007825032230
         H           -1.172576203030    -1.966211989567    -0.433163572170     1.007825032230

  Basis Set: AUG-CC-PVTZ
    Blend: AUG-CC-PVTZ
  Basis Set: (AUG-CC-PVTZ AUX)
    Blend: AUG-CC-PVTZ-JKFIT
	 Reference Energy          =    -363.0734132009679911 [Eh]
	 Singles Energy            =      -0.0000000000000000 [Eh]
	 Same-Spin Energy          =      -0.3777470976403267 [Eh]
	 Opposite-Spin Energy      =      -1.2480142903211027 [Eh]
	 Correlation Energy        =      -1.6257613879614294 [Eh]
	 Total Energy              =    -364.6991745889293952 [Eh]

	 ================> DF-SCS-MP2 Energies <==================
	-----------------------------------------------------------
	 SCS Same-Spin Scale       =       0.3333333333333333 [-]
	 SCS Opposite-Spin Scale   =       1.2000000000000000 [-]
	 SCS Same-Spin Energy      =      -0.1259156992134422 [Eh]
	 SCS Opposite-Spin Energy  =      -1.4976171483853231 [Eh]
	 SCS Correlation Energy    =      -1.6235328475987654 [Eh]
	 SCS Total Energy          =    -364.6969460485667582 [Eh]
	-----------------------------------------------------------

  Dipole Moment: [D]
     X:     4.0725      Y:    -1.0270      Z:     0.9268     Total:     4.3010

*** Psi4 exiting successfully. Buy a developer a beer!
