                               Psi4 1.3.2 release

  ==> Input File <==

--------------------------------------------------------------------------
#psi4
#
memory 32 gb

molecule  {
0 1
  O       -2.5416370     0.0659770    -0.3927070
  N       -0.7122740    -1.2241950    -0.0249760
  C        1.8380290     0.7314390    -0.0343340
  C        1.6743705    -0.6606242    -0.3482148
  C        0.5749500     1.5632640    -0.2598230
  C        0.6466580    -1.4925250     0.4187290
  C       -0.6257670     1.1444980     0.6024810
  C       -1.3868420    -0.0349600     0.0307530
  H        2.6566510     1.1652070    -0.6217190
  H        2.1344690     0.8237010     1.0199600
  H        1.5025340    -0.8781880    -1.4483810
  H        2.6863370    -1.2343500    -0.1898600
  H        0.2863390     1.5300770    -1.3181450
  H        0.8108260     2.6104720    -0.0371320
  H        0.7923570    -2.5718330     0.3164690
  H        0.7525260    -1.2638240     1.4882170
  H       -1.3561390     1.9546950     0.6612310
  H       -0.2921570     0.9237120     1.6255030
  H       -1.2491170    -1.9758090    -0.4428220
units angstrom
no_reorient  #important for SAPT in psi4, default
symmetry c1  #important for SAPT in psi4, default
}

set PROPERTIES_ORIGIN ["COM"]
properties('MP2/aug-cc-pvtz', properties = ['dipole'])
--------------------------------------------------------------------------

    Molecular point group: c1
  Charge       = 0
  Multiplicity = 1
  Basis Set: AUG-CC-PVTZ
    Blend: AUG-CC-PVTZ
  Basis Set: (AUG-CC-PVTZ AUX)
    Blend: AUG-CC-PVTZ-JKFIT

    Orbital Energies [Eh]
    ---------------------

    Doubly Occupied:

       1A    -20.509052     2A    -15.577650     3A    -11.343175
       4A    -11.279230     5A    -11.240340     6A    -11.237014
       7A    -11.236272     8A    -11.230330     9A     -1.363510
      10A     -1.229300    11A     -1.105727    12A     -1.043532
      13A     -0.949153    14A     -0.890159    15A     -0.790206
      16A     -0.764783    17A     -0.687606    18A     -0.680372
      19A     -0.630582    20A     -0.616401    21A     -0.604633
      22A     -0.592826    23A     -0.564207    24A     -0.545946
      25A     -0.523252    26A     -0.510604    27A     -0.490899
      28A     -0.469731    29A     -0.457773    30A     -0.410591
      31A     -0.380375

  @DF-RHF Final Energy:  -363.06206909034472

   => Energetics <=

    Nuclear Repulsion Energy =            395.5896531512573802
    One-Electron Energy =               -1277.3929784133952126
    Two-Electron Energy =                 518.7412561717931112
    Total Energy =                       -363.0620690903447212
  Basis Set: (AUG-CC-PVTZ AUX)
    Blend: AUG-CC-PVTZ-RI
    Molecular point group: c1

    Geometry (in Angstrom), charge = 0, multiplicity = 1:

       Center              X                  Y                   Z               Mass
    ------------   -----------------  -----------------  -----------------  -----------------
         O           -2.460479553585     0.065815649764    -0.386920171883    15.994914619570
         N           -0.631116553585    -1.224356350236    -0.019189171883    14.003074004430
         C            1.919186446415     0.731277649764    -0.028547171883    12.000000000000
         C            1.755527946415    -0.660785550236    -0.342427971883    12.000000000000
         C            0.656107446415     1.563102649764    -0.254036171883    12.000000000000
         C            0.727815446415    -1.492686350236     0.424515828117    12.000000000000
         C           -0.544609553585     1.144336649764     0.608267828117    12.000000000000
         C           -1.305684553585    -0.035121350236     0.036539828117    12.000000000000
         H            2.737808446415     1.165045649764    -0.615932171883     1.007825032230
         H            2.215626446415     0.823539649764     1.025746828117     1.007825032230
         H            1.583691446415    -0.878349350236    -1.442594171883     1.007825032230
         H            2.767494446415    -1.234511350236    -0.184073171883     1.007825032230
         H            0.367496446415     1.529915649764    -1.312358171883     1.007825032230
         H            0.891983446415     2.610310649764    -0.031345171883     1.007825032230
         H            0.873514446415    -2.571994350236     0.322255828117     1.007825032230
         H            0.833683446415    -1.263985350236     1.494003828117     1.007825032230
         H           -1.274981553585     1.954533649764     0.667017828117     1.007825032230
         H           -0.210999553585     0.923550649764     1.631289828117     1.007825032230
         H           -1.167959553585    -1.975970350236    -0.437035171883     1.007825032230

  Basis Set: AUG-CC-PVTZ
    Blend: AUG-CC-PVTZ
  Basis Set: (AUG-CC-PVTZ AUX)
    Blend: AUG-CC-PVTZ-JKFIT
	 Reference Energy          =    -363.0620690903447212 [Eh]
	 Singles Energy            =      -0.0000000000000000 [Eh]
	 Same-Spin Energy          =      -0.3788485711251373 [Eh]
	 Opposite-Spin Energy      =      -1.2492026186411416 [Eh]
	 Correlation Energy        =      -1.6280511897662788 [Eh]
	 Total Energy              =    -364.6901202801109889 [Eh]

	 ================> DF-SCS-MP2 Energies <==================
	-----------------------------------------------------------
	 SCS Same-Spin Scale       =       0.3333333333333333 [-]
	 SCS Opposite-Spin Scale   =       1.2000000000000000 [-]
	 SCS Same-Spin Energy      =      -0.1262828570417124 [Eh]
	 SCS Opposite-Spin Energy  =      -1.4990431423693698 [Eh]
	 SCS Correlation Energy    =      -1.6253259994110822 [Eh]
	 SCS Total Energy          =    -364.6873950897557961 [Eh]
	-----------------------------------------------------------

  Dipole Moment: [D]
     X:     4.0493      Y:    -0.9995      Z:     0.9185     Total:     4.2708

*** Psi4 exiting successfully. Buy a developer a beer!
