                               Psi4 1.4a3.dev225

  ==> Input File <==

--------------------------------------------------------------------------
#psi4
#
memory 32 gb

molecule  {
0 1
  O       -2.5416370     0.0659770    -0.3927070
  N       -0.7122740    -1.2241950    -0.0249760
  C        1.8380290     0.7314390    -0.0343340
  C        1.7202658    -0.7326840    -0.3760788
  C        0.5749500     1.5632640    -0.2598230
  C        0.6466580    -1.4925250     0.4187290
  C       -0.6257670     1.1444980     0.6024810
  C       -1.3868420    -0.0349600     0.0307530
  H        2.6566510     1.1652070    -0.6217190
  H        2.1344690     0.8237010     1.0199600
  H        1.5025340    -0.8781880    -1.4483810
  H        2.6863370    -1.2343500    -0.1898600
  H        0.2863390     1.5300770    -1.3181450
  H        0.8108260     2.6104720    -0.0371320
  H        0.7923570    -2.5718330     0.3164690
  H        0.7525260    -1.2638240     1.4882170
  H       -1.3561390     1.9546950     0.6612310
  H       -0.2921570     0.9237120     1.6255030
  H       -1.2491170    -1.9758090    -0.4428220
units angstrom
no_reorient  #important for SAPT in psi4, default
symmetry c1  #important for SAPT in psi4, default
}

set PROPERTIES_ORIGIN ["COM"]
properties('MP2/aug-cc-pvtz', properties = ['dipole'])
--------------------------------------------------------------------------

    Molecular point group: c1
  Charge       = 0
  Multiplicity = 1
  Basis Set: AUG-CC-PVTZ
    Blend: AUG-CC-PVTZ
  Basis Set: (AUG-CC-PVTZ AUX)
    Blend: AUG-CC-PVTZ-JKFIT

    Orbital Energies [Eh]
    ---------------------

    Doubly Occupied:

       1A    -20.509055     2A    -15.578569     3A    -11.343035
       4A    -11.277735     5A    -11.236782     6A    -11.236082
       7A    -11.235026     8A    -11.232407     9A     -1.363442
      10A     -1.228108    11A     -1.095914    12A     -1.041926
      13A     -0.945524    14A     -0.889251    15A     -0.794600
      16A     -0.764141    17A     -0.687541    18A     -0.677180
      19A     -0.626714    20A     -0.612088    21A     -0.602552
      22A     -0.591921    23A     -0.569422    24A     -0.544520
      25A     -0.519914    26A     -0.514505    27A     -0.481777
      28A     -0.471901    29A     -0.469460    30A     -0.410595
      31A     -0.381988

  @DF-RHF Final Energy:  -363.07490990230951

   => Energetics <=

    Nuclear Repulsion Energy =            394.2387759645809524
    One-Electron Energy =               -1274.7600202484513829
    Two-Electron Energy =                 517.4463343815608596
    Total Energy =                       -363.0749099023095141
  Basis Set: (AUG-CC-PVTZ AUX)
    Blend: AUG-CC-PVTZ-RI
    Molecular point group: c1

    Geometry (in Angstrom), charge = 0, multiplicity = 1:

       Center              X                  Y                   Z               Mass
    ------------   -----------------  -----------------  -----------------  -----------------
         O           -2.465349767660     0.073462329319    -0.383963362689    15.994914619570
         N           -0.635986767660    -1.216709670681    -0.016232362689    14.003074004430
         C            1.914316232340     0.738924329319    -0.025590362689    12.000000000000
         C            1.796553032340    -0.725198670681    -0.367335162689    12.000000000000
         C            0.651237232340     1.570749329319    -0.251079362689    12.000000000000
         C            0.722945232340    -1.485039670681     0.427472637311    12.000000000000
         C           -0.549479767660     1.151983329319     0.611224637311    12.000000000000
         C           -1.310554767660    -0.027474670681     0.039496637311    12.000000000000
         H            2.732938232340     1.172692329319    -0.612975362689     1.007825032230
         H            2.210756232340     0.831186329319     1.028703637311     1.007825032230
         H            1.578821232340    -0.870702670681    -1.439637362689     1.007825032230
         H            2.762624232340    -1.226864670681    -0.181116362689     1.007825032230
         H            0.362626232340     1.537562329319    -1.309401362689     1.007825032230
         H            0.887113232340     2.617957329319    -0.028388362689     1.007825032230
         H            0.868644232340    -2.564347670681     0.325212637311     1.007825032230
         H            0.828813232340    -1.256338670681     1.496960637311     1.007825032230
         H           -1.279851767660     1.962180329319     0.669974637311     1.007825032230
         H           -0.215869767660     0.931197329319     1.634246637311     1.007825032230
         H           -1.172829767660    -1.968323670681    -0.434078362689     1.007825032230

  Basis Set: AUG-CC-PVTZ
    Blend: AUG-CC-PVTZ
  Basis Set: (AUG-CC-PVTZ AUX)
    Blend: AUG-CC-PVTZ-JKFIT
	 Reference Energy          =    -363.0749099023095141 [Eh]
	 Singles Energy            =      -0.0000000000000000 [Eh]
	 Same-Spin Energy          =      -0.3778374946165439 [Eh]
	 Opposite-Spin Energy      =      -1.2477919014268890 [Eh]
	 Correlation Energy        =      -1.6256293960434329 [Eh]
	 Total Energy              =    -364.7005392983529646 [Eh]

	 ================> DF-SCS-MP2 Energies <==================
	-----------------------------------------------------------
	 SCS Same-Spin Scale       =       0.3333333333333333 [-]
	 SCS Opposite-Spin Scale   =       1.2000000000000000 [-]
	 SCS Same-Spin Energy      =      -0.1259458315388480 [Eh]
	 SCS Opposite-Spin Energy  =      -1.4973502817122668 [Eh]
	 SCS Correlation Energy    =      -1.6232961132511148 [Eh]
	 SCS Total Energy          =    -364.6982060155606291 [Eh]
	-----------------------------------------------------------

  Dipole Moment: [D]
     X:     4.0706      Y:    -1.0308      Z:     0.8994     Total:     4.2944

*** Psi4 exiting successfully. Buy a developer a beer!
