                               Psi4 1.3.2 release

  ==> Input File <==

--------------------------------------------------------------------------
#psi4
#
memory 32 gb

molecule  {
0 1
  O       -2.5416370     0.0659770    -0.3927070
  N       -0.7122740    -1.2241950    -0.0249760
  C        1.8380290     0.7314390    -0.0343340
  C        1.6984148    -0.7542387    -0.3634338
  C        0.5749500     1.5632640    -0.2598230
  C        0.6466580    -1.4925250     0.4187290
  C       -0.6257670     1.1444980     0.6024810
  C       -1.3868420    -0.0349600     0.0307530
  H        2.6566510     1.1652070    -0.6217190
  H        2.1344690     0.8237010     1.0199600
  H        1.5025340    -0.8781880    -1.4483810
  H        2.6863370    -1.2343500    -0.1898600
  H        0.2863390     1.5300770    -1.3181450
  H        0.8108260     2.6104720    -0.0371320
  H        0.7923570    -2.5718330     0.3164690
  H        0.7525260    -1.2638240     1.4882170
  H       -1.3561390     1.9546950     0.6612310
  H       -0.2921570     0.9237120     1.6255030
  H       -1.2491170    -1.9758090    -0.4428220
units angstrom
no_reorient  #important for SAPT in psi4, default
symmetry c1  #important for SAPT in psi4, default
}

set PROPERTIES_ORIGIN ["COM"]
properties('MP2/aug-cc-pvtz', properties = ['dipole'])
--------------------------------------------------------------------------

    Molecular point group: c1
  Charge       = 0
  Multiplicity = 1
  Basis Set: AUG-CC-PVTZ
    Blend: AUG-CC-PVTZ
  Basis Set: (AUG-CC-PVTZ AUX)
    Blend: AUG-CC-PVTZ-JKFIT

    Orbital Energies [Eh]
    ---------------------

    Doubly Occupied:

       1A    -20.509117     2A    -15.578572     3A    -11.343152
       4A    -11.276841     5A    -11.236546     6A    -11.235958
       7A    -11.235449     8A    -11.233391     9A     -1.363550
      10A     -1.229209    11A     -1.094576    12A     -1.044088
      13A     -0.947135    14A     -0.887497    15A     -0.794255
      16A     -0.764414    17A     -0.688582    18A     -0.677725
      19A     -0.626762    20A     -0.612812    21A     -0.601407
      22A     -0.592351    23A     -0.568910    24A     -0.547996
      25A     -0.519538    26A     -0.513615    27A     -0.478770
      28A     -0.472620    29A     -0.467593    30A     -0.410642
      31A     -0.383822

  @DF-RHF Final Energy:  -363.07447970110206

   => Energetics <=

    Nuclear Repulsion Energy =            394.4626378348767730
    One-Electron Energy =               -1275.2004426656990290
    Two-Electron Energy =                 517.6633251297201923
    Total Energy =                       -363.0744797011020637
  Basis Set: (AUG-CC-PVTZ AUX)
    Blend: AUG-CC-PVTZ-RI
    Molecular point group: c1

    Geometry (in Angstrom), charge = 0, multiplicity = 1:

       Center              X                  Y                   Z               Mass
    ------------   -----------------  -----------------  -----------------  -----------------
         O           -2.463031032457     0.075749622425    -0.385305196319    15.994914619570
         N           -0.633668032457    -1.214422377575    -0.017574196319    14.003074004430
         C            1.916634967543     0.741211622425    -0.026932196319    12.000000000000
         C            1.777020767543    -0.744466077575    -0.356031996319    12.000000000000
         C            0.653555967543     1.573036622425    -0.252421196319    12.000000000000
         C            0.725263967543    -1.482752377575     0.426130803681    12.000000000000
         C           -0.547161032457     1.154270622425     0.609882803681    12.000000000000
         C           -1.308236032457    -0.025187377575     0.038154803681    12.000000000000
         H            2.735256967543     1.174979622425    -0.614317196319     1.007825032230
         H            2.213074967543     0.833473622425     1.027361803681     1.007825032230
         H            1.581139967543    -0.868415377575    -1.440979196319     1.007825032230
         H            2.764942967543    -1.224577377575    -0.182458196319     1.007825032230
         H            0.364944967543     1.539849622425    -1.310743196319     1.007825032230
         H            0.889431967543     2.620244622425    -0.029730196319     1.007825032230
         H            0.870962967543    -2.562060377575     0.323870803681     1.007825032230
         H            0.831131967543    -1.254051377575     1.495618803681     1.007825032230
         H           -1.277533032457     1.964467622425     0.668632803681     1.007825032230
         H           -0.213551032457     0.933484622425     1.632904803681     1.007825032230
         H           -1.170511032457    -1.966036377575    -0.435420196319     1.007825032230

  Basis Set: AUG-CC-PVTZ
    Blend: AUG-CC-PVTZ
  Basis Set: (AUG-CC-PVTZ AUX)
    Blend: AUG-CC-PVTZ-JKFIT
	 Reference Energy          =    -363.0744797011020637 [Eh]
	 Singles Energy            =      -0.0000000000000000 [Eh]
	 Same-Spin Energy          =      -0.3779087719971734 [Eh]
	 Opposite-Spin Energy      =      -1.2478670829108389 [Eh]
	 Correlation Energy        =      -1.6257758549080124 [Eh]
	 Total Energy              =    -364.7002555560100632 [Eh]

	 ================> DF-SCS-MP2 Energies <==================
	-----------------------------------------------------------
	 SCS Same-Spin Scale       =       0.3333333333333333 [-]
	 SCS Opposite-Spin Scale   =       1.2000000000000000 [-]
	 SCS Same-Spin Energy      =      -0.1259695906657245 [Eh]
	 SCS Opposite-Spin Energy  =      -1.4974404994930066 [Eh]
	 SCS Correlation Energy    =      -1.6234100901587312 [Eh]
	 SCS Total Energy          =    -364.6978897912608204 [Eh]
	-----------------------------------------------------------

  Dipole Moment: [D]
     X:     4.0733      Y:    -1.0341      Z:     0.9010     Total:     4.2980

*** Psi4 exiting successfully. Buy a developer a beer!
