                               Psi4 1.3.2 release

  ==> Input File <==

--------------------------------------------------------------------------
#psi4
#
memory 32 gb

molecule  {
0 1
  O       -2.5416370     0.0659770    -0.3927070
  N       -0.7122740    -1.2241950    -0.0249760
  C        1.8380290     0.7314390    -0.0343340
  C        1.7187040    -0.7521010    -0.3806110
  C        0.5749500     1.5632640    -0.2598230
  C        0.6466580    -1.4925250     0.4187290
  C       -0.6257670     1.1444980     0.6024810
  C       -1.3095034     0.0031475     0.0718485
  H        2.6566510     1.1652070    -0.6217190
  H        2.1344690     0.8237010     1.0199600
  H        1.5025340    -0.8781880    -1.4483810
  H        2.6863370    -1.2343500    -0.1898600
  H        0.2863390     1.5300770    -1.3181450
  H        0.8108260     2.6104720    -0.0371320
  H        0.7923570    -2.5718330     0.3164690
  H        0.7525260    -1.2638240     1.4882170
  H       -1.3561390     1.9546950     0.6612310
  H       -0.2921570     0.9237120     1.6255030
  H       -1.2491170    -1.9758090    -0.4428220
units angstrom
no_reorient  #important for SAPT in psi4, default
symmetry c1  #important for SAPT in psi4, default
}

set PROPERTIES_ORIGIN ["COM"]
properties('MP2/aug-cc-pvtz', properties = ['dipole'])
--------------------------------------------------------------------------

    Molecular point group: c1
  Charge       = 0
  Multiplicity = 1
  Basis Set: AUG-CC-PVTZ
    Blend: AUG-CC-PVTZ
  Basis Set: (AUG-CC-PVTZ AUX)
    Blend: AUG-CC-PVTZ-JKFIT

    Orbital Energies [Eh]
    ---------------------

    Doubly Occupied:

       1A    -20.497591     2A    -15.585867     3A    -11.348733
       4A    -11.277744     5A    -11.242470     6A    -11.239658
       7A    -11.237214     8A    -11.236601     9A     -1.322962
      10A     -1.218408    11A     -1.102224    12A     -1.053003
      13A     -0.955145    14A     -0.895084    15A     -0.800296
      16A     -0.773530    17A     -0.688804    18A     -0.679718
      19A     -0.631313    20A     -0.613733    21A     -0.606941
      22A     -0.585416    23A     -0.569054    24A     -0.539691
      25A     -0.516003    26A     -0.510003    27A     -0.484751
      28A     -0.475897    29A     -0.461858    30A     -0.406352
      31A     -0.373972

  @DF-RHF Final Energy:  -363.05466321308916

   => Energetics <=

    Nuclear Repulsion Energy =            394.3317943337518159
    One-Electron Energy =               -1274.9128378726388746
    Two-Electron Energy =                 517.5263803257979589
    Total Energy =                       -363.0546632130891567
  Basis Set: (AUG-CC-PVTZ AUX)
    Blend: AUG-CC-PVTZ-RI
    Molecular point group: c1

    Geometry (in Angstrom), charge = 0, multiplicity = 1:

       Center              X                  Y                   Z               Mass
    ------------   -----------------  -----------------  -----------------  -----------------
         O           -2.473390879449     0.071478972937    -0.387843304606    15.994914619570
         N           -0.644027879449    -1.218693027063    -0.020112304606    14.003074004430
         C            1.906275120551     0.736940972937    -0.029470304606    12.000000000000
         C            1.786950120551    -0.746599027063    -0.375747304606    12.000000000000
         C            0.643196120551     1.568765972937    -0.254959304606    12.000000000000
         C            0.714904120551    -1.487023027063     0.423592695394    12.000000000000
         C           -0.557520879449     1.149999972937     0.607344695394    12.000000000000
         C           -1.241257279449     0.008649472937     0.076712195394    12.000000000000
         H            2.724897120551     1.170708972937    -0.616855304606     1.007825032230
         H            2.202715120551     0.829202972937     1.024823695394     1.007825032230
         H            1.570780120551    -0.872686027063    -1.443517304606     1.007825032230
         H            2.754583120551    -1.228848027063    -0.184996304606     1.007825032230
         H            0.354585120551     1.535578972937    -1.313281304606     1.007825032230
         H            0.879072120551     2.615973972937    -0.032268304606     1.007825032230
         H            0.860603120551    -2.566331027063     0.321332695394     1.007825032230
         H            0.820772120551    -1.258322027063     1.493080695394     1.007825032230
         H           -1.287892879449     1.960196972937     0.666094695394     1.007825032230
         H           -0.223910879449     0.929213972937     1.630366695394     1.007825032230
         H           -1.180870879449    -1.970307027063    -0.437958304606     1.007825032230

  Basis Set: AUG-CC-PVTZ
    Blend: AUG-CC-PVTZ
  Basis Set: (AUG-CC-PVTZ AUX)
    Blend: AUG-CC-PVTZ-JKFIT
	 Reference Energy          =    -363.0546632130891567 [Eh]
	 Singles Energy            =      -0.0000000000000000 [Eh]
	 Same-Spin Energy          =      -0.3802976911158349 [Eh]
	 Opposite-Spin Energy      =      -1.2524161964629679 [Eh]
	 Correlation Energy        =      -1.6327138875788028 [Eh]
	 Total Energy              =    -364.6873771006679590 [Eh]

	 ================> DF-SCS-MP2 Energies <==================
	-----------------------------------------------------------
	 SCS Same-Spin Scale       =       0.3333333333333333 [-]
	 SCS Opposite-Spin Scale   =       1.2000000000000000 [-]
	 SCS Same-Spin Energy      =      -0.1267658970386116 [Eh]
	 SCS Opposite-Spin Energy  =      -1.5028994357555614 [Eh]
	 SCS Correlation Energy    =      -1.6296653327941730 [Eh]
	 SCS Total Energy          =    -364.6843285458833179 [Eh]
	-----------------------------------------------------------

  Dipole Moment: [D]
     X:     4.5502      Y:    -0.9466      Z:     1.0499     Total:     4.7647

*** Psi4 exiting successfully. Buy a developer a beer!
