                               Psi4 1.3.2 release

  ==> Input File <==

--------------------------------------------------------------------------
#psi4
#
memory 32 gb

molecule  {
0 1
  O       -2.5416370     0.0659770    -0.3927070
  N       -0.7122740    -1.2241950    -0.0249760
  C        1.8380290     0.7314390    -0.0343340
  C        1.7187040    -0.7521010    -0.3806110
  C        0.6360489     1.4174015    -0.2305848
  C        0.6466580    -1.4925250     0.4187290
  C       -0.6257670     1.1444980     0.6024810
  C       -1.3868420    -0.0349600     0.0307530
  H        2.6566510     1.1652070    -0.6217190
  H        2.1344690     0.8237010     1.0199600
  H        1.5025340    -0.8781880    -1.4483810
  H        2.6863370    -1.2343500    -0.1898600
  H        0.2863390     1.5300770    -1.3181450
  H        0.8108260     2.6104720    -0.0371320
  H        0.7923570    -2.5718330     0.3164690
  H        0.7525260    -1.2638240     1.4882170
  H       -1.3561390     1.9546950     0.6612310
  H       -0.2921570     0.9237120     1.6255030
  H       -1.2491170    -1.9758090    -0.4428220
units angstrom
no_reorient  #important for SAPT in psi4, default
symmetry c1  #important for SAPT in psi4, default
}

set PROPERTIES_ORIGIN ["COM"]
properties('MP2/aug-cc-pvtz', properties = ['dipole'])
--------------------------------------------------------------------------

    Molecular point group: c1
  Charge       = 0
  Multiplicity = 1
  Basis Set: AUG-CC-PVTZ
    Blend: AUG-CC-PVTZ
  Basis Set: (AUG-CC-PVTZ AUX)
    Blend: AUG-CC-PVTZ-JKFIT

    Orbital Energies [Eh]
    ---------------------

    Doubly Occupied:

       1A    -20.508938     2A    -15.578555     3A    -11.341979
       4A    -11.278410     5A    -11.246286     6A    -11.239887
       7A    -11.233990     8A    -11.229358     9A     -1.363517
      10A     -1.229426    11A     -1.114283    12A     -1.042207
      13A     -0.957602    14A     -0.884047    15A     -0.790870
      16A     -0.764178    17A     -0.688942    18A     -0.681583
      19A     -0.633406    20A     -0.615546    21A     -0.607024
      22A     -0.588116    23A     -0.572427    24A     -0.550374
      25A     -0.520170    26A     -0.511399    27A     -0.501543
      28A     -0.463947    29A     -0.444516    30A     -0.405526
      31A     -0.383016

  @DF-RHF Final Energy:  -363.04632464286283

   => Energetics <=

    Nuclear Repulsion Energy =            396.3032459599441495
    One-Electron Energy =               -1278.7570015972735291
    Two-Electron Energy =                 519.4074309944664947
    Total Energy =                       -363.0463246428628281
  Basis Set: (AUG-CC-PVTZ AUX)
    Blend: AUG-CC-PVTZ-RI
    Molecular point group: c1

    Geometry (in Angstrom), charge = 0, multiplicity = 1:

       Center              X                  Y                   Z               Mass
    ------------   -----------------  -----------------  -----------------  -----------------
         O           -2.471667591541     0.091001087038    -0.386585058351    15.994914619570
         N           -0.642304591541    -1.199170912962    -0.018854058351    14.003074004430
         C            1.907998408459     0.756463087038    -0.028212058351    12.000000000000
         C            1.788673408459    -0.727076912962    -0.374489058351    12.000000000000
         C            0.706018308459     1.442425587038    -0.224462858351    12.000000000000
         C            0.716627408459    -1.467500912962     0.424850941649    12.000000000000
         C           -0.555797591541     1.169522087038     0.608602941649    12.000000000000
         C           -1.316872591541    -0.009935912962     0.036874941649    12.000000000000
         H            2.726620408459     1.190231087038    -0.615597058351     1.007825032230
         H            2.204438408459     0.848725087038     1.026081941649     1.007825032230
         H            1.572503408459    -0.853163912962    -1.442259058351     1.007825032230
         H            2.756306408459    -1.209325912962    -0.183738058351     1.007825032230
         H            0.356308408459     1.555101087038    -1.312023058351     1.007825032230
         H            0.880795408459     2.635496087038    -0.031010058351     1.007825032230
         H            0.862326408459    -2.546808912962     0.322590941649     1.007825032230
         H            0.822495408459    -1.238799912962     1.494338941649     1.007825032230
         H           -1.286169591541     1.979719087038     0.667352941649     1.007825032230
         H           -0.222187591541     0.948736087038     1.631624941649     1.007825032230
         H           -1.179147591541    -1.950784912962    -0.436700058351     1.007825032230

  Basis Set: AUG-CC-PVTZ
    Blend: AUG-CC-PVTZ
  Basis Set: (AUG-CC-PVTZ AUX)
    Blend: AUG-CC-PVTZ-JKFIT
	 Reference Energy          =    -363.0463246428628281 [Eh]
	 Singles Energy            =      -0.0000000000000000 [Eh]
	 Same-Spin Energy          =      -0.3796860166081784 [Eh]
	 Opposite-Spin Energy      =      -1.2504312977914429 [Eh]
	 Correlation Energy        =      -1.6301173143996213 [Eh]
	 Total Energy              =    -364.6764419572624547 [Eh]

	 ================> DF-SCS-MP2 Energies <==================
	-----------------------------------------------------------
	 SCS Same-Spin Scale       =       0.3333333333333333 [-]
	 SCS Opposite-Spin Scale   =       1.2000000000000000 [-]
	 SCS Same-Spin Energy      =      -0.1265620055360595 [Eh]
	 SCS Opposite-Spin Energy  =      -1.5005175573497314 [Eh]
	 SCS Correlation Energy    =      -1.6270795628857908 [Eh]
	 SCS Total Energy          =    -364.6734042057486249 [Eh]
	-----------------------------------------------------------

  Dipole Moment: [D]
     X:     4.1033      Y:    -1.1059      Z:     0.9349     Total:     4.3513

*** Psi4 exiting successfully. Buy a developer a beer!
