                               Psi4 1.3.2 release

  ==> Input File <==

--------------------------------------------------------------------------
#psi4
#
memory 32 gb

molecule  {
0 1
  O       -2.5416370     0.0659770    -0.3927070
  N       -0.7122740    -1.2241950    -0.0249760
  C        1.7596155     0.7173591     0.0365825
  C        1.7187040    -0.7521010    -0.3806110
  C        0.5749500     1.5632640    -0.2598230
  C        0.6466580    -1.4925250     0.4187290
  C       -0.6257670     1.1444980     0.6024810
  C       -1.3868420    -0.0349600     0.0307530
  H        2.6566510     1.1652070    -0.6217190
  H        2.1344690     0.8237010     1.0199600
  H        1.5025340    -0.8781880    -1.4483810
  H        2.6863370    -1.2343500    -0.1898600
  H        0.2863390     1.5300770    -1.3181450
  H        0.8108260     2.6104720    -0.0371320
  H        0.7923570    -2.5718330     0.3164690
  H        0.7525260    -1.2638240     1.4882170
  H       -1.3561390     1.9546950     0.6612310
  H       -0.2921570     0.9237120     1.6255030
  H       -1.2491170    -1.9758090    -0.4428220
units angstrom
no_reorient  #important for SAPT in psi4, default
symmetry c1  #important for SAPT in psi4, default
}

set PROPERTIES_ORIGIN ["COM"]
properties('MP2/aug-cc-pvtz', properties = ['dipole'])
--------------------------------------------------------------------------

    Molecular point group: c1
  Charge       = 0
  Multiplicity = 1
  Basis Set: AUG-CC-PVTZ
    Blend: AUG-CC-PVTZ
  Basis Set: (AUG-CC-PVTZ AUX)
    Blend: AUG-CC-PVTZ-JKFIT

    Orbital Energies [Eh]
    ---------------------

    Doubly Occupied:

       1A    -20.509113     2A    -15.578838     3A    -11.343157
       4A    -11.275681     5A    -11.236878     6A    -11.236099
       7A    -11.235677     8A    -11.234743     9A     -1.363569
      10A     -1.228757    11A     -1.100866    12A     -1.043193
      13A     -0.944181    14A     -0.889603    15A     -0.797830
      16A     -0.764027    17A     -0.689184    18A     -0.674436
      19A     -0.625017    20A     -0.615834    21A     -0.609242
      22A     -0.591818    23A     -0.565623    24A     -0.543339
      25A     -0.518893    26A     -0.515613    27A     -0.496693
      28A     -0.476626    29A     -0.447143    30A     -0.409771
      31A     -0.381803

  @DF-RHF Final Energy:  -363.06314120368160

   => Energetics <=

    Nuclear Repulsion Energy =            395.2636239236721849
    One-Electron Energy =               -1276.7670363124127562
    Two-Electron Energy =                 518.4402711850589185
    Total Energy =                       -363.0631412036816528
  Basis Set: (AUG-CC-PVTZ AUX)
    Blend: AUG-CC-PVTZ-RI
    Molecular point group: c1

    Geometry (in Angstrom), charge = 0, multiplicity = 1:

       Center              X                  Y                   Z               Mass
    ------------   -----------------  -----------------  -----------------  -----------------
         O           -2.456863128904     0.077016877907    -0.391007782318    15.994914619570
         N           -0.627500128904    -1.213155122093    -0.023276782318    14.003074004430
         C            1.844389371096     0.728398977907     0.038281717682    12.000000000000
         C            1.803477871096    -0.741061122093    -0.378911782318    12.000000000000
         C            0.659723871096     1.574303877907    -0.258123782318    12.000000000000
         C            0.731431871096    -1.481485122093     0.420428217682    12.000000000000
         C           -0.540993128904     1.155537877907     0.604180217682    12.000000000000
         C           -1.302068128904    -0.023920122093     0.032452217682    12.000000000000
         H            2.741424871096     1.176246877907    -0.620019782318     1.007825032230
         H            2.219242871096     0.834740877907     1.021659217682     1.007825032230
         H            1.587307871096    -0.867148122093    -1.446681782318     1.007825032230
         H            2.771110871096    -1.223310122093    -0.188160782318     1.007825032230
         H            0.371112871096     1.541116877907    -1.316445782318     1.007825032230
         H            0.895599871096     2.621511877907    -0.035432782318     1.007825032230
         H            0.877130871096    -2.560793122093     0.318168217682     1.007825032230
         H            0.837299871096    -1.252784122093     1.489916217682     1.007825032230
         H           -1.271365128904     1.965734877907     0.662930217682     1.007825032230
         H           -0.207383128904     0.934751877907     1.627202217682     1.007825032230
         H           -1.164343128904    -1.964769122093    -0.441122782318     1.007825032230

  Basis Set: AUG-CC-PVTZ
    Blend: AUG-CC-PVTZ
  Basis Set: (AUG-CC-PVTZ AUX)
    Blend: AUG-CC-PVTZ-JKFIT
	 Reference Energy          =    -363.0631412036815959 [Eh]
	 Singles Energy            =      -0.0000000000000000 [Eh]
	 Same-Spin Energy          =      -0.3783947043359779 [Eh]
	 Opposite-Spin Energy      =      -1.2488361538692203 [Eh]
	 Correlation Energy        =      -1.6272308582051982 [Eh]
	 Total Energy              =    -364.6903720618868192 [Eh]

	 ================> DF-SCS-MP2 Energies <==================
	-----------------------------------------------------------
	 SCS Same-Spin Scale       =       0.3333333333333333 [-]
	 SCS Opposite-Spin Scale   =       1.2000000000000000 [-]
	 SCS Same-Spin Energy      =      -0.1261315681119926 [Eh]
	 SCS Opposite-Spin Energy  =      -1.4986033846430644 [Eh]
	 SCS Correlation Energy    =      -1.6247349527550570 [Eh]
	 SCS Total Energy          =    -364.6878761564366300 [Eh]
	-----------------------------------------------------------

  Dipole Moment: [D]
     X:     4.0322      Y:    -1.0495      Z:     0.9260     Total:     4.2682

*** Psi4 exiting successfully. Buy a developer a beer!
