                               Psi4 1.3.2 release

  ==> Input File <==

--------------------------------------------------------------------------
#psi4
#
memory 32 gb

molecule  {
0 1
  O       -2.5416370     0.0659770    -0.3927070
  N       -0.7122740    -1.2241950    -0.0249760
  C        1.8380290     0.7314390    -0.0343340
  C        1.7187040    -0.7521010    -0.3806110
  C        0.5804577     1.5827689    -0.2422645
  C        0.6466580    -1.4925250     0.4187290
  C       -0.6257670     1.1444980     0.6024810
  C       -1.3868420    -0.0349600     0.0307530
  H        2.6566510     1.1652070    -0.6217190
  H        2.1344690     0.8237010     1.0199600
  H        1.5025340    -0.8781880    -1.4483810
  H        2.6863370    -1.2343500    -0.1898600
  H        0.2863390     1.5300770    -1.3181450
  H        0.8108260     2.6104720    -0.0371320
  H        0.7923570    -2.5718330     0.3164690
  H        0.7525260    -1.2638240     1.4882170
  H       -1.3561390     1.9546950     0.6612310
  H       -0.2921570     0.9237120     1.6255030
  H       -1.2491170    -1.9758090    -0.4428220
units angstrom
no_reorient  #important for SAPT in psi4, default
symmetry c1  #important for SAPT in psi4, default
}

set PROPERTIES_ORIGIN ["COM"]
properties('MP2/aug-cc-pvtz', properties = ['dipole'])
--------------------------------------------------------------------------

    Molecular point group: c1
  Charge       = 0
  Multiplicity = 1
  Basis Set: AUG-CC-PVTZ
    Blend: AUG-CC-PVTZ
  Basis Set: (AUG-CC-PVTZ AUX)
    Blend: AUG-CC-PVTZ-JKFIT

    Orbital Energies [Eh]
    ---------------------

    Doubly Occupied:

       1A    -20.509372     2A    -15.578834     3A    -11.343571
       4A    -11.277417     5A    -11.236573     6A    -11.235877
       7A    -11.234826     8A    -11.233097     9A     -1.363670
      10A     -1.228338    11A     -1.093440    12A     -1.042269
      13A     -0.945266    14A     -0.889563    15A     -0.795247
      16A     -0.763651    17A     -0.688233    18A     -0.676695
      19A     -0.627406    20A     -0.611216    21A     -0.602500
      22A     -0.592179    23A     -0.570486    24A     -0.545947
      25A     -0.519750    26A     -0.513785    27A     -0.478158
      28A     -0.472902    29A     -0.469042    30A     -0.411344
      31A     -0.382858

  @DF-RHF Final Energy:  -363.07471262149824

   => Energetics <=

    Nuclear Repulsion Energy =            393.8719770203051667
    One-Electron Energy =               -1274.0263548013483614
    Two-Electron Energy =                 517.0796651595449021
    Total Energy =                       -363.0747126214982927
  Basis Set: (AUG-CC-PVTZ AUX)
    Blend: AUG-CC-PVTZ-RI
    Molecular point group: c1

    Geometry (in Angstrom), charge = 0, multiplicity = 1:

       Center              X                  Y                   Z               Mass
    ------------   -----------------  -----------------  -----------------  -----------------
         O           -2.465768489788     0.073453001744    -0.385345658253    15.994914619570
         N           -0.636405489788    -1.216718998256    -0.017614658253    14.003074004430
         C            1.913897510212     0.738915001744    -0.026972658253    12.000000000000
         C            1.794572510212    -0.744624998256    -0.373249658253    12.000000000000
         C            0.656326210212     1.590244901744    -0.234903158253    12.000000000000
         C            0.722526510212    -1.485048998256     0.426090341747    12.000000000000
         C           -0.549898489788     1.151974001744     0.609842341747    12.000000000000
         C           -1.310973489788    -0.027483998256     0.038114341747    12.000000000000
         H            2.732519510212     1.172683001744    -0.614357658253     1.007825032230
         H            2.210337510212     0.831177001744     1.027321341747     1.007825032230
         H            1.578402510212    -0.870711998256    -1.441019658253     1.007825032230
         H            2.762205510212    -1.226873998256    -0.182498658253     1.007825032230
         H            0.362207510212     1.537553001744    -1.310783658253     1.007825032230
         H            0.886694510212     2.617948001744    -0.029770658253     1.007825032230
         H            0.868225510212    -2.564356998256     0.323830341747     1.007825032230
         H            0.828394510212    -1.256347998256     1.495578341747     1.007825032230
         H           -1.280270489788     1.962171001744     0.668592341747     1.007825032230
         H           -0.216288489788     0.931188001744     1.632864341747     1.007825032230
         H           -1.173248489788    -1.968332998256    -0.435460658253     1.007825032230

  Basis Set: AUG-CC-PVTZ
    Blend: AUG-CC-PVTZ
  Basis Set: (AUG-CC-PVTZ AUX)
    Blend: AUG-CC-PVTZ-JKFIT
	 Reference Energy          =    -363.0747126214982359 [Eh]
	 Singles Energy            =      -0.0000000000000000 [Eh]
	 Same-Spin Energy          =      -0.3777002449272300 [Eh]
	 Opposite-Spin Energy      =      -1.2476758997694304 [Eh]
	 Correlation Energy        =      -1.6253761446966604 [Eh]
	 Total Energy              =    -364.7000887661948809 [Eh]

	 ================> DF-SCS-MP2 Energies <==================
	-----------------------------------------------------------
	 SCS Same-Spin Scale       =       0.3333333333333333 [-]
	 SCS Opposite-Spin Scale   =       1.2000000000000000 [-]
	 SCS Same-Spin Energy      =      -0.1259000816424100 [Eh]
	 SCS Opposite-Spin Energy  =      -1.4972110797233165 [Eh]
	 SCS Correlation Energy    =      -1.6231111613657265 [Eh]
	 SCS Total Energy          =    -364.6978237828639635 [Eh]
	-----------------------------------------------------------

  Dipole Moment: [D]
     X:     4.0722      Y:    -1.0358      Z:     0.9003     Total:     4.2972

*** Psi4 exiting successfully. Buy a developer a beer!
