                               Psi4 1.3.2 release

  ==> Input File <==

--------------------------------------------------------------------------
#psi4
#
memory 32 gb

molecule  {
0 1
  O       -2.5416370     0.0659770    -0.3927070
  N       -0.7122740    -1.2241950    -0.0249760
  C        1.8380290     0.7314390    -0.0343340
  C        1.7187040    -0.7521010    -0.3806110
  C        0.5749500     1.5632640    -0.2598230
  C        0.6466580    -1.4925250     0.4187290
  C       -0.6257670     1.1444980     0.6024810
  C       -1.3868420    -0.0349600     0.0307530
  H        2.6566510     1.1652070    -0.6217190
  H        2.1344690     0.8237010     1.0199600
  H        1.5222449    -0.8666911    -1.3510193
  H        2.6863370    -1.2343500    -0.1898600
  H        0.2863390     1.5300770    -1.3181450
  H        0.8108260     2.6104720    -0.0371320
  H        0.7923570    -2.5718330     0.3164690
  H        0.7525260    -1.2638240     1.4882170
  H       -1.3561390     1.9546950     0.6612310
  H       -0.2921570     0.9237120     1.6255030
  H       -1.2491170    -1.9758090    -0.4428220
units angstrom
no_reorient  #important for SAPT in psi4, default
symmetry c1  #important for SAPT in psi4, default
}

set PROPERTIES_ORIGIN ["COM"]
properties('MP2/aug-cc-pvtz', properties = ['dipole'])
--------------------------------------------------------------------------

    Molecular point group: c1
  Charge       = 0
  Multiplicity = 1
  Basis Set: AUG-CC-PVTZ
    Blend: AUG-CC-PVTZ
  Basis Set: (AUG-CC-PVTZ AUX)
    Blend: AUG-CC-PVTZ-JKFIT

    Orbital Energies [Eh]
    ---------------------

    Doubly Occupied:

       1A    -20.509051     2A    -15.578745     3A    -11.343008
       4A    -11.276352     5A    -11.236527     6A    -11.235825
       7A    -11.232142     8A    -11.221718     9A     -1.363461
      10A     -1.228425    11A     -1.095349    12A     -1.044914
      13A     -0.945101    14A     -0.891871    15A     -0.802887
      16A     -0.764169    17A     -0.689530    18A     -0.676608
      19A     -0.627449    20A     -0.614478    21A     -0.603042
      22A     -0.591894    23A     -0.569659    24A     -0.545126
      25A     -0.523696    26A     -0.518705    27A     -0.484578
      28A     -0.470215    29A     -0.468648    30A     -0.410547
      31A     -0.382484

  @DF-RHF Final Energy:  -363.06962800462293

   => Energetics <=

    Nuclear Repulsion Energy =            394.5753679544744159
    One-Electron Energy =               -1275.3975848897578089
    Two-Electron Energy =                 517.7525889306605222
    Total Energy =                       -363.0696280046229276
  Basis Set: (AUG-CC-PVTZ AUX)
    Blend: AUG-CC-PVTZ-RI
    Molecular point group: c1

    Geometry (in Angstrom), charge = 0, multiplicity = 1:

       Center              X                  Y                   Z               Mass
    ------------   -----------------  -----------------  -----------------  -----------------
         O           -2.465359703086     0.075420316400    -0.384350129462    15.994914619570
         N           -0.635996703086    -1.214751683600    -0.016619129462    14.003074004430
         C            1.914306296914     0.740882316400    -0.025977129462    12.000000000000
         C            1.794981296914    -0.742657683600    -0.372254129462    12.000000000000
         C            0.651227296914     1.572707316400    -0.251466129462    12.000000000000
         C            0.722935296914    -1.483081683600     0.427085870538    12.000000000000
         C           -0.549489703086     1.153941316400     0.610837870538    12.000000000000
         C           -1.310564703086    -0.025516683600     0.039109870538    12.000000000000
         H            2.732928296914     1.174650316400    -0.613362129462     1.007825032230
         H            2.210746296914     0.833144316400     1.028316870538     1.007825032230
         H            1.598522196914    -0.857247783600    -1.342662429462     1.007825032230
         H            2.762614296914    -1.224906683600    -0.181503129462     1.007825032230
         H            0.362616296914     1.539520316400    -1.309788129462     1.007825032230
         H            0.887103296914     2.619915316400    -0.028775129462     1.007825032230
         H            0.868634296914    -2.562389683600     0.324825870538     1.007825032230
         H            0.828803296914    -1.254380683600     1.496573870538     1.007825032230
         H           -1.279861703086     1.964138316400     0.669587870538     1.007825032230
         H           -0.215879703086     0.933155316400     1.633859870538     1.007825032230
         H           -1.172839703086    -1.966365683600    -0.434465129462     1.007825032230

  Basis Set: AUG-CC-PVTZ
    Blend: AUG-CC-PVTZ
  Basis Set: (AUG-CC-PVTZ AUX)
    Blend: AUG-CC-PVTZ-JKFIT
	 Reference Energy          =    -363.0696280046229276 [Eh]
	 Singles Energy            =      -0.0000000000000000 [Eh]
	 Same-Spin Energy          =      -0.3777012361924914 [Eh]
	 Opposite-Spin Energy      =      -1.2471515284283861 [Eh]
	 Correlation Energy        =      -1.6248527646208775 [Eh]
	 Total Energy              =    -364.6944807692437962 [Eh]

	 ================> DF-SCS-MP2 Energies <==================
	-----------------------------------------------------------
	 SCS Same-Spin Scale       =       0.3333333333333333 [-]
	 SCS Opposite-Spin Scale   =       1.2000000000000000 [-]
	 SCS Same-Spin Energy      =      -0.1259004120641638 [Eh]
	 SCS Opposite-Spin Energy  =      -1.4965818341140633 [Eh]
	 SCS Correlation Energy    =      -1.6224822461782271 [Eh]
	 SCS Total Energy          =    -364.6921102508011359 [Eh]
	-----------------------------------------------------------

  Dipole Moment: [D]
     X:     4.0715      Y:    -1.0518      Z:     0.8468     Total:     4.2896

*** Psi4 exiting successfully. Buy a developer a beer!
