                               Psi4 1.3.2 release

  ==> Input File <==

--------------------------------------------------------------------------
#psi4
#
memory 32 gb

molecule  {
0 1
  O       -2.5354517    -0.0601473    -0.4199347
  N       -0.7122740    -1.2241950    -0.0249760
  C        1.8380290     0.7314390    -0.0343340
  C        1.7187040    -0.7521010    -0.3806110
  C        0.5749500     1.5632640    -0.2598230
  C        0.6466580    -1.4925250     0.4187290
  C       -0.6257670     1.1444980     0.6024810
  C       -1.3868420    -0.0349600     0.0307530
  H        2.6566510     1.1652070    -0.6217190
  H        2.1344690     0.8237010     1.0199600
  H        1.5025340    -0.8781880    -1.4483810
  H        2.6863370    -1.2343500    -0.1898600
  H        0.2863390     1.5300770    -1.3181450
  H        0.8108260     2.6104720    -0.0371320
  H        0.7923570    -2.5718330     0.3164690
  H        0.7525260    -1.2638240     1.4882170
  H       -1.3561390     1.9546950     0.6612310
  H       -0.2921570     0.9237120     1.6255030
  H       -1.2491170    -1.9758090    -0.4428220
units angstrom
no_reorient  #important for SAPT in psi4, default
symmetry c1  #important for SAPT in psi4, default
}

set PROPERTIES_ORIGIN ["COM"]
properties('MP2/aug-cc-pvtz', properties = ['dipole'])
--------------------------------------------------------------------------

    Molecular point group: c1
  Charge       = 0
  Multiplicity = 1
  Basis Set: AUG-CC-PVTZ
    Blend: AUG-CC-PVTZ
  Basis Set: (AUG-CC-PVTZ AUX)
    Blend: AUG-CC-PVTZ-JKFIT

    Orbital Energies [Eh]
    ---------------------

    Doubly Occupied:

       1A    -20.507224     2A    -15.571753     3A    -11.343112
       4A    -11.273465     5A    -11.242712     6A    -11.239400
       7A    -11.234039     8A    -11.233000     9A     -1.365583
      10A     -1.220761    11A     -1.095126    12A     -1.043334
      13A     -0.945756    14A     -0.888199    15A     -0.795560
      16A     -0.762858    17A     -0.686657    18A     -0.676517
      19A     -0.625311    20A     -0.611673    21A     -0.602707
      22A     -0.591530    23A     -0.571425    24A     -0.544610
      25A     -0.520058    26A     -0.515481    27A     -0.481790
      28A     -0.472250    29A     -0.470344    30A     -0.412170
      31A     -0.376933

  @DF-RHF Final Energy:  -363.07219913876571

   => Energetics <=

    Nuclear Repulsion Energy =            394.2210934034168872
    One-Electron Energy =               -1274.7439062418159210
    Two-Electron Energy =                 517.4506136996332089
    Total Energy =                       -363.0721991387657681
  Basis Set: (AUG-CC-PVTZ AUX)
    Blend: AUG-CC-PVTZ-RI
    Molecular point group: c1

    Geometry (in Angstrom), charge = 0, multiplicity = 1:

       Center              X                  Y                   Z               Mass
    ------------   -----------------  -----------------  -----------------  -----------------
         O           -2.459873601578    -0.032762160480    -0.406858965667    15.994914619570
         N           -0.636695901578    -1.196809860480    -0.011900265667    14.003074004430
         C            1.913607098422     0.758824139520    -0.021258265667    12.000000000000
         C            1.794282098422    -0.724715860480    -0.367535265667    12.000000000000
         C            0.650528098422     1.590649139520    -0.246747265667    12.000000000000
         C            0.722236098422    -1.465139860480     0.431804734333    12.000000000000
         C           -0.550188901578     1.171883139520     0.615556734333    12.000000000000
         C           -1.311263901578    -0.007574860480     0.043828734333    12.000000000000
         H            2.732229098422     1.192592139520    -0.608643265667     1.007825032230
         H            2.210047098422     0.851086139520     1.033035734333     1.007825032230
         H            1.578112098422    -0.850802860480    -1.435305265667     1.007825032230
         H            2.761915098422    -1.206964860480    -0.176784265667     1.007825032230
         H            0.361917098422     1.557462139520    -1.305069265667     1.007825032230
         H            0.886404098422     2.637857139520    -0.024056265667     1.007825032230
         H            0.867935098422    -2.544447860480     0.329544734333     1.007825032230
         H            0.828104098422    -1.236438860480     1.501292734333     1.007825032230
         H           -1.280560901578     1.982080139520     0.674306734333     1.007825032230
         H           -0.216578901578     0.951097139520     1.638578734333     1.007825032230
         H           -1.173538901578    -1.948423860480    -0.429746265667     1.007825032230

  Basis Set: AUG-CC-PVTZ
    Blend: AUG-CC-PVTZ
  Basis Set: (AUG-CC-PVTZ AUX)
    Blend: AUG-CC-PVTZ-JKFIT
	 Reference Energy          =    -363.0721991387657113 [Eh]
	 Singles Energy            =      -0.0000000000000000 [Eh]
	 Same-Spin Energy          =      -0.3778675489862179 [Eh]
	 Opposite-Spin Energy      =      -1.2478345103044306 [Eh]
	 Correlation Energy        =      -1.6257020592906484 [Eh]
	 Total Energy              =    -364.6979011980563428 [Eh]

	 ================> DF-SCS-MP2 Energies <==================
	-----------------------------------------------------------
	 SCS Same-Spin Scale       =       0.3333333333333333 [-]
	 SCS Opposite-Spin Scale   =       1.2000000000000000 [-]
	 SCS Same-Spin Energy      =      -0.1259558496620726 [Eh]
	 SCS Opposite-Spin Energy  =      -1.4974014123653168 [Eh]
	 SCS Correlation Energy    =      -1.6233572620273895 [Eh]
	 SCS Total Energy          =    -364.6955564007931230 [Eh]
	-----------------------------------------------------------

  Dipole Moment: [D]
     X:     4.0663      Y:    -0.6782      Z:     0.9673     Total:     4.2345

*** Psi4 exiting successfully. Buy a developer a beer!
