                               Psi4 1.3.2 release

  ==> Input File <==

--------------------------------------------------------------------------
#psi4
#
memory 32 gb

molecule  {
0 1
  O       -2.5416370     0.0659770    -0.3927070
  N       -0.7122740    -1.2241950    -0.0249760
  C        1.8380290     0.7314390    -0.0343340
  C        1.7187040    -0.7521010    -0.3806110
  C        0.5749500     1.5632640    -0.2598230
  C        0.6536855    -1.3460547     0.4596644
  C       -0.6257670     1.1444980     0.6024810
  C       -1.3868420    -0.0349600     0.0307530
  H        2.6566510     1.1652070    -0.6217190
  H        2.1344690     0.8237010     1.0199600
  H        1.5025340    -0.8781880    -1.4483810
  H        2.6863370    -1.2343500    -0.1898600
  H        0.2863390     1.5300770    -1.3181450
  H        0.8108260     2.6104720    -0.0371320
  H        0.7923570    -2.5718330     0.3164690
  H        0.7525260    -1.2638240     1.4882170
  H       -1.3561390     1.9546950     0.6612310
  H       -0.2921570     0.9237120     1.6255030
  H       -1.2491170    -1.9758090    -0.4428220
units angstrom
no_reorient  #important for SAPT in psi4, default
symmetry c1  #important for SAPT in psi4, default
}

set PROPERTIES_ORIGIN ["COM"]
properties('MP2/aug-cc-pvtz', properties = ['dipole'])
--------------------------------------------------------------------------

    Molecular point group: c1
  Charge       = 0
  Multiplicity = 1
  Basis Set: AUG-CC-PVTZ
    Blend: AUG-CC-PVTZ
  Basis Set: (AUG-CC-PVTZ AUX)
    Blend: AUG-CC-PVTZ-JKFIT

    Orbital Energies [Eh]
    ---------------------

    Doubly Occupied:

       1A    -20.508751     2A    -15.580859     3A    -11.340473
       4A    -11.282610     5A    -11.237630     6A    -11.236925
       7A    -11.234423     8A    -11.231656     9A     -1.363645
      10A     -1.231200    11A     -1.098815    12A     -1.046003
      13A     -0.946147    14A     -0.883242    15A     -0.801986
      16A     -0.766122    17A     -0.696436    18A     -0.672398
      19A     -0.636317    20A     -0.616890    21A     -0.602530
      22A     -0.577217    23A     -0.567766    24A     -0.552272
      25A     -0.523613    26A     -0.511216    27A     -0.482755
      28A     -0.474553    29A     -0.447827    30A     -0.408111
      31A     -0.388783

  @DF-RHF Final Energy:  -363.05062031166710

   => Energetics <=

    Nuclear Repulsion Energy =            395.7387292397869487
    One-Electron Energy =               -1277.6803563767093692
    Two-Electron Energy =                 518.8910068252553174
    Total Energy =                       -363.0506203116671031
  Basis Set: (AUG-CC-PVTZ AUX)
    Blend: AUG-CC-PVTZ-RI
    Molecular point group: c1

    Geometry (in Angstrom), charge = 0, multiplicity = 1:

       Center              X                  Y                   Z               Mass
    ------------   -----------------  -----------------  -----------------  -----------------
         O           -2.465929764502     0.059979973394    -0.387826315475    15.994914619570
         N           -0.636566764502    -1.230192026606    -0.020095315475    14.003074004430
         C            1.913736235498     0.725441973394    -0.029453315475    12.000000000000
         C            1.794411235498    -0.758098026606    -0.375730315475    12.000000000000
         C            0.650657235498     1.557266973394    -0.254942315475    12.000000000000
         C            0.729392735498    -1.352051726606     0.464545084525    12.000000000000
         C           -0.550059764502     1.138500973394     0.607361684525    12.000000000000
         C           -1.311134764502    -0.040957026606     0.035633684525    12.000000000000
         H            2.732358235498     1.159209973394    -0.616838315475     1.007825032230
         H            2.210176235498     0.817703973394     1.024840684525     1.007825032230
         H            1.578241235498    -0.884185026606    -1.443500315475     1.007825032230
         H            2.762044235498    -1.240347026606    -0.184979315475     1.007825032230
         H            0.362046235498     1.524079973394    -1.313264315475     1.007825032230
         H            0.886533235498     2.604474973394    -0.032251315475     1.007825032230
         H            0.868064235498    -2.577830026606     0.321349684525     1.007825032230
         H            0.828233235498    -1.269821026606     1.493097684525     1.007825032230
         H           -1.280431764502     1.948697973394     0.666111684525     1.007825032230
         H           -0.216449764502     0.917714973394     1.630383684525     1.007825032230
         H           -1.173409764502    -1.981806026606    -0.437941315475     1.007825032230

  Basis Set: AUG-CC-PVTZ
    Blend: AUG-CC-PVTZ
  Basis Set: (AUG-CC-PVTZ AUX)
    Blend: AUG-CC-PVTZ-JKFIT
	 Reference Energy          =    -363.0506203116671031 [Eh]
	 Singles Energy            =      -0.0000000000000000 [Eh]
	 Same-Spin Energy          =      -0.3789558138058339 [Eh]
	 Opposite-Spin Energy      =      -1.2499570210192921 [Eh]
	 Correlation Energy        =      -1.6289128348251261 [Eh]
	 Total Energy              =    -364.6795331464922469 [Eh]

	 ================> DF-SCS-MP2 Energies <==================
	-----------------------------------------------------------
	 SCS Same-Spin Scale       =       0.3333333333333333 [-]
	 SCS Opposite-Spin Scale   =       1.2000000000000000 [-]
	 SCS Same-Spin Energy      =      -0.1263186046019446 [Eh]
	 SCS Opposite-Spin Energy  =      -1.4999484252231505 [Eh]
	 SCS Correlation Energy    =      -1.6262670298250952 [Eh]
	 SCS Total Energy          =    -364.6768873414922041 [Eh]
	-----------------------------------------------------------

  Dipole Moment: [D]
     X:     4.0747      Y:    -0.8902      Z:     0.9076     Total:     4.2684

*** Psi4 exiting successfully. Buy a developer a beer!
