                               Psi4 1.3.2 release

  ==> Input File <==

--------------------------------------------------------------------------
#psi4
#
memory 32 gb

molecule  {
0 1
  O       -2.5416370     0.0659770    -0.3927070
  N       -0.6513046    -1.1325886    -0.1301884
  C        1.8380290     0.7314390    -0.0343340
  C        1.7187040    -0.7521010    -0.3806110
  C        0.5749500     1.5632640    -0.2598230
  C        0.6466580    -1.4925250     0.4187290
  C       -0.6257670     1.1444980     0.6024810
  C       -1.3868420    -0.0349600     0.0307530
  H        2.6566510     1.1652070    -0.6217190
  H        2.1344690     0.8237010     1.0199600
  H        1.5025340    -0.8781880    -1.4483810
  H        2.6863370    -1.2343500    -0.1898600
  H        0.2863390     1.5300770    -1.3181450
  H        0.8108260     2.6104720    -0.0371320
  H        0.7923570    -2.5718330     0.3164690
  H        0.7525260    -1.2638240     1.4882170
  H       -1.3561390     1.9546950     0.6612310
  H       -0.2921570     0.9237120     1.6255030
  H       -1.2491170    -1.9758090    -0.4428220
units angstrom
no_reorient  #important for SAPT in psi4, default
symmetry c1  #important for SAPT in psi4, default
}

set PROPERTIES_ORIGIN ["COM"]
properties('MP2/aug-cc-pvtz', properties = ['dipole'])
--------------------------------------------------------------------------

    Molecular point group: c1
  Charge       = 0
  Multiplicity = 1
  Basis Set: AUG-CC-PVTZ
    Blend: AUG-CC-PVTZ
  Basis Set: (AUG-CC-PVTZ AUX)
    Blend: AUG-CC-PVTZ-JKFIT

    Orbital Energies [Eh]
    ---------------------

    Doubly Occupied:

       1A    -20.505859     2A    -15.586009     3A    -11.338583
       4A    -11.280324     5A    -11.234849     6A    -11.232730
       7A    -11.232607     8A    -11.231991     9A     -1.364271
      10A     -1.234884    11A     -1.091379    12A     -1.045097
      13A     -0.944526    14A     -0.889421    15A     -0.793456
      16A     -0.756240    17A     -0.696548    18A     -0.675106
      19A     -0.621160    20A     -0.608750    21A     -0.602604
      22A     -0.595744    23A     -0.570750    24A     -0.535867
      25A     -0.517855    26A     -0.514740    27A     -0.480172
      28A     -0.469809    29A     -0.467125    30A     -0.409959
      31A     -0.385498

  @DF-RHF Final Energy:  -363.06545423235394

   => Energetics <=

    Nuclear Repulsion Energy =            395.6277828488184696
    One-Electron Energy =               -1277.5586492084923975
    Two-Electron Energy =                 518.8654121273199280
    Total Energy =                       -363.0654542323539999
  Basis Set: (AUG-CC-PVTZ AUX)
    Blend: AUG-CC-PVTZ-RI
    Molecular point group: c1

    Geometry (in Angstrom), charge = 0, multiplicity = 1:

       Center              X                  Y                   Z               Mass
    ------------   -----------------  -----------------  -----------------  -----------------
         O           -2.472733809149     0.064179260055    -0.370454090298    15.994914619570
         N           -0.582401409149    -1.134386339945    -0.107935490298    14.003074004430
         C            1.906932190851     0.729641260055    -0.012081090298    12.000000000000
         C            1.787607190851    -0.753898739945    -0.358358090298    12.000000000000
         C            0.643853190851     1.561466260055    -0.237570090298    12.000000000000
         C            0.715561190851    -1.494322739945     0.440981909702    12.000000000000
         C           -0.556863809149     1.142700260055     0.624733909702    12.000000000000
         C           -1.317938809149    -0.036757739945     0.053005909702    12.000000000000
         H            2.725554190851     1.163409260055    -0.599466090298     1.007825032230
         H            2.203372190851     0.821903260055     1.042212909702     1.007825032230
         H            1.571437190851    -0.879985739945    -1.426128090298     1.007825032230
         H            2.755240190851    -1.236147739945    -0.167607090298     1.007825032230
         H            0.355242190851     1.528279260055    -1.295892090298     1.007825032230
         H            0.879729190851     2.608674260055    -0.014879090298     1.007825032230
         H            0.861260190851    -2.573630739945     0.338721909702     1.007825032230
         H            0.821429190851    -1.265621739945     1.510469909702     1.007825032230
         H           -1.287235809149     1.952897260055     0.683483909702     1.007825032230
         H           -0.223253809149     0.921914260055     1.647755909702     1.007825032230
         H           -1.180213809149    -1.977606739945    -0.420569090298     1.007825032230

  Basis Set: AUG-CC-PVTZ
    Blend: AUG-CC-PVTZ
  Basis Set: (AUG-CC-PVTZ AUX)
    Blend: AUG-CC-PVTZ-JKFIT
	 Reference Energy          =    -363.0654542323539431 [Eh]
	 Singles Energy            =      -0.0000000000000000 [Eh]
	 Same-Spin Energy          =      -0.3785960657552611 [Eh]
	 Opposite-Spin Energy      =      -1.2492174723180320 [Eh]
	 Correlation Energy        =      -1.6278135380732932 [Eh]
	 Total Energy              =    -364.6932677704272123 [Eh]

	 ================> DF-SCS-MP2 Energies <==================
	-----------------------------------------------------------
	 SCS Same-Spin Scale       =       0.3333333333333333 [-]
	 SCS Opposite-Spin Scale   =       1.2000000000000000 [-]
	 SCS Same-Spin Energy      =      -0.1261986885850870 [Eh]
	 SCS Opposite-Spin Energy  =      -1.4990609667816384 [Eh]
	 SCS Correlation Energy    =      -1.6252596553667253 [Eh]
	 SCS Total Energy          =    -364.6907138877206762 [Eh]
	-----------------------------------------------------------

  Dipole Moment: [D]
     X:     4.0593      Y:    -1.2828      Z:     1.1205     Total:     4.4021

*** Psi4 exiting successfully. Buy a developer a beer!
