                               Psi4 1.3.2 release

  ==> Input File <==

--------------------------------------------------------------------------
#psi4
#
memory 32 gb

molecule  {
0 1
  O       -2.5416370     0.0659770    -0.3927070
  N       -0.7122740    -1.2241950    -0.0249760
  C        1.9106557     0.8681432     0.0063422
  C        1.7187040    -0.7521010    -0.3806110
  C        0.5749500     1.5632640    -0.2598230
  C        0.6466580    -1.4925250     0.4187290
  C       -0.6257670     1.1444980     0.6024810
  C       -1.3868420    -0.0349600     0.0307530
  H        2.6566510     1.1652070    -0.6217190
  H        2.1344690     0.8237010     1.0199600
  H        1.5025340    -0.8781880    -1.4483810
  H        2.6863370    -1.2343500    -0.1898600
  H        0.2863390     1.5300770    -1.3181450
  H        0.8108260     2.6104720    -0.0371320
  H        0.7923570    -2.5718330     0.3164690
  H        0.7525260    -1.2638240     1.4882170
  H       -1.3561390     1.9546950     0.6612310
  H       -0.2921570     0.9237120     1.6255030
  H       -1.2491170    -1.9758090    -0.4428220
units angstrom
no_reorient  #important for SAPT in psi4, default
symmetry c1  #important for SAPT in psi4, default
}

set PROPERTIES_ORIGIN ["COM"]
properties('MP2/aug-cc-pvtz', properties = ['dipole'])
--------------------------------------------------------------------------

    Molecular point group: c1
  Charge       = 0
  Multiplicity = 1
  Basis Set: AUG-CC-PVTZ
    Blend: AUG-CC-PVTZ
  Basis Set: (AUG-CC-PVTZ AUX)
    Blend: AUG-CC-PVTZ-JKFIT

    Orbital Energies [Eh]
    ---------------------

    Doubly Occupied:

       1A    -20.509100     2A    -15.577880     3A    -11.342975
       4A    -11.277173     5A    -11.238081     6A    -11.236468
       7A    -11.236453     8A    -11.230356     9A     -1.363389
      10A     -1.226813    11A     -1.086633    12A     -1.033871
      13A     -0.951236    14A     -0.880336    15A     -0.805330
      16A     -0.763188    17A     -0.686525    18A     -0.678458
      19A     -0.631470    20A     -0.607219    21A     -0.598448
      22A     -0.589750    23A     -0.575929    24A     -0.544606
      25A     -0.527468    26A     -0.515377    27A     -0.491107
      28A     -0.483481    29A     -0.428054    30A     -0.411141
      31A     -0.382419

  @DF-RHF Final Energy:  -363.05469349487907

   => Energetics <=

    Nuclear Repulsion Energy =            392.0174663890585407
    One-Electron Energy =               -1270.3228519300259904
    Two-Electron Energy =                 515.2506920460883748
    Total Energy =                       -363.0546934948790749
  Basis Set: (AUG-CC-PVTZ AUX)
    Blend: AUG-CC-PVTZ-RI
    Molecular point group: c1

    Geometry (in Angstrom), charge = 0, multiplicity = 1:

       Center              X                  Y                   Z               Mass
    ------------   -----------------  -----------------  -----------------  -----------------
         O           -2.472890872657     0.061016310397    -0.387798810273    15.994914619570
         N           -0.643527872657    -1.229155689603    -0.020067810273    14.003074004430
         C            1.979401827343     0.863182510397     0.011250389727    12.000000000000
         C            1.787450127343    -0.757061689603    -0.375702810273    12.000000000000
         C            0.643696127343     1.558303310397    -0.254914810273    12.000000000000
         C            0.715404127343    -1.497485689603     0.423637189727    12.000000000000
         C           -0.557020872657     1.139537310397     0.607389189727    12.000000000000
         C           -1.318095872657    -0.039920689603     0.035661189727    12.000000000000
         H            2.725397127343     1.160246310397    -0.616810810273     1.007825032230
         H            2.203215127343     0.818740310397     1.024868189727     1.007825032230
         H            1.571280127343    -0.883148689603    -1.443472810273     1.007825032230
         H            2.755083127343    -1.239310689603    -0.184951810273     1.007825032230
         H            0.355085127343     1.525116310397    -1.313236810273     1.007825032230
         H            0.879572127343     2.605511310397    -0.032223810273     1.007825032230
         H            0.861103127343    -2.576793689603     0.321377189727     1.007825032230
         H            0.821272127343    -1.268784689603     1.493125189727     1.007825032230
         H           -1.287392872657     1.949734310397     0.666139189727     1.007825032230
         H           -0.223410872657     0.918751310397     1.630411189727     1.007825032230
         H           -1.180370872657    -1.980769689603    -0.437913810273     1.007825032230

  Basis Set: AUG-CC-PVTZ
    Blend: AUG-CC-PVTZ
  Basis Set: (AUG-CC-PVTZ AUX)
    Blend: AUG-CC-PVTZ-JKFIT
	 Reference Energy          =    -363.0546934948790749 [Eh]
	 Singles Energy            =      -0.0000000000000000 [Eh]
	 Same-Spin Energy          =      -0.3775467461440914 [Eh]
	 Opposite-Spin Energy      =      -1.2483365199542455 [Eh]
	 Correlation Energy        =      -1.6258832660983369 [Eh]
	 Total Energy              =    -364.6805767609774307 [Eh]

	 ================> DF-SCS-MP2 Energies <==================
	-----------------------------------------------------------
	 SCS Same-Spin Scale       =       0.3333333333333333 [-]
	 SCS Opposite-Spin Scale   =       1.2000000000000000 [-]
	 SCS Same-Spin Energy      =      -0.1258489153813638 [Eh]
	 SCS Opposite-Spin Energy  =      -1.4980038239450946 [Eh]
	 SCS Correlation Energy    =      -1.6238527393264583 [Eh]
	 SCS Total Energy          =    -364.6785462342055553 [Eh]
	-----------------------------------------------------------

  Dipole Moment: [D]
     X:     4.0771      Y:    -0.9912      Z:     0.9308     Total:     4.2979

*** Psi4 exiting successfully. Buy a developer a beer!
