                               Psi4 1.4a3.dev225

  ==> Input File <==

--------------------------------------------------------------------------
#psi4
#
memory 32 gb

molecule  {
0 1
  O       -2.5416370     0.0659770    -0.3927070
  N       -0.7122740    -1.2241950    -0.0249760
  C        1.8380290     0.7314390    -0.0343340
  C        1.7187040    -0.7521010    -0.3806110
  C        0.5749500     1.5632640    -0.2598230
  C        0.6466580    -1.4925250     0.4187290
  C       -0.6257670     1.1444980     0.6024810
  C       -1.3681276    -0.0365958     0.0376155
  H        2.6566510     1.1652070    -0.6217190
  H        2.1344690     0.8237010     1.0199600
  H        1.5025340    -0.8781880    -1.4483810
  H        2.6863370    -1.2343500    -0.1898600
  H        0.2863390     1.5300770    -1.3181450
  H        0.8108260     2.6104720    -0.0371320
  H        0.7923570    -2.5718330     0.3164690
  H        0.7525260    -1.2638240     1.4882170
  H       -1.3561390     1.9546950     0.6612310
  H       -0.2921570     0.9237120     1.6255030
  H       -1.2491170    -1.9758090    -0.4428220
units angstrom
no_reorient  #important for SAPT in psi4, default
symmetry c1  #important for SAPT in psi4, default
}

set PROPERTIES_ORIGIN ["COM"]
properties('MP2/aug-cc-pvtz', properties = ['dipole'])
--------------------------------------------------------------------------

    Molecular point group: c1
  Charge       = 0
  Multiplicity = 1
  Basis Set: AUG-CC-PVTZ
    Blend: AUG-CC-PVTZ
  Basis Set: (AUG-CC-PVTZ AUX)
    Blend: AUG-CC-PVTZ-JKFIT

    Orbital Energies [Eh]
    ---------------------

    Doubly Occupied:

       1A    -20.505077     2A    -15.581725     3A    -11.343453
       4A    -11.278492     5A    -11.237425     6A    -11.236707
       7A    -11.235497     8A    -11.233915     9A     -1.352133
      10A     -1.229532    11A     -1.095547    12A     -1.044120
      13A     -0.947589    14A     -0.890619    15A     -0.796785
      16A     -0.767494    17A     -0.688886    18A     -0.676331
      19A     -0.627313    20A     -0.612495    21A     -0.602832
      22A     -0.588623    23A     -0.570621    24A     -0.542969
      25A     -0.518348    26A     -0.515327    27A     -0.482119
      28A     -0.471290    29A     -0.468641    30A     -0.409197
      31A     -0.381874

  @DF-RHF Final Energy:  -363.07341684352480

   => Energetics <=

    Nuclear Repulsion Energy =            394.1634458431651069
    One-Electron Energy =               -1274.6077771334910267
    Two-Electron Energy =                 517.3709144468010663
    Total Energy =                       -363.0734168435247966
  Basis Set: (AUG-CC-PVTZ AUX)
    Blend: AUG-CC-PVTZ-RI
    Molecular point group: c1

    Geometry (in Angstrom), charge = 0, multiplicity = 1:

       Center              X                  Y                   Z               Mass
    ------------   -----------------  -----------------  -----------------  -----------------
         O           -2.467169928633     0.075696362931    -0.384210644216    15.994914619570
         N           -0.637806928633    -1.214475637069    -0.016479644216    14.003074004430
         C            1.912496071367     0.741158362931    -0.025837644216    12.000000000000
         C            1.793171071367    -0.742381637069    -0.372114644216    12.000000000000
         C            0.649417071367     1.572983362931    -0.251326644216    12.000000000000
         C            0.721125071367    -1.482805637069     0.427225355784    12.000000000000
         C           -0.551299928633     1.154217362931     0.610977355784    12.000000000000
         C           -1.293660528633    -0.026876437069     0.046111855784    12.000000000000
         H            2.731118071367     1.174926362931    -0.613222644216     1.007825032230
         H            2.208936071367     0.833420362931     1.028456355784     1.007825032230
         H            1.577001071367    -0.868468637069    -1.439884644216     1.007825032230
         H            2.760804071367    -1.224630637069    -0.181363644216     1.007825032230
         H            0.360806071367     1.539796362931    -1.309648644216     1.007825032230
         H            0.885293071367     2.620191362931    -0.028635644216     1.007825032230
         H            0.866824071367    -2.562113637069     0.324965355784     1.007825032230
         H            0.826993071367    -1.254104637069     1.496713355784     1.007825032230
         H           -1.281671928633     1.964414362931     0.669727355784     1.007825032230
         H           -0.217689928633     0.933431362931     1.633999355784     1.007825032230
         H           -1.174649928633    -1.966089637069    -0.434325644216     1.007825032230

  Basis Set: AUG-CC-PVTZ
    Blend: AUG-CC-PVTZ
  Basis Set: (AUG-CC-PVTZ AUX)
    Blend: AUG-CC-PVTZ-JKFIT
	 Reference Energy          =    -363.0734168435247966 [Eh]
	 Singles Energy            =      -0.0000000000000000 [Eh]
	 Same-Spin Energy          =      -0.3781670931813773 [Eh]
	 Opposite-Spin Energy      =      -1.2484895012534254 [Eh]
	 Correlation Energy        =      -1.6266565944348028 [Eh]
	 Total Energy              =    -364.7000734379595883 [Eh]

	 ================> DF-SCS-MP2 Energies <==================
	-----------------------------------------------------------
	 SCS Same-Spin Scale       =       0.3333333333333333 [-]
	 SCS Opposite-Spin Scale   =       1.2000000000000000 [-]
	 SCS Same-Spin Energy      =      -0.1260556977271258 [Eh]
	 SCS Opposite-Spin Energy  =      -1.4981874015041103 [Eh]
	 SCS Correlation Energy    =      -1.6242430992312360 [Eh]
	 SCS Total Energy          =    -364.6976599427560473 [Eh]
	-----------------------------------------------------------

  Dipole Moment: [D]
     X:     4.2247      Y:    -1.0798      Z:     0.9322     Total:     4.4590

*** Psi4 exiting successfully. Buy a developer a beer!
