                               Psi4 1.3.2 release

  ==> Input File <==

--------------------------------------------------------------------------
#psi4
#
memory 32 gb

molecule  {
0 1
  O       -2.5416370     0.0659770    -0.3927070
  N       -0.7122740    -1.2241950    -0.0249760
  C        1.8380290     0.7314390    -0.0343340
  C        1.7187040    -0.7521010    -0.3806110
  C        0.5749500     1.5632640    -0.2598230
  C        0.6466580    -1.4925250     0.4187290
  C       -0.6257670     1.1444980     0.6024810
  C       -1.3868420    -0.0349600     0.0307530
  H        2.6566510     1.1652070    -0.6217190
  H        2.1344690     0.8237010     1.0199600
  H        1.5025340    -0.8781880    -1.4483810
  H        2.6863370    -1.2343500    -0.1898600
  H        0.2863390     1.5300770    -1.3181450
  H        0.8108260     2.6104720    -0.0371320
  H        0.7923570    -2.5718330     0.3164690
  H        0.7525260    -1.2638240     1.4882170
  H       -1.3561390     1.9546950     0.6612310
  H       -0.2921570     0.9237120     1.6255030
  H       -1.2491170    -1.9758090    -0.4428220
units angstrom
no_reorient  #important for SAPT in psi4, default
symmetry c1  #important for SAPT in psi4, default
}

set PROPERTIES_ORIGIN ["COM"]
properties('MP2/aug-cc-pvtz', properties = ['dipole'])
--------------------------------------------------------------------------

    Molecular point group: c1
  Charge       = 0
  Multiplicity = 1
  Basis Set: AUG-CC-PVTZ
    Blend: AUG-CC-PVTZ
  Basis Set: (AUG-CC-PVTZ AUX)
    Blend: AUG-CC-PVTZ-JKFIT

    Orbital Energies [Eh]
    ---------------------

    Doubly Occupied:

       1A    -20.509066     2A    -15.578674     3A    -11.343041
       4A    -11.277341     5A    -11.236664     6A    -11.235965
       7A    -11.234364     8A    -11.233049     9A     -1.363460
      10A     -1.228270    11A     -1.093976    12A     -1.042194
      13A     -0.945412    14A     -0.888547    15A     -0.795453
      16A     -0.764036    17A     -0.687899    18A     -0.676855
      19A     -0.626220    20A     -0.611865    21A     -0.601887
      22A     -0.591834    23A     -0.570046    24A     -0.545192
      25A     -0.519396    26A     -0.515784    27A     -0.481245
      28A     -0.470563    29A     -0.469425    30A     -0.410594
      31A     -0.382763

  @DF-RHF Final Energy:  -363.07548700349861

   => Energetics <=

    Nuclear Repulsion Energy =            394.0868925187911600
    One-Electron Energy =               -1274.4625994212276510
    Two-Electron Energy =                 517.3002198989379394
    Total Energy =                       -363.0754870034985515
  Basis Set: (AUG-CC-PVTZ AUX)
    Blend: AUG-CC-PVTZ-RI
    Molecular point group: c1

    Geometry (in Angstrom), charge = 0, multiplicity = 1:

       Center              X                  Y                   Z               Mass
    ------------   -----------------  -----------------  -----------------  -----------------
         O           -2.465184036085     0.075522778791    -0.383482424897    15.994914619570
         N           -0.635821036085    -1.214649221209    -0.015751424897    14.003074004430
         C            1.914481963915     0.740984778791    -0.025109424897    12.000000000000
         C            1.795156963915    -0.742555221209    -0.371386424897    12.000000000000
         C            0.651402963915     1.572809778791    -0.250598424897    12.000000000000
         C            0.723110963915    -1.482979221209     0.427953575103    12.000000000000
         C           -0.549314036085     1.154043778791     0.611705575103    12.000000000000
         C           -1.310389036085    -0.025414221209     0.039977575103    12.000000000000
         H            2.733103963915     1.174752778791    -0.612494424897     1.007825032230
         H            2.210921963915     0.833246778791     1.029184575103     1.007825032230
         H            1.578986963915    -0.868642221209    -1.439156424897     1.007825032230
         H            2.762789963915    -1.224804221209    -0.180635424897     1.007825032230
         H            0.362791963915     1.539622778791    -1.308920424897     1.007825032230
         H            0.887278963915     2.620017778791    -0.027907424897     1.007825032230
         H            0.868809963915    -2.562287221209     0.325693575103     1.007825032230
         H            0.828978963915    -1.254278221209     1.497441575103     1.007825032230
         H           -1.279686036085     1.964240778791     0.670455575103     1.007825032230
         H           -0.215704036085     0.933257778791     1.634727575103     1.007825032230
         H           -1.172664036085    -1.966263221209    -0.433597424897     1.007825032230

  Basis Set: AUG-CC-PVTZ
    Blend: AUG-CC-PVTZ
  Basis Set: (AUG-CC-PVTZ AUX)
    Blend: AUG-CC-PVTZ-JKFIT
	 Reference Energy          =    -363.0754870034986084 [Eh]
	 Singles Energy            =      -0.0000000000000000 [Eh]
	 Same-Spin Energy          =      -0.3777249128928249 [Eh]
	 Opposite-Spin Energy      =      -1.2476630819615810 [Eh]
	 Correlation Energy        =      -1.6253879948544059 [Eh]
	 Total Energy              =    -364.7008749983530151 [Eh]

	 ================> DF-SCS-MP2 Energies <==================
	-----------------------------------------------------------
	 SCS Same-Spin Scale       =       0.3333333333333333 [-]
	 SCS Opposite-Spin Scale   =       1.2000000000000000 [-]
	 SCS Same-Spin Energy      =      -0.1259083042976083 [Eh]
	 SCS Opposite-Spin Energy  =      -1.4971956983538972 [Eh]
	 SCS Correlation Energy    =      -1.6231040026515056 [Eh]
	 SCS Total Energy          =    -364.6985910061501386 [Eh]
	-----------------------------------------------------------

  Dipole Moment: [D]
     X:     4.0723      Y:    -1.0363      Z:     0.8960     Total:     4.2966

*** Psi4 exiting successfully. Buy a developer a beer!
