                               Psi4 1.3.2 release

  ==> Input File <==

--------------------------------------------------------------------------
#psi4
#
memory 32 gb

molecule  {
0 1
  O       -2.5416370     0.0659770    -0.3927070
  N       -0.7122740    -1.2241950    -0.0249760
  C        1.8380290     0.7314390    -0.0343340
  C        1.7187040    -0.7521010    -0.3806110
  C        0.5749500     1.5632640    -0.2598230
  C        0.6506620    -1.4439495     0.4329376
  C       -0.6257670     1.1444980     0.6024810
  C       -1.3868420    -0.0349600     0.0307530
  H        2.6566510     1.1652070    -0.6217190
  H        2.1344690     0.8237010     1.0199600
  H        1.5025340    -0.8781880    -1.4483810
  H        2.6863370    -1.2343500    -0.1898600
  H        0.2863390     1.5300770    -1.3181450
  H        0.8108260     2.6104720    -0.0371320
  H        0.7923570    -2.5718330     0.3164690
  H        0.7525260    -1.2638240     1.4882170
  H       -1.3561390     1.9546950     0.6612310
  H       -0.2921570     0.9237120     1.6255030
  H       -1.2491170    -1.9758090    -0.4428220
units angstrom
no_reorient  #important for SAPT in psi4, default
symmetry c1  #important for SAPT in psi4, default
}

set PROPERTIES_ORIGIN ["COM"]
properties('MP2/aug-cc-pvtz', properties = ['dipole'])
--------------------------------------------------------------------------

    Molecular point group: c1
  Charge       = 0
  Multiplicity = 1
  Basis Set: AUG-CC-PVTZ
    Blend: AUG-CC-PVTZ
  Basis Set: (AUG-CC-PVTZ AUX)
    Blend: AUG-CC-PVTZ-JKFIT

    Orbital Energies [Eh]
    ---------------------

    Doubly Occupied:

       1A    -20.508841     2A    -15.579072     3A    -11.342007
       4A    -11.278367     5A    -11.236873     6A    -11.236165
       7A    -11.234024     8A    -11.232464     9A     -1.363377
      10A     -1.228976    11A     -1.095321    12A     -1.043451
      13A     -0.945394    14A     -0.886432    15A     -0.797332
      16A     -0.764886    17A     -0.689969    18A     -0.674378
      19A     -0.629043    20A     -0.613400    21A     -0.601629
      22A     -0.585657    23A     -0.570200    24A     -0.547649
      25A     -0.519040    26A     -0.516624    27A     -0.481522
      28A     -0.471996    29A     -0.464169    30A     -0.409852
      31A     -0.385051

  @DF-RHF Final Energy:  -363.07220119724610

   => Energetics <=

    Nuclear Repulsion Energy =            394.6357076891068800
    One-Electron Energy =               -1275.5494961564982077
    Two-Electron Energy =                 517.8415872701452827
    Total Energy =                       -363.0722011972460450
  Basis Set: (AUG-CC-PVTZ AUX)
    Blend: AUG-CC-PVTZ-RI
    Molecular point group: c1

    Geometry (in Angstrom), charge = 0, multiplicity = 1:

       Center              X                  Y                   Z               Mass
    ------------   -----------------  -----------------  -----------------  -----------------
         O           -2.465608923539     0.070368153290    -0.384990181110    15.994914619570
         N           -0.636245923539    -1.219803846710    -0.017259181110    14.003074004430
         C            1.914057076461     0.735830153290    -0.026617181110    12.000000000000
         C            1.794732076461    -0.747709846710    -0.372894181110    12.000000000000
         C            0.650978076461     1.567655153290    -0.252106181110    12.000000000000
         C            0.726690076461    -1.439558346710     0.440654418890    12.000000000000
         C           -0.549738923539     1.148889153290     0.610197818890    12.000000000000
         C           -1.310813923539    -0.030568846710     0.038469818890    12.000000000000
         H            2.732679076461     1.169598153290    -0.614002181110     1.007825032230
         H            2.210497076461     0.828092153290     1.027676818890     1.007825032230
         H            1.578562076461    -0.873796846710    -1.440664181110     1.007825032230
         H            2.762365076461    -1.229958846710    -0.182143181110     1.007825032230
         H            0.362367076461     1.534468153290    -1.310428181110     1.007825032230
         H            0.886854076461     2.614863153290    -0.029415181110     1.007825032230
         H            0.868385076461    -2.567441846710     0.324185818890     1.007825032230
         H            0.828554076461    -1.259432846710     1.495933818890     1.007825032230
         H           -1.280110923539     1.959086153290     0.668947818890     1.007825032230
         H           -0.216128923539     0.928103153290     1.633219818890     1.007825032230
         H           -1.173088923539    -1.971417846710    -0.435105181110     1.007825032230

  Basis Set: AUG-CC-PVTZ
    Blend: AUG-CC-PVTZ
  Basis Set: (AUG-CC-PVTZ AUX)
    Blend: AUG-CC-PVTZ-JKFIT
	 Reference Energy          =    -363.0722011972461019 [Eh]
	 Singles Energy            =      -0.0000000000000000 [Eh]
	 Same-Spin Energy          =      -0.3779942305661828 [Eh]
	 Opposite-Spin Energy      =      -1.2480763911066122 [Eh]
	 Correlation Energy        =      -1.6260706216727949 [Eh]
	 Total Energy              =    -364.6982718189188972 [Eh]

	 ================> DF-SCS-MP2 Energies <==================
	-----------------------------------------------------------
	 SCS Same-Spin Scale       =       0.3333333333333333 [-]
	 SCS Opposite-Spin Scale   =       1.2000000000000000 [-]
	 SCS Same-Spin Energy      =      -0.1259980768553943 [Eh]
	 SCS Opposite-Spin Energy  =      -1.4976916693279345 [Eh]
	 SCS Correlation Energy    =      -1.6236897461833288 [Eh]
	 SCS Total Energy          =    -364.6958909434294469 [Eh]
	-----------------------------------------------------------

  Dipole Moment: [D]
     X:     4.0787      Y:    -0.9970      Z:     0.9051     Total:     4.2952

*** Psi4 exiting successfully. Buy a developer a beer!
