                               Psi4 1.3.2 release

  ==> Input File <==

--------------------------------------------------------------------------
#psi4
#
memory 32 gb

molecule  {
0 1
  O       -2.5416370     0.0659770    -0.3927070
  N       -0.7122740    -1.2241950    -0.0249760
  C        1.8380290     0.7314390    -0.0343340
  C        1.7187040    -0.7521010    -0.3806110
  C        0.5749500     1.5632640    -0.2598230
  C        0.6466580    -1.4925250     0.4187290
  C       -0.6243690     1.2939003     0.6619858
  C       -1.3868420    -0.0349600     0.0307530
  H        2.6566510     1.1652070    -0.6217190
  H        2.1344690     0.8237010     1.0199600
  H        1.5025340    -0.8781880    -1.4483810
  H        2.6863370    -1.2343500    -0.1898600
  H        0.2863390     1.5300770    -1.3181450
  H        0.8108260     2.6104720    -0.0371320
  H        0.7923570    -2.5718330     0.3164690
  H        0.7525260    -1.2638240     1.4882170
  H       -1.3561390     1.9546950     0.6612310
  H       -0.2921570     0.9237120     1.6255030
  H       -1.2491170    -1.9758090    -0.4428220
units angstrom
no_reorient  #important for SAPT in psi4, default
symmetry c1  #important for SAPT in psi4, default
}

set PROPERTIES_ORIGIN ["COM"]
properties('MP2/aug-cc-pvtz', properties = ['dipole'])
--------------------------------------------------------------------------

    Molecular point group: c1
  Charge       = 0
  Multiplicity = 1
  Basis Set: AUG-CC-PVTZ
    Blend: AUG-CC-PVTZ
  Basis Set: (AUG-CC-PVTZ AUX)
    Blend: AUG-CC-PVTZ-JKFIT

    Orbital Energies [Eh]
    ---------------------

    Doubly Occupied:

       1A    -20.507725     2A    -15.579947     3A    -11.344372
       4A    -11.277570     5A    -11.236839     6A    -11.235450
       7A    -11.234900     8A    -11.234256     9A     -1.359456
      10A     -1.226221    11A     -1.093173    12A     -1.037400
      13A     -0.945329    14A     -0.880612    15A     -0.793798
      16A     -0.770532    17A     -0.685885    18A     -0.668663
      19A     -0.628368    20A     -0.614420    21A     -0.607439
      22A     -0.584206    23A     -0.583045    24A     -0.538744
      25A     -0.527189    26A     -0.512267    27A     -0.483565
      28A     -0.481240    29A     -0.466122    30A     -0.390417
      31A     -0.382240

  @DF-RHF Final Energy:  -363.05245840804594

   => Energetics <=

    Nuclear Repulsion Energy =            391.6699396438857548
    One-Electron Energy =               -1269.6220183782772892
    Two-Electron Energy =                 514.8996203263455982
    Total Energy =                       -363.0524584080459363
  Basis Set: (AUG-CC-PVTZ AUX)
    Blend: AUG-CC-PVTZ-RI
    Molecular point group: c1

    Geometry (in Angstrom), charge = 0, multiplicity = 1:

       Center              X                  Y                   Z               Mass
    ------------   -----------------  -----------------  -----------------  -----------------
         O           -2.465332385900     0.059668842021    -0.389796821240    15.994914619570
         N           -0.635969385900    -1.230503157979    -0.022065821240    14.003074004430
         C            1.914333614100     0.725130842021    -0.031423821240    12.000000000000
         C            1.795008614100    -0.758409157979    -0.377700821240    12.000000000000
         C            0.651254614100     1.556955842021    -0.256912821240    12.000000000000
         C            0.722962614100    -1.498833157979     0.421639178760    12.000000000000
         C           -0.548064385900     1.287592142021     0.664895978760    12.000000000000
         C           -1.310537385900    -0.041268157979     0.033663178760    12.000000000000
         H            2.732955614100     1.158898842021    -0.618808821240     1.007825032230
         H            2.210773614100     0.817392842021     1.022870178760     1.007825032230
         H            1.578838614100    -0.884496157979    -1.445470821240     1.007825032230
         H            2.762641614100    -1.240658157979    -0.186949821240     1.007825032230
         H            0.362643614100     1.523768842021    -1.315234821240     1.007825032230
         H            0.887130614100     2.604163842021    -0.034221821240     1.007825032230
         H            0.868661614100    -2.578141157979     0.319379178760     1.007825032230
         H            0.828830614100    -1.270132157979     1.491127178760     1.007825032230
         H           -1.279834385900     1.948386842021     0.664141178760     1.007825032230
         H           -0.215852385900     0.917403842021     1.628413178760     1.007825032230
         H           -1.172812385900    -1.982117157979    -0.439911821240     1.007825032230

  Basis Set: AUG-CC-PVTZ
    Blend: AUG-CC-PVTZ
  Basis Set: (AUG-CC-PVTZ AUX)
    Blend: AUG-CC-PVTZ-JKFIT
	 Reference Energy          =    -363.0524584080459363 [Eh]
	 Singles Energy            =      -0.0000000000000000 [Eh]
	 Same-Spin Energy          =      -0.3774394680855135 [Eh]
	 Opposite-Spin Energy      =      -1.2480692610509303 [Eh]
	 Correlation Energy        =      -1.6255087291364438 [Eh]
	 Total Energy              =    -364.6779671371824065 [Eh]

	 ================> DF-SCS-MP2 Energies <==================
	-----------------------------------------------------------
	 SCS Same-Spin Scale       =       0.3333333333333333 [-]
	 SCS Opposite-Spin Scale   =       1.2000000000000000 [-]
	 SCS Same-Spin Energy      =      -0.1258131560285045 [Eh]
	 SCS Opposite-Spin Energy  =      -1.4976831132611164 [Eh]
	 SCS Correlation Energy    =      -1.6234962692896209 [Eh]
	 SCS Total Energy          =    -364.6759546773355396 [Eh]
	-----------------------------------------------------------

  Dipole Moment: [D]
     X:     4.0229      Y:    -1.1137      Z:     0.8652     Total:     4.2629

*** Psi4 exiting successfully. Buy a developer a beer!
