                               Psi4 1.4a3.dev225

  ==> Input File <==

--------------------------------------------------------------------------
#psi4
#
memory 32 gb

molecule  {
0 1
  O       -2.5416370     0.0659770    -0.3927070
  N       -0.7122740    -1.2241950    -0.0249760
  C        1.8380290     0.7314390    -0.0343340
  C        1.7187040    -0.7521010    -0.3806110
  C        0.5749500     1.5632640    -0.2598230
  C        0.6466580    -1.4925250     0.4187290
  C       -0.6257670     1.1444980     0.6024810
  C       -1.3967015    -0.0175782     0.0315675
  H        2.6566510     1.1652070    -0.6217190
  H        2.1344690     0.8237010     1.0199600
  H        1.5025340    -0.8781880    -1.4483810
  H        2.6863370    -1.2343500    -0.1898600
  H        0.2863390     1.5300770    -1.3181450
  H        0.8108260     2.6104720    -0.0371320
  H        0.7923570    -2.5718330     0.3164690
  H        0.7525260    -1.2638240     1.4882170
  H       -1.3561390     1.9546950     0.6612310
  H       -0.2921570     0.9237120     1.6255030
  H       -1.2491170    -1.9758090    -0.4428220
units angstrom
no_reorient  #important for SAPT in psi4, default
symmetry c1  #important for SAPT in psi4, default
}

set PROPERTIES_ORIGIN ["COM"]
properties('MP2/aug-cc-pvtz', properties = ['dipole'])
--------------------------------------------------------------------------

    Molecular point group: c1
  Charge       = 0
  Multiplicity = 1
  Basis Set: AUG-CC-PVTZ
    Blend: AUG-CC-PVTZ
  Basis Set: (AUG-CC-PVTZ AUX)
    Blend: AUG-CC-PVTZ-JKFIT

    Orbital Energies [Eh]
    ---------------------

    Doubly Occupied:

       1A    -20.512884     2A    -15.574941     3A    -11.344130
       4A    -11.275155     5A    -11.237192     6A    -11.236341
       7A    -11.233186     8A    -11.232554     9A     -1.370273
      10A     -1.222920    11A     -1.093370    12A     -1.042134
      13A     -0.944432    14A     -0.887079    15A     -0.794593
      16A     -0.760682    17A     -0.685729    18A     -0.678737
      19A     -0.625074    20A     -0.611819    21A     -0.601483
      22A     -0.593944    23A     -0.569467    24A     -0.547255
      25A     -0.519160    26A     -0.516187    27A     -0.480744
      28A     -0.470944    29A     -0.469245    30A     -0.413294
      31A     -0.381334

  @DF-RHF Final Energy:  -363.07523809777393

   => Energetics <=

    Nuclear Repulsion Energy =            394.0052500415453096
    One-Electron Energy =               -1274.3084090779350390
    Two-Electron Energy =                 517.2279209386157390
    Total Energy =                       -363.0752380977739904
  Basis Set: (AUG-CC-PVTZ AUX)
    Blend: AUG-CC-PVTZ-RI
    Molecular point group: c1

    Geometry (in Angstrom), charge = 0, multiplicity = 1:

       Center              X                  Y                   Z               Mass
    ------------   -----------------  -----------------  -----------------  -----------------
         O           -2.464137787871     0.073678296088    -0.383568856174    15.994914619570
         N           -0.634774787871    -1.216493703912    -0.015837856174    14.003074004430
         C            1.915528212129     0.739140296088    -0.025195856174    12.000000000000
         C            1.796203212129    -0.744399703912    -0.371472856174    12.000000000000
         C            0.652449212129     1.570965296088    -0.250684856174    12.000000000000
         C            0.724157212129    -1.484823703912     0.427867143826    12.000000000000
         C           -0.548267787871     1.152199296088     0.611619143826    12.000000000000
         C           -1.319202287871    -0.009876903912     0.040705643826    12.000000000000
         H            2.734150212129     1.172908296088    -0.612580856174     1.007825032230
         H            2.211968212129     0.831402296088     1.029098143826     1.007825032230
         H            1.580033212129    -0.870486703912    -1.439242856174     1.007825032230
         H            2.763836212129    -1.226648703912    -0.180721856174     1.007825032230
         H            0.363838212129     1.537778296088    -1.309006856174     1.007825032230
         H            0.888325212129     2.618173296088    -0.027993856174     1.007825032230
         H            0.869856212129    -2.564131703912     0.325607143826     1.007825032230
         H            0.830025212129    -1.256122703912     1.497355143826     1.007825032230
         H           -1.278639787871     1.962396296088     0.670369143826     1.007825032230
         H           -0.214657787871     0.931413296088     1.634641143826     1.007825032230
         H           -1.171617787871    -1.968107703912    -0.433683856174     1.007825032230

  Basis Set: AUG-CC-PVTZ
    Blend: AUG-CC-PVTZ
  Basis Set: (AUG-CC-PVTZ AUX)
    Blend: AUG-CC-PVTZ-JKFIT
	 Reference Energy          =    -363.0752380977739335 [Eh]
	 Singles Energy            =      -0.0000000000000000 [Eh]
	 Same-Spin Energy          =      -0.3776423724783609 [Eh]
	 Opposite-Spin Energy      =      -1.2475047854506665 [Eh]
	 Correlation Energy        =      -1.6251471579290273 [Eh]
	 Total Energy              =    -364.7003852557029404 [Eh]

	 ================> DF-SCS-MP2 Energies <==================
	-----------------------------------------------------------
	 SCS Same-Spin Scale       =       0.3333333333333333 [-]
	 SCS Opposite-Spin Scale   =       1.2000000000000000 [-]
	 SCS Same-Spin Energy      =      -0.1258807908261203 [Eh]
	 SCS Opposite-Spin Energy  =      -1.4970057425407997 [Eh]
	 SCS Correlation Energy    =      -1.6228865333669200 [Eh]
	 SCS Total Energy          =    -364.6981246311408427 [Eh]
	-----------------------------------------------------------

  Dipole Moment: [D]
     X:     3.9484      Y:    -0.9107      Z:     0.8837     Total:     4.1473

*** Psi4 exiting successfully. Buy a developer a beer!
