                               Psi4 1.4a3.dev225

  ==> Input File <==

--------------------------------------------------------------------------
#psi4
#
memory 32 gb

molecule  {
0 1
  O       -2.5416370     0.0659770    -0.3927070
  N       -0.7122740    -1.2241950    -0.0249760
  C        1.8380290     0.7314390    -0.0343340
  C        1.7187040    -0.7521010    -0.3806110
  C        0.5749500     1.5632640    -0.2598230
  C        0.6466580    -1.4925250     0.4187290
  C       -0.6257670     1.1444980     0.6024810
  C       -1.3868420    -0.0349600     0.0307530
  H        2.6566510     1.1652070    -0.6217190
  H        2.1344690     0.8237010     1.0199600
  H        1.5025340    -0.8781880    -1.4483810
  H        2.6863370    -1.2343500    -0.1898600
  H        0.2863390     1.5300770    -1.3181450
  H        0.8065229     2.5913676    -0.0411946
  H        0.7923570    -2.5718330     0.3164690
  H        0.7525260    -1.2638240     1.4882170
  H       -1.3561390     1.9546950     0.6612310
  H       -0.2921570     0.9237120     1.6255030
  H       -1.2491170    -1.9758090    -0.4428220
units angstrom
no_reorient  #important for SAPT in psi4, default
symmetry c1  #important for SAPT in psi4, default
}

set PROPERTIES_ORIGIN ["COM"]
properties('MP2/aug-cc-pvtz', properties = ['dipole'])
--------------------------------------------------------------------------

    Molecular point group: c1
  Charge       = 0
  Multiplicity = 1
  Basis Set: AUG-CC-PVTZ
    Blend: AUG-CC-PVTZ
  Basis Set: (AUG-CC-PVTZ AUX)
    Blend: AUG-CC-PVTZ-JKFIT

    Orbital Energies [Eh]
    ---------------------

    Doubly Occupied:

       1A    -20.508936     2A    -15.578552     3A    -11.342908
       4A    -11.277236     5A    -11.236002     6A    -11.234243
       7A    -11.234020     8A    -11.232842     9A     -1.363337
      10A     -1.228148    11A     -1.094369    12A     -1.042280
      13A     -0.945421    14A     -0.889555    15A     -0.795930
      16A     -0.764029    17A     -0.688098    18A     -0.676731
      19A     -0.626909    20A     -0.612073    21A     -0.602513
      22A     -0.592004    23A     -0.570139    24A     -0.545245
      25A     -0.519404    26A     -0.515860    27A     -0.481205
      28A     -0.470947    29A     -0.469899    30A     -0.410583
      31A     -0.382657

  @DF-RHF Final Energy:  -363.07556706332554

   => Energetics <=

    Nuclear Repulsion Energy =            394.1901473675994225
    One-Electron Energy =               -1274.6672769895860711
    Two-Electron Energy =                 517.4015625586612259
    Total Energy =                       -363.0755670633254795
  Basis Set: (AUG-CC-PVTZ AUX)
    Blend: AUG-CC-PVTZ-RI
    Molecular point group: c1

    Geometry (in Angstrom), charge = 0, multiplicity = 1:

       Center              X                  Y                   Z               Mass
    ------------   -----------------  -----------------  -----------------  -----------------
         O           -2.465145686102     0.075693040558    -0.383446218293    15.994914619570
         N           -0.635782686102    -1.214478959442    -0.015715218293    14.003074004430
         C            1.914520313898     0.741155040558    -0.025073218293    12.000000000000
         C            1.795195313898    -0.742384959442    -0.371350218293    12.000000000000
         C            0.651441313898     1.572980040558    -0.250562218293    12.000000000000
         C            0.723149313898    -1.482808959442     0.427989781707    12.000000000000
         C           -0.549275686102     1.154214040558     0.611741781707    12.000000000000
         C           -1.310350686102    -0.025243959442     0.040013781707    12.000000000000
         H            2.733142313898     1.174923040558    -0.612458218293     1.007825032230
         H            2.210960313898     0.833417040558     1.029220781707     1.007825032230
         H            1.579025313898    -0.868471959442    -1.439120218293     1.007825032230
         H            2.762828313898    -1.224633959442    -0.180599218293     1.007825032230
         H            0.362830313898     1.539793040558    -1.308884218293     1.007825032230
         H            0.883014213898     2.601083640558    -0.031933818293     1.007825032230
         H            0.868848313898    -2.562116959442     0.325729781707     1.007825032230
         H            0.829017313898    -1.254107959442     1.497477781707     1.007825032230
         H           -1.279647686102     1.964411040558     0.670491781707     1.007825032230
         H           -0.215665686102     0.933428040558     1.634763781707     1.007825032230
         H           -1.172625686102    -1.966092959442    -0.433561218293     1.007825032230

  Basis Set: AUG-CC-PVTZ
    Blend: AUG-CC-PVTZ
  Basis Set: (AUG-CC-PVTZ AUX)
    Blend: AUG-CC-PVTZ-JKFIT
	 Reference Energy          =    -363.0755670633255363 [Eh]
	 Singles Energy            =      -0.0000000000000000 [Eh]
	 Same-Spin Energy          =      -0.3777164546666348 [Eh]
	 Opposite-Spin Energy      =      -1.2475221096702860 [Eh]
	 Correlation Energy        =      -1.6252385643369207 [Eh]
	 Total Energy              =    -364.7008056276624757 [Eh]

	 ================> DF-SCS-MP2 Energies <==================
	-----------------------------------------------------------
	 SCS Same-Spin Scale       =       0.3333333333333333 [-]
	 SCS Opposite-Spin Scale   =       1.2000000000000000 [-]
	 SCS Same-Spin Energy      =      -0.1259054848888783 [Eh]
	 SCS Opposite-Spin Energy  =      -1.4970265316043432 [Eh]
	 SCS Correlation Energy    =      -1.6229320164932215 [Eh]
	 SCS Total Energy          =    -364.6984990798187596 [Eh]
	-----------------------------------------------------------

  Dipole Moment: [D]
     X:     4.0757      Y:    -1.0215      Z:     0.8965     Total:     4.2963

*** Psi4 exiting successfully. Buy a developer a beer!
