                               Psi4 1.3.2 release

  ==> Input File <==

--------------------------------------------------------------------------
#psi4
#
memory 32 gb

molecule  {
0 1
  O       -2.5416370     0.0659770    -0.3927070
  N       -0.7122740    -1.2241950    -0.0249760
  C        1.8380290     0.7314390    -0.0343340
  C        1.7187040    -0.7521010    -0.3806110
  C        0.5749500     1.5632640    -0.2598230
  C        0.6466580    -1.4925250     0.4187290
  C       -0.6257670     1.1444980     0.6024810
  C       -1.4854366     0.1388582     0.0388983
  H        2.6566510     1.1652070    -0.6217190
  H        2.1344690     0.8237010     1.0199600
  H        1.5025340    -0.8781880    -1.4483810
  H        2.6863370    -1.2343500    -0.1898600
  H        0.2863390     1.5300770    -1.3181450
  H        0.8108260     2.6104720    -0.0371320
  H        0.7923570    -2.5718330     0.3164690
  H        0.7525260    -1.2638240     1.4882170
  H       -1.3561390     1.9546950     0.6612310
  H       -0.2921570     0.9237120     1.6255030
  H       -1.2491170    -1.9758090    -0.4428220
units angstrom
no_reorient  #important for SAPT in psi4, default
symmetry c1  #important for SAPT in psi4, default
}

set PROPERTIES_ORIGIN ["COM"]
properties('MP2/aug-cc-pvtz', properties = ['dipole'])
--------------------------------------------------------------------------

    Molecular point group: c1
  Charge       = 0
  Multiplicity = 1
  Basis Set: AUG-CC-PVTZ
    Blend: AUG-CC-PVTZ
  Basis Set: (AUG-CC-PVTZ AUX)
    Blend: AUG-CC-PVTZ-JKFIT

    Orbital Energies [Eh]
    ---------------------

    Doubly Occupied:

       1A    -20.547041     2A    -15.537511     3A    -11.355155
       4A    -11.254832     5A    -11.243940     6A    -11.243119
       7A    -11.230312     8A    -11.221366     9A     -1.441433
      10A     -1.176557    11A     -1.092372    12A     -1.043565
      13A     -0.939864    14A     -0.873151    15A     -0.786850
      16A     -0.741480    17A     -0.694336    18A     -0.679058
      19A     -0.629781    20A     -0.620841    21A     -0.597904
      22A     -0.591611    23A     -0.580644    24A     -0.551258
      25A     -0.531227    26A     -0.513752    27A     -0.477496
      28A     -0.472924    29A     -0.466132    30A     -0.413521
      31A     -0.356564

  @DF-RHF Final Energy:  -363.03631236082805

   => Energetics <=

    Nuclear Repulsion Energy =            393.4121617140182252
    One-Electron Energy =               -1273.0857580366387083
    Two-Electron Energy =                 516.6372839617923773
    Total Energy =                       -363.0363123608281057
  Basis Set: (AUG-CC-PVTZ AUX)
    Blend: AUG-CC-PVTZ-RI
    Molecular point group: c1

    Geometry (in Angstrom), charge = 0, multiplicity = 1:

       Center              X                  Y                   Z               Mass
    ------------   -----------------  -----------------  -----------------  -----------------
         O           -2.454721596388     0.057077930538    -0.384346769497    15.994914619570
         N           -0.625358596388    -1.233094069462    -0.016615769497    14.003074004430
         C            1.924944403612     0.722539930538    -0.025973769497    12.000000000000
         C            1.805619403612    -0.761000069462    -0.372250769497    12.000000000000
         C            0.661865403612     1.554364930538    -0.251462769497    12.000000000000
         C            0.733573403612    -1.501424069462     0.427089230503    12.000000000000
         C           -0.538851596388     1.135598930538     0.610841230503    12.000000000000
         C           -1.398521196388     0.129959130538     0.047258530503    12.000000000000
         H            2.743566403612     1.156307930538    -0.613358769497     1.007825032230
         H            2.221384403612     0.814801930538     1.028320230503     1.007825032230
         H            1.589449403612    -0.887087069462    -1.440020769497     1.007825032230
         H            2.773252403612    -1.243249069462    -0.181499769497     1.007825032230
         H            0.373254403612     1.521177930538    -1.309784769497     1.007825032230
         H            0.897741403612     2.601572930538    -0.028771769497     1.007825032230
         H            0.879272403612    -2.580732069462     0.324829230503     1.007825032230
         H            0.839441403612    -1.272723069462     1.496577230503     1.007825032230
         H           -1.269223596388     1.945795930538     0.669591230503     1.007825032230
         H           -0.205241596388     0.914812930538     1.633863230503     1.007825032230
         H           -1.162201596388    -1.984708069462    -0.434461769497     1.007825032230

  Basis Set: AUG-CC-PVTZ
    Blend: AUG-CC-PVTZ
  Basis Set: (AUG-CC-PVTZ AUX)
    Blend: AUG-CC-PVTZ-JKFIT
	 Reference Energy          =    -363.0363123608280489 [Eh]
	 Singles Energy            =      -0.0000000000000000 [Eh]
	 Same-Spin Energy          =      -0.3779012143679841 [Eh]
	 Opposite-Spin Energy      =      -1.2479691004029712 [Eh]
	 Correlation Energy        =      -1.6258703147709552 [Eh]
	 Total Energy              =    -364.6621826755990128 [Eh]

	 ================> DF-SCS-MP2 Energies <==================
	-----------------------------------------------------------
	 SCS Same-Spin Scale       =       0.3333333333333333 [-]
	 SCS Opposite-Spin Scale   =       1.2000000000000000 [-]
	 SCS Same-Spin Energy      =      -0.1259670714559947 [Eh]
	 SCS Opposite-Spin Energy  =      -1.4975629204835654 [Eh]
	 SCS Correlation Energy    =      -1.6235299919395600 [Eh]
	 SCS Total Energy          =    -364.6598423527676118 [Eh]
	-----------------------------------------------------------

  Dipole Moment: [D]
     X:     2.8375      Y:     0.3500      Z:     0.7949     Total:     2.9674

*** Psi4 exiting successfully. Buy a developer a beer!
