                               Psi4 1.4a3.dev225

  ==> Input File <==

--------------------------------------------------------------------------
#psi4
#
memory 32 gb

molecule  {
0 1
  O       -2.5416370     0.0659770    -0.3927070
  N       -0.7122740    -1.2241950    -0.0249760
  C        1.8380290     0.7314390    -0.0343340
  C        1.7187040    -0.7521010    -0.3806110
  C        0.5749500     1.5632640    -0.2598230
  C        0.6466580    -1.4925250     0.4187290
  C       -0.6257670     1.1444980     0.6024810
  C       -1.3868420    -0.0349600     0.0307530
  H        2.6566510     1.1652070    -0.6217190
  H        2.1344690     0.8237010     1.0199600
  H        1.5025340    -0.8781880    -1.4483810
  H        2.6863370    -1.2343500    -0.1898600
  H        0.2863390     1.5300770    -1.3181450
  H        0.8108260     2.6104720    -0.0371320
  H        0.7990167    -2.6211666     0.3117948
  H        0.7525260    -1.2638240     1.4882170
  H       -1.3561390     1.9546950     0.6612310
  H       -0.2921570     0.9237120     1.6255030
  H       -1.2491170    -1.9758090    -0.4428220
units angstrom
no_reorient  #important for SAPT in psi4, default
symmetry c1  #important for SAPT in psi4, default
}

set PROPERTIES_ORIGIN ["COM"]
properties('MP2/aug-cc-pvtz', properties = ['dipole'])
--------------------------------------------------------------------------

    Molecular point group: c1
  Charge       = 0
  Multiplicity = 1
  Basis Set: AUG-CC-PVTZ
    Blend: AUG-CC-PVTZ
  Basis Set: (AUG-CC-PVTZ AUX)
    Blend: AUG-CC-PVTZ-JKFIT

    Orbital Energies [Eh]
    ---------------------

    Doubly Occupied:

       1A    -20.509358     2A    -15.579115     3A    -11.343406
       4A    -11.283326     5A    -11.236931     6A    -11.236242
       7A    -11.234771     8A    -11.233420     9A     -1.363742
      10A     -1.228165    11A     -1.094296    12A     -1.041397
      13A     -0.943977    14A     -0.886980    15A     -0.795532
      16A     -0.764309    17A     -0.687505    18A     -0.674657
      19A     -0.626604    20A     -0.611178    21A     -0.601551
      22A     -0.588524    23A     -0.570186    24A     -0.545197
      25A     -0.518101    26A     -0.516006    27A     -0.481216
      28A     -0.470899    29A     -0.468194    30A     -0.410747
      31A     -0.383094

  @DF-RHF Final Energy:  -363.07324158852560

   => Energetics <=

    Nuclear Repulsion Energy =            393.8333382893950443
    One-Electron Energy =               -1273.9559103920789767
    Two-Electron Energy =                 517.0493305141583278
    Total Energy =                       -363.0732415885256614
  Basis Set: (AUG-CC-PVTZ AUX)
    Blend: AUG-CC-PVTZ-RI
    Molecular point group: c1

    Geometry (in Angstrom), charge = 0, multiplicity = 1:

       Center              X                  Y                   Z               Mass
    ------------   -----------------  -----------------  -----------------  -----------------
         O           -2.465243388501     0.075962448496    -0.383440767606    15.994914619570
         N           -0.635880388501    -1.214209551504    -0.015709767606    14.003074004430
         C            1.914422611499     0.741424448496    -0.025067767606    12.000000000000
         C            1.795097611499    -0.742115551504    -0.371344767606    12.000000000000
         C            0.651343611499     1.573249448496    -0.250556767606    12.000000000000
         C            0.723051611499    -1.482539551504     0.427995232394    12.000000000000
         C           -0.549373388501     1.154483448496     0.611747232394    12.000000000000
         C           -1.310448388501    -0.024974551504     0.040019232394    12.000000000000
         H            2.733044611499     1.175192448496    -0.612452767606     1.007825032230
         H            2.210862611499     0.833686448496     1.029226232394     1.007825032230
         H            1.578927611499    -0.868202551504    -1.439114767606     1.007825032230
         H            2.762730611499    -1.224364551504    -0.180593767606     1.007825032230
         H            0.362732611499     1.540062448496    -1.308878767606     1.007825032230
         H            0.887219611499     2.620457448496    -0.027865767606     1.007825032230
         H            0.875410311499    -2.611181151504     0.321061032394     1.007825032230
         H            0.828919611499    -1.253838551504     1.497483232394     1.007825032230
         H           -1.279745388501     1.964680448496     0.670497232394     1.007825032230
         H           -0.215763388501     0.933697448496     1.634769232394     1.007825032230
         H           -1.172723388501    -1.965823551504    -0.433555767606     1.007825032230

  Basis Set: AUG-CC-PVTZ
    Blend: AUG-CC-PVTZ
  Basis Set: (AUG-CC-PVTZ AUX)
    Blend: AUG-CC-PVTZ-JKFIT
	 Reference Energy          =    -363.0732415885256046 [Eh]
	 Singles Energy            =      -0.0000000000000000 [Eh]
	 Same-Spin Energy          =      -0.3777731049991070 [Eh]
	 Opposite-Spin Energy      =      -1.2480861749458272 [Eh]
	 Correlation Energy        =      -1.6258592799449341 [Eh]
	 Total Energy              =    -364.6991008684705662 [Eh]

	 ================> DF-SCS-MP2 Energies <==================
	-----------------------------------------------------------
	 SCS Same-Spin Scale       =       0.3333333333333333 [-]
	 SCS Opposite-Spin Scale   =       1.2000000000000000 [-]
	 SCS Same-Spin Energy      =      -0.1259243683330357 [Eh]
	 SCS Opposite-Spin Energy  =      -1.4977034099349926 [Eh]
	 SCS Correlation Energy    =      -1.6236277782680282 [Eh]
	 SCS Total Energy          =    -364.6968693667936350 [Eh]
	-----------------------------------------------------------

  Dipole Moment: [D]
     X:     4.0671      Y:    -1.0033      Z:     0.8915     Total:     4.2828

*** Psi4 exiting successfully. Buy a developer a beer!
