                               Psi4 1.3.2 release

  ==> Input File <==

--------------------------------------------------------------------------
#psi4
#
memory 32 gb

molecule  {
0 1
  O       -2.5416370     0.0659770    -0.3927070
  N       -0.7122740    -1.2241950    -0.0249760
  C        1.8115108     0.7027407     0.0020235
  C        1.7187040    -0.7521010    -0.3806110
  C        0.5749500     1.5632640    -0.2598230
  C        0.6466580    -1.4925250     0.4187290
  C       -0.6257670     1.1444980     0.6024810
  C       -1.3868420    -0.0349600     0.0307530
  H        2.6566510     1.1652070    -0.6217190
  H        2.1344690     0.8237010     1.0199600
  H        1.5025340    -0.8781880    -1.4483810
  H        2.6863370    -1.2343500    -0.1898600
  H        0.2863390     1.5300770    -1.3181450
  H        0.8108260     2.6104720    -0.0371320
  H        0.7923570    -2.5718330     0.3164690
  H        0.7525260    -1.2638240     1.4882170
  H       -1.3561390     1.9546950     0.6612310
  H       -0.2921570     0.9237120     1.6255030
  H       -1.2491170    -1.9758090    -0.4428220
units angstrom
no_reorient  #important for SAPT in psi4, default
symmetry c1  #important for SAPT in psi4, default
}

set PROPERTIES_ORIGIN ["COM"]
properties('MP2/aug-cc-pvtz', properties = ['dipole'])
--------------------------------------------------------------------------

    Molecular point group: c1
  Charge       = 0
  Multiplicity = 1
  Basis Set: AUG-CC-PVTZ
    Blend: AUG-CC-PVTZ
  Basis Set: (AUG-CC-PVTZ AUX)
    Blend: AUG-CC-PVTZ-JKFIT

    Orbital Energies [Eh]
    ---------------------

    Doubly Occupied:

       1A    -20.508969     2A    -15.578741     3A    -11.342947
       4A    -11.276639     5A    -11.237088     6A    -11.235102
       7A    -11.234524     8A    -11.233826     9A     -1.363396
      10A     -1.228553    11A     -1.096310    12A     -1.043721
      13A     -0.943406    14A     -0.889568    15A     -0.796440
      16A     -0.763866    17A     -0.688679    18A     -0.675212
      19A     -0.624980    20A     -0.614273    21A     -0.604908
      22A     -0.592267    23A     -0.567199    24A     -0.544185
      25A     -0.517819    26A     -0.516126    27A     -0.489446
      28A     -0.473847    29A     -0.459606    30A     -0.410071
      31A     -0.382350

  @DF-RHF Final Energy:  -363.07203986176773

   => Energetics <=

    Nuclear Repulsion Energy =            394.6406434327954003
    One-Electron Energy =               -1275.5572323569342643
    Two-Electron Energy =                 517.8445490623711294
    Total Energy =                       -363.0720398617677347
  Basis Set: (AUG-CC-PVTZ AUX)
    Blend: AUG-CC-PVTZ-RI
    Molecular point group: c1

    Geometry (in Angstrom), charge = 0, multiplicity = 1:

       Center              X                  Y                   Z               Mass
    ------------   -----------------  -----------------  -----------------  -----------------
         O           -2.462370037465     0.078568120353    -0.387340528194    15.994914619570
         N           -0.633007037465    -1.211603879647    -0.019609528194    14.003074004430
         C            1.890777762535     0.715331820353     0.007389971806    12.000000000000
         C            1.797970962535    -0.739509879647    -0.375244528194    12.000000000000
         C            0.654216962535     1.575855120353    -0.254456528194    12.000000000000
         C            0.725924962535    -1.479933879647     0.424095471806    12.000000000000
         C           -0.546500037465     1.157089120353     0.607847471806    12.000000000000
         C           -1.307575037465    -0.022368879647     0.036119471806    12.000000000000
         H            2.735917962535     1.177798120353    -0.616352528194     1.007825032230
         H            2.213735962535     0.836292120353     1.025326471806     1.007825032230
         H            1.581800962535    -0.865596879647    -1.443014528194     1.007825032230
         H            2.765603962535    -1.221758879647    -0.184493528194     1.007825032230
         H            0.365605962535     1.542668120353    -1.312778528194     1.007825032230
         H            0.890092962535     2.623063120353    -0.031765528194     1.007825032230
         H            0.871623962535    -2.559241879647     0.321835471806     1.007825032230
         H            0.831792962535    -1.251232879647     1.493583471806     1.007825032230
         H           -1.276872037465     1.967286120353     0.666597471806     1.007825032230
         H           -0.212890037465     0.936303120353     1.630869471806     1.007825032230
         H           -1.169850037465    -1.963217879647    -0.437455528194     1.007825032230

  Basis Set: AUG-CC-PVTZ
    Blend: AUG-CC-PVTZ
  Basis Set: (AUG-CC-PVTZ AUX)
    Blend: AUG-CC-PVTZ-JKFIT
	 Reference Energy          =    -363.0720398617677347 [Eh]
	 Singles Energy            =      -0.0000000000000000 [Eh]
	 Same-Spin Energy          =      -0.3779787696782746 [Eh]
	 Opposite-Spin Energy      =      -1.2480506488049068 [Eh]
	 Correlation Energy        =      -1.6260294184831814 [Eh]
	 Total Energy              =    -364.6980692802509338 [Eh]

	 ================> DF-SCS-MP2 Energies <==================
	-----------------------------------------------------------
	 SCS Same-Spin Scale       =       0.3333333333333333 [-]
	 SCS Opposite-Spin Scale   =       1.2000000000000000 [-]
	 SCS Same-Spin Energy      =      -0.1259929232260915 [Eh]
	 SCS Opposite-Spin Energy  =      -1.4976607785658882 [Eh]
	 SCS Correlation Energy    =      -1.6236537017919797 [Eh]
	 SCS Total Energy          =    -364.6956935635597006 [Eh]
	-----------------------------------------------------------

  Dipole Moment: [D]
     X:     4.0632      Y:    -1.0479      Z:     0.9109     Total:     4.2939

*** Psi4 exiting successfully. Buy a developer a beer!
