                               Psi4 1.3.2 release

  ==> Input File <==

--------------------------------------------------------------------------
#psi4
#
memory 32 gb

molecule  {
0 1
  O       -2.5416370     0.0659770    -0.3927070
  N       -0.7122740    -1.2241950    -0.0249760
  C        1.7988711     0.7252990     0.0013569
  C        1.7187040    -0.7521010    -0.3806110
  C        0.5749500     1.5632640    -0.2598230
  C        0.6466580    -1.4925250     0.4187290
  C       -0.6257670     1.1444980     0.6024810
  C       -1.3868420    -0.0349600     0.0307530
  H        2.6566510     1.1652070    -0.6217190
  H        2.1344690     0.8237010     1.0199600
  H        1.5025340    -0.8781880    -1.4483810
  H        2.6863370    -1.2343500    -0.1898600
  H        0.2863390     1.5300770    -1.3181450
  H        0.8108260     2.6104720    -0.0371320
  H        0.7923570    -2.5718330     0.3164690
  H        0.7525260    -1.2638240     1.4882170
  H       -1.3561390     1.9546950     0.6612310
  H       -0.2921570     0.9237120     1.6255030
  H       -1.2491170    -1.9758090    -0.4428220
units angstrom
no_reorient  #important for SAPT in psi4, default
symmetry c1  #important for SAPT in psi4, default
}

set PROPERTIES_ORIGIN ["COM"]
properties('MP2/aug-cc-pvtz', properties = ['dipole'])
--------------------------------------------------------------------------

    Molecular point group: c1
  Charge       = 0
  Multiplicity = 1
  Basis Set: AUG-CC-PVTZ
    Blend: AUG-CC-PVTZ
  Basis Set: (AUG-CC-PVTZ AUX)
    Blend: AUG-CC-PVTZ-JKFIT

    Orbital Energies [Eh]
    ---------------------

    Doubly Occupied:

       1A    -20.509031     2A    -15.578687     3A    -11.343034
       4A    -11.276410     5A    -11.236309     6A    -11.235307
       7A    -11.234993     8A    -11.234244     9A     -1.363455
      10A     -1.228425    11A     -1.097266    12A     -1.042558
      13A     -0.944649    14A     -0.889068    15A     -0.796183
      16A     -0.763924    17A     -0.688427    18A     -0.675464
      19A     -0.625132    20A     -0.613646    21A     -0.605618
      22A     -0.591576    23A     -0.567782    24A     -0.544217
      25A     -0.517685    26A     -0.516669    27A     -0.489226
      28A     -0.473865    29A     -0.459283    30A     -0.410270
      31A     -0.382326

  @DF-RHF Final Energy:  -363.07202543587999

   => Energetics <=

    Nuclear Repulsion Energy =            394.6744052529654141
    One-Electron Energy =               -1275.6234094653916600
    Two-Electron Energy =                 517.8769787765462524
    Total Energy =                       -363.0720254358799366
  Basis Set: (AUG-CC-PVTZ AUX)
    Blend: AUG-CC-PVTZ-RI
    Molecular point group: c1

    Geometry (in Angstrom), charge = 0, multiplicity = 1:

       Center              X                  Y                   Z               Mass
    ------------   -----------------  -----------------  -----------------  -----------------
         O           -2.461028766249     0.076174329482    -0.387269791436    15.994914619570
         N           -0.631665766249    -1.213997670518    -0.019538791436    14.003074004430
         C            1.879479333751     0.735496329482     0.006794108564    12.000000000000
         C            1.799312233751    -0.741903670518    -0.375173791436    12.000000000000
         C            0.655558233751     1.573461329482    -0.254385791436    12.000000000000
         C            0.727266233751    -1.482327670518     0.424166208564    12.000000000000
         C           -0.545158766249     1.154695329482     0.607918208564    12.000000000000
         C           -1.306233766249    -0.024762670518     0.036190208564    12.000000000000
         H            2.737259233751     1.175404329482    -0.616281791436     1.007825032230
         H            2.215077233751     0.833898329482     1.025397208564     1.007825032230
         H            1.583142233751    -0.867990670518    -1.442943791436     1.007825032230
         H            2.766945233751    -1.224152670518    -0.184422791436     1.007825032230
         H            0.366947233751     1.540274329482    -1.312707791436     1.007825032230
         H            0.891434233751     2.620669329482    -0.031694791436     1.007825032230
         H            0.872965233751    -2.561635670518     0.321906208564     1.007825032230
         H            0.833134233751    -1.253626670518     1.493654208564     1.007825032230
         H           -1.275530766249     1.964892329482     0.666668208564     1.007825032230
         H           -0.211548766249     0.933909329482     1.630940208564     1.007825032230
         H           -1.168508766249    -1.965611670518    -0.437384791436     1.007825032230

  Basis Set: AUG-CC-PVTZ
    Blend: AUG-CC-PVTZ
  Basis Set: (AUG-CC-PVTZ AUX)
    Blend: AUG-CC-PVTZ-JKFIT
	 Reference Energy          =    -363.0720254358799934 [Eh]
	 Singles Energy            =      -0.0000000000000000 [Eh]
	 Same-Spin Energy          =      -0.3779974949992715 [Eh]
	 Opposite-Spin Energy      =      -1.2480761823582476 [Eh]
	 Correlation Energy        =      -1.6260736773575191 [Eh]
	 Total Energy              =    -364.6980991132375038 [Eh]

	 ================> DF-SCS-MP2 Energies <==================
	-----------------------------------------------------------
	 SCS Same-Spin Scale       =       0.3333333333333333 [-]
	 SCS Opposite-Spin Scale   =       1.2000000000000000 [-]
	 SCS Same-Spin Energy      =      -0.1259991649997572 [Eh]
	 SCS Opposite-Spin Energy  =      -1.4976914188298971 [Eh]
	 SCS Correlation Energy    =      -1.6236905838296543 [Eh]
	 SCS Total Energy          =    -364.6957160197096641 [Eh]
	-----------------------------------------------------------

  Dipole Moment: [D]
     X:     4.0590      Y:    -1.0398      Z:     0.9107     Total:     4.2879

*** Psi4 exiting successfully. Buy a developer a beer!
