                               Psi4 1.3.2 release

  ==> Input File <==

--------------------------------------------------------------------------
#psi4
#
memory 32 gb

molecule  {
0 1
  O       -2.5416370     0.0659770    -0.3927070
  N       -0.7122740    -1.2241950    -0.0249760
  C        1.8380290     0.7314390    -0.0343340
  C        1.7187040    -0.7521010    -0.3806110
  C        0.5749500     1.5632640    -0.2598230
  C        0.6466580    -1.4925250     0.4187290
  C       -0.6257670     1.1444980     0.6024810
  C       -1.3868420    -0.0349600     0.0307530
  H        2.6566510     1.1652070    -0.6217190
  H        2.1344690     0.8237010     1.0199600
  H        1.5025340    -0.8781880    -1.4483810
  H        2.6863370    -1.2343500    -0.1898600
  H        0.2863390     1.5300770    -1.3181450
  H        0.8108260     2.6104720    -0.0371320
  H        0.7923570    -2.5718330     0.3164690
  H        0.7525260    -1.2638240     1.4882170
  H       -1.3561390     1.9546950     0.6612310
  H       -0.2921570     0.9237120     1.6255030
  H       -1.3020724    -2.0499499    -0.4840392
units angstrom
no_reorient  #important for SAPT in psi4, default
symmetry c1  #important for SAPT in psi4, default
}

set PROPERTIES_ORIGIN ["COM"]
properties('MP2/aug-cc-pvtz', properties = ['dipole'])
--------------------------------------------------------------------------

    Molecular point group: c1
  Charge       = 0
  Multiplicity = 1
  Basis Set: AUG-CC-PVTZ
    Blend: AUG-CC-PVTZ
  Basis Set: (AUG-CC-PVTZ AUX)
    Blend: AUG-CC-PVTZ-JKFIT

    Orbital Energies [Eh]
    ---------------------

    Doubly Occupied:

       1A    -20.508009     2A    -15.586700     3A    -11.342577
       4A    -11.276978     5A    -11.236568     6A    -11.235983
       7A    -11.233980     8A    -11.232754     9A     -1.361483
      10A     -1.220241    11A     -1.091874    12A     -1.041773
      13A     -0.941652    14A     -0.887542    15A     -0.793898
      16A     -0.748253    17A     -0.685564    18A     -0.674746
      19A     -0.622949    20A     -0.609388    21A     -0.600258
      22A     -0.591238    23A     -0.568925    24A     -0.542214
      25A     -0.517729    26A     -0.513988    27A     -0.480781
      28A     -0.469846    29A     -0.468961    30A     -0.409945
      31A     -0.380899

  @DF-RHF Final Energy:  -363.06491007297427

   => Energetics <=

    Nuclear Repulsion Energy =            393.5042654373965547
    One-Electron Energy =               -1273.3829588605315166
    Two-Electron Energy =                 516.8137833501607474
    Total Energy =                       -363.0649100729742713
  Basis Set: (AUG-CC-PVTZ AUX)
    Blend: AUG-CC-PVTZ-RI
    Molecular point group: c1

    Geometry (in Angstrom), charge = 0, multiplicity = 1:

       Center              X                  Y                   Z               Mass
    ------------   -----------------  -----------------  -----------------  -----------------
         O           -2.464712088263     0.076183535509    -0.383115089975    15.994914619570
         N           -0.635349088263    -1.213988464491    -0.015384089975    14.003074004430
         C            1.914953911737     0.741645535509    -0.024742089975    12.000000000000
         C            1.795628911737    -0.741894464491    -0.371019089975    12.000000000000
         C            0.651874911737     1.573470535509    -0.250231089975    12.000000000000
         C            0.723582911737    -1.482318464491     0.428320910025    12.000000000000
         C           -0.548842088263     1.154704535509     0.612072910025    12.000000000000
         C           -1.309917088263    -0.024753464491     0.040344910025    12.000000000000
         H            2.733575911737     1.175413535509    -0.612127089975     1.007825032230
         H            2.211393911737     0.833907535509     1.029551910025     1.007825032230
         H            1.579458911737    -0.867981464491    -1.438789089975     1.007825032230
         H            2.763261911737    -1.224143464491    -0.180268089975     1.007825032230
         H            0.363263911737     1.540283535509    -1.308553089975     1.007825032230
         H            0.887750911737     2.620678535509    -0.027540089975     1.007825032230
         H            0.869281911737    -2.561626464491     0.326060910025     1.007825032230
         H            0.829450911737    -1.253617464491     1.497808910025     1.007825032230
         H           -1.279214088263     1.964901535509     0.670822910025     1.007825032230
         H           -0.215232088263     0.933918535509     1.635094910025     1.007825032230
         H           -1.225147488263    -2.039743364491    -0.474447289975     1.007825032230

  Basis Set: AUG-CC-PVTZ
    Blend: AUG-CC-PVTZ
  Basis Set: (AUG-CC-PVTZ AUX)
    Blend: AUG-CC-PVTZ-JKFIT
	 Reference Energy          =    -363.0649100729742713 [Eh]
	 Singles Energy            =      -0.0000000000000000 [Eh]
	 Same-Spin Energy          =      -0.3785439349932254 [Eh]
	 Opposite-Spin Energy      =      -1.2496688736816319 [Eh]
	 Correlation Energy        =      -1.6282128086748573 [Eh]
	 Total Energy              =    -364.6931228816491171 [Eh]

	 ================> DF-SCS-MP2 Energies <==================
	-----------------------------------------------------------
	 SCS Same-Spin Scale       =       0.3333333333333333 [-]
	 SCS Opposite-Spin Scale   =       1.2000000000000000 [-]
	 SCS Same-Spin Energy      =      -0.1261813116644084 [Eh]
	 SCS Opposite-Spin Energy  =      -1.4996026484179583 [Eh]
	 SCS Correlation Energy    =      -1.6257839600823667 [Eh]
	 SCS Total Energy          =    -364.6906940330566158 [Eh]
	-----------------------------------------------------------

  Dipole Moment: [D]
     X:     4.0374      Y:    -1.1017      Z:     0.8647     Total:     4.2734

*** Psi4 exiting successfully. Buy a developer a beer!
