                               Psi4 1.3.2 release

  ==> Input File <==

--------------------------------------------------------------------------
#psi4
#
memory 32 gb

molecule  {
0 1
  O       -2.5412621     0.0451398    -0.3981484
  N       -0.7122740    -1.2241950    -0.0249760
  C        1.8380290     0.7314390    -0.0343340
  C        1.7187040    -0.7521010    -0.3806110
  C        0.5749500     1.5632640    -0.2598230
  C        0.6466580    -1.4925250     0.4187290
  C       -0.6257670     1.1444980     0.6024810
  C       -1.3868420    -0.0349600     0.0307530
  H        2.6566510     1.1652070    -0.6217190
  H        2.1344690     0.8237010     1.0199600
  H        1.5025340    -0.8781880    -1.4483810
  H        2.6863370    -1.2343500    -0.1898600
  H        0.2863390     1.5300770    -1.3181450
  H        0.8108260     2.6104720    -0.0371320
  H        0.7923570    -2.5718330     0.3164690
  H        0.7525260    -1.2638240     1.4882170
  H       -1.3561390     1.9546950     0.6612310
  H       -0.2921570     0.9237120     1.6255030
  H       -1.2491170    -1.9758090    -0.4428220
units angstrom
no_reorient  #important for SAPT in psi4, default
symmetry c1  #important for SAPT in psi4, default
}

set PROPERTIES_ORIGIN ["COM"]
properties('MP2/aug-cc-pvtz', properties = ['dipole'])
--------------------------------------------------------------------------

    Molecular point group: c1
  Charge       = 0
  Multiplicity = 1
  Basis Set: AUG-CC-PVTZ
    Blend: AUG-CC-PVTZ
  Basis Set: (AUG-CC-PVTZ AUX)
    Blend: AUG-CC-PVTZ-JKFIT

    Orbital Energies [Eh]
    ---------------------

    Doubly Occupied:

       1A    -20.508797     2A    -15.577549     3A    -11.343034
       4A    -11.276736     5A    -11.237433     6A    -11.236808
       7A    -11.234212     8A    -11.233178     9A     -1.363721
      10A     -1.227074    11A     -1.094177    12A     -1.042419
      13A     -0.945494    14A     -0.888519    15A     -0.795487
      16A     -0.763835    17A     -0.687667    18A     -0.676837
      19A     -0.626085    20A     -0.611836    21A     -0.602027
      22A     -0.591792    23A     -0.570321    24A     -0.545073
      25A     -0.519510    26A     -0.515744    27A     -0.481351
      28A     -0.470867    29A     -0.469613    30A     -0.411053
      31A     -0.381839

  @DF-RHF Final Energy:  -363.07538835254866

   => Energetics <=

    Nuclear Repulsion Energy =            394.0961289554574591
    One-Electron Energy =               -1274.4828596648262646
    Two-Electron Energy =                 517.3113423568200915
    Total Energy =                       -363.0753883525486572
  Basis Set: (AUG-CC-PVTZ AUX)
    Blend: AUG-CC-PVTZ-RI
    Molecular point group: c1

    Geometry (in Angstrom), charge = 0, multiplicity = 1:

       Center              X                  Y                   Z               Mass
    ------------   -----------------  -----------------  -----------------  -----------------
         O           -2.464862162951     0.057632848488    -0.388154178624    15.994914619570
         N           -0.635874062951    -1.211701951512    -0.014981778624    14.003074004430
         C            1.914428937049     0.743932048488    -0.024339778624    12.000000000000
         C            1.795103937049    -0.739607951512    -0.370616778624    12.000000000000
         C            0.651349937049     1.575757048488    -0.249828778624    12.000000000000
         C            0.723057937049    -1.480031951512     0.428723221376    12.000000000000
         C           -0.549367062951     1.156991048488     0.612475221376    12.000000000000
         C           -1.310442062951    -0.022466951512     0.040747221376    12.000000000000
         H            2.733050937049     1.177700048488    -0.611724778624     1.007825032230
         H            2.210868937049     0.836194048488     1.029954221376     1.007825032230
         H            1.578933937049    -0.865694951512    -1.438386778624     1.007825032230
         H            2.762736937049    -1.221856951512    -0.179865778624     1.007825032230
         H            0.362738937049     1.542570048488    -1.308150778624     1.007825032230
         H            0.887225937049     2.622965048488    -0.027137778624     1.007825032230
         H            0.868756937049    -2.559339951512     0.326463221376     1.007825032230
         H            0.828925937049    -1.251330951512     1.498211221376     1.007825032230
         H           -1.279739062951     1.967188048488     0.671225221376     1.007825032230
         H           -0.215757062951     0.936205048488     1.635497221376     1.007825032230
         H           -1.172717062951    -1.963315951512    -0.432827778624     1.007825032230

  Basis Set: AUG-CC-PVTZ
    Blend: AUG-CC-PVTZ
  Basis Set: (AUG-CC-PVTZ AUX)
    Blend: AUG-CC-PVTZ-JKFIT
	 Reference Energy          =    -363.0753883525486572 [Eh]
	 Singles Energy            =      -0.0000000000000000 [Eh]
	 Same-Spin Energy          =      -0.3777327952079493 [Eh]
	 Opposite-Spin Energy      =      -1.2476590443168130 [Eh]
	 Correlation Energy        =      -1.6253918395247622 [Eh]
	 Total Energy              =    -364.7007801920734096 [Eh]

	 ================> DF-SCS-MP2 Energies <==================
	-----------------------------------------------------------
	 SCS Same-Spin Scale       =       0.3333333333333333 [-]
	 SCS Opposite-Spin Scale   =       1.2000000000000000 [-]
	 SCS Same-Spin Energy      =      -0.1259109317359831 [Eh]
	 SCS Opposite-Spin Energy  =      -1.4971908531801754 [Eh]
	 SCS Correlation Energy    =      -1.6231017849161584 [Eh]
	 SCS Total Energy          =    -364.6984901374648302 [Eh]
	-----------------------------------------------------------

  Dipole Moment: [D]
     X:     4.0741      Y:    -0.9772      Z:     0.9097     Total:     4.2873

*** Psi4 exiting successfully. Buy a developer a beer!
