                               Psi4 1.4a3.dev225

  ==> Input File <==

--------------------------------------------------------------------------
#psi4
#
memory 32 gb

molecule  {
0 1
  O       -2.5416370     0.0659770    -0.3927070
  N       -0.7122740    -1.2241950    -0.0249760
  C        1.8380290     0.7314390    -0.0343340
  C        1.7187040    -0.7521010    -0.3806110
  C        0.5749500     1.5632640    -0.2598230
  C        0.6466580    -1.4925250     0.4187290
  C       -0.6257670     1.1444980     0.6024810
  C       -1.3868420    -0.0349600     0.0307530
  H        2.6566510     1.1652070    -0.6217190
  H        2.1344690     0.8237010     1.0199600
  H        1.5025340    -0.8781880    -1.4483810
  H        2.6863370    -1.2343500    -0.1898600
  H        0.2863390     1.5300770    -1.3181450
  H        0.8108260     2.6104720    -0.0371320
  H        0.7923570    -2.5718330     0.3164690
  H        0.7525260    -1.2638240     1.4882170
  H       -1.3561390     1.9546950     0.6612310
  H       -0.2921570     0.9237120     1.6255030
  H       -1.2226393    -1.9387386    -0.4222134
units angstrom
no_reorient  #important for SAPT in psi4, default
symmetry c1  #important for SAPT in psi4, default
}

set PROPERTIES_ORIGIN ["COM"]
properties('MP2/aug-cc-pvtz', properties = ['dipole'])
--------------------------------------------------------------------------

    Molecular point group: c1
  Charge       = 0
  Multiplicity = 1
  Basis Set: AUG-CC-PVTZ
    Blend: AUG-CC-PVTZ
  Basis Set: (AUG-CC-PVTZ AUX)
    Blend: AUG-CC-PVTZ-JKFIT

    Orbital Energies [Eh]
    ---------------------

    Doubly Occupied:

       1A    -20.509629     2A    -15.574056     3A    -11.343318
       4A    -11.277544     5A    -11.236773     6A    -11.235964
       7A    -11.234568     8A    -11.233210     9A     -1.364649
      10A     -1.233434    11A     -1.095237    12A     -1.042438
      13A     -0.947805    14A     -0.889143    15A     -0.796978
      16A     -0.772570    17A     -0.689106    18A     -0.677709
      19A     -0.627945    20A     -0.612956    21A     -0.602429
      22A     -0.592149    23A     -0.570602    24A     -0.546547
      25A     -0.520329    26A     -0.516301    27A     -0.481470
      28A     -0.470904    29A     -0.469634    30A     -0.410928
      31A     -0.383799

  @DF-RHF Final Energy:  -363.07512140786173

   => Energetics <=

    Nuclear Repulsion Energy =            394.4069548833743397
    One-Electron Energy =               -1275.0439029074773316
    Two-Electron Energy =                 517.5618266162413192
    Total Energy =                       -363.0751214078617295
  Basis Set: (AUG-CC-PVTZ AUX)
    Blend: AUG-CC-PVTZ-RI
    Molecular point group: c1

    Geometry (in Angstrom), charge = 0, multiplicity = 1:

       Center              X                  Y                   Z               Mass
    ------------   -----------------  -----------------  -----------------  -----------------
         O           -2.465420009996     0.075192400878    -0.383666092359    15.994914619570
         N           -0.636057009996    -1.214979599122    -0.015935092359    14.003074004430
         C            1.914245990004     0.740654400878    -0.025293092359    12.000000000000
         C            1.794920990004    -0.742885599122    -0.371570092359    12.000000000000
         C            0.651166990004     1.572479400878    -0.250782092359    12.000000000000
         C            0.722874990004    -1.483309599122     0.427769907641    12.000000000000
         C           -0.549550009996     1.153713400878     0.611521907641    12.000000000000
         C           -1.310625009996    -0.025744599122     0.039793907641    12.000000000000
         H            2.732867990004     1.174422400878    -0.612678092359     1.007825032230
         H            2.210685990004     0.832916400878     1.029000907641     1.007825032230
         H            1.578750990004    -0.868972599122    -1.439340092359     1.007825032230
         H            2.762553990004    -1.225134599122    -0.180819092359     1.007825032230
         H            0.362555990004     1.539292400878    -1.309104092359     1.007825032230
         H            0.887042990004     2.619687400878    -0.028091092359     1.007825032230
         H            0.868573990004    -2.562617599122     0.325509907641     1.007825032230
         H            0.828742990004    -1.254608599122     1.497257907641     1.007825032230
         H           -1.279922009996     1.963910400878     0.670271907641     1.007825032230
         H           -0.215940009996     0.932927400878     1.634543907641     1.007825032230
         H           -1.146422309996    -1.929523199122    -0.413172492359     1.007825032230

  Basis Set: AUG-CC-PVTZ
    Blend: AUG-CC-PVTZ
  Basis Set: (AUG-CC-PVTZ AUX)
    Blend: AUG-CC-PVTZ-JKFIT
	 Reference Energy          =    -363.0751214078617295 [Eh]
	 Singles Energy            =      -0.0000000000000000 [Eh]
	 Same-Spin Energy          =      -0.3773377891304916 [Eh]
	 Opposite-Spin Energy      =      -1.2467981425500509 [Eh]
	 Correlation Energy        =      -1.6241359316805426 [Eh]
	 Total Energy              =    -364.6992573395422710 [Eh]

	 ================> DF-SCS-MP2 Energies <==================
	-----------------------------------------------------------
	 SCS Same-Spin Scale       =       0.3333333333333333 [-]
	 SCS Opposite-Spin Scale   =       1.2000000000000000 [-]
	 SCS Same-Spin Energy      =      -0.1257792630434972 [Eh]
	 SCS Opposite-Spin Energy  =      -1.4961577710600611 [Eh]
	 SCS Correlation Energy    =      -1.6219370341035584 [Eh]
	 SCS Total Energy          =    -364.6970584419652823 [Eh]
	-----------------------------------------------------------

  Dipole Moment: [D]
     X:     4.0902      Y:    -1.0013      Z:     0.9120     Total:     4.3086

*** Psi4 exiting successfully. Buy a developer a beer!
