                               Psi4 1.3.2 release

  ==> Input File <==

--------------------------------------------------------------------------
#psi4
#
memory 32 gb

molecule  {
0 1
  O       -2.5416370     0.0659770    -0.3927070
  N       -0.7122740    -1.2241950    -0.0249760
  C        1.8380290     0.7314390    -0.0343340
  C        1.8001622    -0.7390396    -0.4482130
  C        0.5749500     1.5632640    -0.2598230
  C        0.6466580    -1.4925250     0.4187290
  C       -0.6257670     1.1444980     0.6024810
  C       -1.3868420    -0.0349600     0.0307530
  H        2.6566510     1.1652070    -0.6217190
  H        2.1344690     0.8237010     1.0199600
  H        1.5025340    -0.8781880    -1.4483810
  H        2.6863370    -1.2343500    -0.1898600
  H        0.2863390     1.5300770    -1.3181450
  H        0.8108260     2.6104720    -0.0371320
  H        0.7923570    -2.5718330     0.3164690
  H        0.7525260    -1.2638240     1.4882170
  H       -1.3561390     1.9546950     0.6612310
  H       -0.2921570     0.9237120     1.6255030
  H       -1.2491170    -1.9758090    -0.4428220
units angstrom
no_reorient  #important for SAPT in psi4, default
symmetry c1  #important for SAPT in psi4, default
}

set PROPERTIES_ORIGIN ["COM"]
properties('MP2/aug-cc-pvtz', properties = ['dipole'])
--------------------------------------------------------------------------

    Molecular point group: c1
  Charge       = 0
  Multiplicity = 1
  Basis Set: AUG-CC-PVTZ
    Blend: AUG-CC-PVTZ
  Basis Set: (AUG-CC-PVTZ AUX)
    Blend: AUG-CC-PVTZ-JKFIT

    Orbital Energies [Eh]
    ---------------------

    Doubly Occupied:

       1A    -20.508898     2A    -15.579108     3A    -11.342643
       4A    -11.278707     5A    -11.237601     6A    -11.235859
       7A    -11.232911     8A    -11.231794     9A     -1.363160
      10A     -1.225237    11A     -1.092425    12A     -1.036303
      13A     -0.939137    14A     -0.892859    15A     -0.800239
      16A     -0.762635    17A     -0.686387    18A     -0.674247
      19A     -0.624214    20A     -0.613835    21A     -0.603614
      22A     -0.588527    23A     -0.574745    24A     -0.538108
      25A     -0.522293    26A     -0.518078    27A     -0.487329
      28A     -0.478410    29A     -0.457226    30A     -0.410384
      31A     -0.376342

  @DF-RHF Final Energy:  -363.06610462430615

   => Energetics <=

    Nuclear Repulsion Energy =            392.6398694915076817
    One-Electron Energy =               -1271.5854403897603788
    Two-Electron Energy =                 515.8794662739466048
    Total Energy =                       -363.0661046243061492
  Basis Set: (AUG-CC-PVTZ AUX)
    Blend: AUG-CC-PVTZ-RI
    Molecular point group: c1

    Geometry (in Angstrom), charge = 0, multiplicity = 1:

       Center              X                  Y                   Z               Mass
    ------------   -----------------  -----------------  -----------------  -----------------
         O           -2.473828033883     0.074136758565    -0.376308788123    15.994914619570
         N           -0.644465033883    -1.216035241435    -0.008577788123    14.003074004430
         C            1.905837966117     0.739598758565    -0.017935788123    12.000000000000
         C            1.867971166117    -0.730879841435    -0.431814788123    12.000000000000
         C            0.642758966117     1.571423758565    -0.243424788123    12.000000000000
         C            0.714466966117    -1.484365241435     0.435127211877    12.000000000000
         C           -0.557958033883     1.152657758565     0.618879211877    12.000000000000
         C           -1.319033033883    -0.026800241435     0.047151211877    12.000000000000
         H            2.724459966117     1.173366758565    -0.605320788123     1.007825032230
         H            2.202277966117     0.831860758565     1.036358211877     1.007825032230
         H            1.570342966117    -0.870028241435    -1.431982788123     1.007825032230
         H            2.754145966117    -1.226190241435    -0.173461788123     1.007825032230
         H            0.354147966117     1.538236758565    -1.301746788123     1.007825032230
         H            0.878634966117     2.618631758565    -0.020733788123     1.007825032230
         H            0.860165966117    -2.563673241435     0.332867211877     1.007825032230
         H            0.820334966117    -1.255664241435     1.504615211877     1.007825032230
         H           -1.288330033883     1.962854758565     0.677629211877     1.007825032230
         H           -0.224348033883     0.931871758565     1.641901211877     1.007825032230
         H           -1.181308033883    -1.967649241435    -0.426423788123     1.007825032230

  Basis Set: AUG-CC-PVTZ
    Blend: AUG-CC-PVTZ
  Basis Set: (AUG-CC-PVTZ AUX)
    Blend: AUG-CC-PVTZ-JKFIT
	 Reference Energy          =    -363.0661046243061492 [Eh]
	 Singles Energy            =      -0.0000000000000000 [Eh]
	 Same-Spin Energy          =      -0.3775100014458309 [Eh]
	 Opposite-Spin Energy      =      -1.2478557740253171 [Eh]
	 Correlation Energy        =      -1.6253657754711481 [Eh]
	 Total Energy              =    -364.6914703997773017 [Eh]

	 ================> DF-SCS-MP2 Energies <==================
	-----------------------------------------------------------
	 SCS Same-Spin Scale       =       0.3333333333333333 [-]
	 SCS Opposite-Spin Scale   =       1.2000000000000000 [-]
	 SCS Same-Spin Energy      =      -0.1258366671486103 [Eh]
	 SCS Opposite-Spin Energy  =      -1.4974269288303805 [Eh]
	 SCS Correlation Energy    =      -1.6232635959789907 [Eh]
	 SCS Total Energy          =    -364.6893682202851323 [Eh]
	-----------------------------------------------------------

  Dipole Moment: [D]
     X:     4.0604      Y:    -1.0355      Z:     0.8810     Total:     4.2820

*** Psi4 exiting successfully. Buy a developer a beer!
