                               Psi4 1.3.2 release

  ==> Input File <==

--------------------------------------------------------------------------
#psi4
#
memory 32 gb

molecule  {
0 1
  O       -2.5416370     0.0659770    -0.3927070
  N       -0.7122740    -1.2241950    -0.0249760
  C        1.8380290     0.7314390    -0.0343340
  C        1.7265128    -0.6550159    -0.3579501
  C        0.5749500     1.5632640    -0.2598230
  C        0.6466580    -1.4925250     0.4187290
  C       -0.6257670     1.1444980     0.6024810
  C       -1.3868420    -0.0349600     0.0307530
  H        2.6566510     1.1652070    -0.6217190
  H        2.1344690     0.8237010     1.0199600
  H        1.5025340    -0.8781880    -1.4483810
  H        2.6863370    -1.2343500    -0.1898600
  H        0.2863390     1.5300770    -1.3181450
  H        0.8108260     2.6104720    -0.0371320
  H        0.7923570    -2.5718330     0.3164690
  H        0.7525260    -1.2638240     1.4882170
  H       -1.3561390     1.9546950     0.6612310
  H       -0.2921570     0.9237120     1.6255030
  H       -1.2491170    -1.9758090    -0.4428220
units angstrom
no_reorient  #important for SAPT in psi4, default
symmetry c1  #important for SAPT in psi4, default
}

set PROPERTIES_ORIGIN ["COM"]
properties('MP2/aug-cc-pvtz', properties = ['dipole'])
--------------------------------------------------------------------------

    Molecular point group: c1
  Charge       = 0
  Multiplicity = 1
  Basis Set: AUG-CC-PVTZ
    Blend: AUG-CC-PVTZ
  Basis Set: (AUG-CC-PVTZ AUX)
    Blend: AUG-CC-PVTZ-JKFIT

    Orbital Energies [Eh]
    ---------------------

    Doubly Occupied:

       1A    -20.509072     2A    -15.578230     3A    -11.343065
       4A    -11.279609     5A    -11.238686     6A    -11.237406
       7A    -11.236648     8A    -11.229271     9A     -1.363426
      10A     -1.227568    11A     -1.105631    12A     -1.041658
      13A     -0.945886    14A     -0.892259    15A     -0.790723
      16A     -0.764586    17A     -0.686689    18A     -0.678722
      19A     -0.630302    20A     -0.613905    21A     -0.605634
      22A     -0.592241    23A     -0.567599    24A     -0.542474
      25A     -0.523821    26A     -0.510335    27A     -0.492402
      28A     -0.466292    29A     -0.464092    30A     -0.410656
      31A     -0.378376

  @DF-RHF Final Energy:  -363.06379665769941

   => Energetics <=

    Nuclear Repulsion Energy =            394.8732074560451792
    One-Electron Energy =               -1275.9794830203068159
    Two-Electron Energy =                 518.0424789065622235
    Total Energy =                       -363.0637966576994131
  Basis Set: (AUG-CC-PVTZ AUX)
    Blend: AUG-CC-PVTZ-RI
    Molecular point group: c1

    Geometry (in Angstrom), charge = 0, multiplicity = 1:

       Center              X                  Y                   Z               Mass
    ------------   -----------------  -----------------  -----------------  -----------------
         O           -2.466012672735     0.065220520816    -0.385887103244    15.994914619570
         N           -0.636649672735    -1.224951479184    -0.018156103244    14.003074004430
         C            1.913653327265     0.730682520816    -0.027514103244    12.000000000000
         C            1.802137127265    -0.655772379184    -0.351130203244    12.000000000000
         C            0.650574327265     1.562507520816    -0.253003103244    12.000000000000
         C            0.722282327265    -1.493281479184     0.425548896756    12.000000000000
         C           -0.550142672735     1.143741520816     0.609300896756    12.000000000000
         C           -1.311217672735    -0.035716479184     0.037572896756    12.000000000000
         H            2.732275327265     1.164450520816    -0.614899103244     1.007825032230
         H            2.210093327265     0.822944520816     1.026779896756     1.007825032230
         H            1.578158327265    -0.878944479184    -1.441561103244     1.007825032230
         H            2.761961327265    -1.235106479184    -0.183040103244     1.007825032230
         H            0.361963327265     1.529320520816    -1.311325103244     1.007825032230
         H            0.886450327265     2.609715520816    -0.030312103244     1.007825032230
         H            0.867981327265    -2.572589479184     0.323288896756     1.007825032230
         H            0.828150327265    -1.264580479184     1.495036896756     1.007825032230
         H           -1.280514672735     1.953938520816     0.668050896756     1.007825032230
         H           -0.216532672735     0.922955520816     1.632322896756     1.007825032230
         H           -1.173492672735    -1.976565479184    -0.436002103244     1.007825032230

  Basis Set: AUG-CC-PVTZ
    Blend: AUG-CC-PVTZ
  Basis Set: (AUG-CC-PVTZ AUX)
    Blend: AUG-CC-PVTZ-JKFIT
	 Reference Energy          =    -363.0637966576994131 [Eh]
	 Singles Energy            =      -0.0000000000000000 [Eh]
	 Same-Spin Energy          =      -0.3786376386633181 [Eh]
	 Opposite-Spin Energy      =      -1.2489126311701733 [Eh]
	 Correlation Energy        =      -1.6275502698334914 [Eh]
	 Total Energy              =    -364.6913469275328907 [Eh]

	 ================> DF-SCS-MP2 Energies <==================
	-----------------------------------------------------------
	 SCS Same-Spin Scale       =       0.3333333333333333 [-]
	 SCS Opposite-Spin Scale   =       1.2000000000000000 [-]
	 SCS Same-Spin Energy      =      -0.1262125462211060 [Eh]
	 SCS Opposite-Spin Energy  =      -1.4986951574042078 [Eh]
	 SCS Correlation Energy    =      -1.6249077036253139 [Eh]
	 SCS Total Energy          =    -364.6887043613247101 [Eh]
	-----------------------------------------------------------

  Dipole Moment: [D]
     X:     4.0585      Y:    -0.9994      Z:     0.9175     Total:     4.2793

*** Psi4 exiting successfully. Buy a developer a beer!
