                               Psi4 1.3.2 release

  ==> Input File <==

--------------------------------------------------------------------------
#psi4
#
memory 32 gb

molecule  {
0 1
  O       -2.5416370     0.0659770    -0.3927070
  N       -0.7122740    -1.2241950    -0.0249760
  C        1.8380290     0.7314390    -0.0343340
  C        1.7187040    -0.7521010    -0.3806110
  C        0.5749500     1.5632640    -0.2598230
  C        0.6466580    -1.4925250     0.4187290
  C       -0.6257670     1.1444980     0.6024810
  C       -1.2973500    -0.0910239     0.0370687
  H        2.6566510     1.1652070    -0.6217190
  H        2.1344690     0.8237010     1.0199600
  H        1.5025340    -0.8781880    -1.4483810
  H        2.6863370    -1.2343500    -0.1898600
  H        0.2863390     1.5300770    -1.3181450
  H        0.8108260     2.6104720    -0.0371320
  H        0.7923570    -2.5718330     0.3164690
  H        0.7525260    -1.2638240     1.4882170
  H       -1.3561390     1.9546950     0.6612310
  H       -0.2921570     0.9237120     1.6255030
  H       -1.2491170    -1.9758090    -0.4428220
units angstrom
no_reorient  #important for SAPT in psi4, default
symmetry c1  #important for SAPT in psi4, default
}

set PROPERTIES_ORIGIN ["COM"]
properties('MP2/aug-cc-pvtz', properties = ['dipole'])
--------------------------------------------------------------------------

    Molecular point group: c1
  Charge       = 0
  Multiplicity = 1
  Basis Set: AUG-CC-PVTZ
    Blend: AUG-CC-PVTZ
  Basis Set: (AUG-CC-PVTZ AUX)
    Blend: AUG-CC-PVTZ-JKFIT

    Orbital Energies [Eh]
    ---------------------

    Doubly Occupied:

       1A    -20.485153     2A    -15.598242     3A    -11.338984
       4A    -11.287234     5A    -11.241974     6A    -11.238295
       7A    -11.237062     8A    -11.236462     9A     -1.334370
      10A     -1.231033    11A     -1.100944    12A     -1.047613
      13A     -0.955434    14A     -0.898857    15A     -0.802839
      16A     -0.785141    17A     -0.700285    18A     -0.670486
      19A     -0.635186    20A     -0.619154    21A     -0.605840
      22A     -0.579960    23A     -0.573780    24A     -0.533847
      25A     -0.520085    26A     -0.507217    27A     -0.484447
      28A     -0.473604    29A     -0.467370    30A     -0.392811
      31A     -0.377056

  @DF-RHF Final Energy:  -363.05492114674195

   => Energetics <=

    Nuclear Repulsion Energy =            394.7383140361691289
    One-Electron Energy =               -1275.6649403083395100
    Two-Electron Energy =                 517.8717051254283206
    Total Energy =                       -363.0549211467420037
  Basis Set: (AUG-CC-PVTZ AUX)
    Blend: AUG-CC-PVTZ-RI
    Molecular point group: c1

    Geometry (in Angstrom), charge = 0, multiplicity = 1:

       Center              X                  Y                   Z               Mass
    ------------   -----------------  -----------------  -----------------  -----------------
         O           -2.474680546576     0.081472041458    -0.384152620125    15.994914619570
         N           -0.645317546576    -1.208699958542    -0.016421620125    14.003074004430
         C            1.904985453424     0.746934041458    -0.025779620125    12.000000000000
         C            1.785660453424    -0.736605958542    -0.372056620125    12.000000000000
         C            0.641906453424     1.578759041458    -0.251268620125    12.000000000000
         C            0.713614453424    -1.477029958542     0.427283379875    12.000000000000
         C           -0.558810546576     1.159993041458     0.611035379875    12.000000000000
         C           -1.230393546576    -0.075528858542     0.045623079875    12.000000000000
         H            2.723607453424     1.180702041458    -0.613164620125     1.007825032230
         H            2.201425453424     0.839196041458     1.028514379875     1.007825032230
         H            1.569490453424    -0.862692958542    -1.439826620125     1.007825032230
         H            2.753293453424    -1.218854958542    -0.181305620125     1.007825032230
         H            0.353295453424     1.545572041458    -1.309590620125     1.007825032230
         H            0.877782453424     2.625967041458    -0.028577620125     1.007825032230
         H            0.859313453424    -2.556337958542     0.325023379875     1.007825032230
         H            0.819482453424    -1.248328958542     1.496771379875     1.007825032230
         H           -1.289182546576     1.970190041458     0.669785379875     1.007825032230
         H           -0.225200546576     0.939207041458     1.634057379875     1.007825032230
         H           -1.182160546576    -1.960313958542    -0.434267620125     1.007825032230

  Basis Set: AUG-CC-PVTZ
    Blend: AUG-CC-PVTZ
  Basis Set: (AUG-CC-PVTZ AUX)
    Blend: AUG-CC-PVTZ-JKFIT
	 Reference Energy          =    -363.0549211467419468 [Eh]
	 Singles Energy            =      -0.0000000000000000 [Eh]
	 Same-Spin Energy          =      -0.3792403061705294 [Eh]
	 Opposite-Spin Energy      =      -1.2505293385733243 [Eh]
	 Correlation Energy        =      -1.6297696447438537 [Eh]
	 Total Energy              =    -364.6846907914858207 [Eh]

	 ================> DF-SCS-MP2 Energies <==================
	-----------------------------------------------------------
	 SCS Same-Spin Scale       =       0.3333333333333333 [-]
	 SCS Opposite-Spin Scale   =       1.2000000000000000 [-]
	 SCS Same-Spin Energy      =      -0.1264134353901765 [Eh]
	 SCS Opposite-Spin Energy  =      -1.5006352062879891 [Eh]
	 SCS Correlation Energy    =      -1.6270486416781655 [Eh]
	 SCS Total Energy          =    -364.6819697884201332 [Eh]
	-----------------------------------------------------------

  Dipole Moment: [D]
     X:     4.8968      Y:    -1.5150      Z:     1.0407     Total:     5.2304

*** Psi4 exiting successfully. Buy a developer a beer!
