                               Psi4 1.3.2 release

  ==> Input File <==

--------------------------------------------------------------------------
#psi4
#
memory 32 gb

molecule  {
0 1
  O       -2.5416370     0.0659770    -0.3927070
  N       -0.7122740    -1.2241950    -0.0249760
  C        1.8380290     0.7314390    -0.0343340
  C        1.7187040    -0.7521010    -0.3806110
  C        0.5749500     1.5632640    -0.2598230
  C        0.6466580    -1.4925250     0.4187290
  C       -0.6257670     1.1444980     0.6024810
  C       -1.3868420    -0.0349600     0.0307530
  H        2.6566510     1.1652070    -0.6217190
  H        2.1344690     0.8237010     1.0199600
  H        1.5025340    -0.8781880    -1.4483810
  H        2.6863370    -1.2343500    -0.1898600
  H        0.2863390     1.5300770    -1.3181450
  H        0.8538573     2.8015161     0.0034939
  H        0.7923570    -2.5718330     0.3164690
  H        0.7525260    -1.2638240     1.4882170
  H       -1.3561390     1.9546950     0.6612310
  H       -0.2921570     0.9237120     1.6255030
  H       -1.2491170    -1.9758090    -0.4428220
units angstrom
no_reorient  #important for SAPT in psi4, default
symmetry c1  #important for SAPT in psi4, default
}

set PROPERTIES_ORIGIN ["COM"]
properties('MP2/aug-cc-pvtz', properties = ['dipole'])
--------------------------------------------------------------------------

    Molecular point group: c1
  Charge       = 0
  Multiplicity = 1
  Basis Set: AUG-CC-PVTZ
    Blend: AUG-CC-PVTZ
  Basis Set: (AUG-CC-PVTZ AUX)
    Blend: AUG-CC-PVTZ-JKFIT

    Orbital Energies [Eh]
    ---------------------

    Doubly Occupied:

       1A    -20.510790     2A    -15.580313     3A    -11.344908
       4A    -11.278763     5A    -11.259607     6A    -11.238314
       7A    -11.236373     8A    -11.235179     9A     -1.365102
      10A     -1.229916    11A     -1.092497    12A     -1.042465
      13A     -0.946244    14A     -0.882263    15A     -0.792753
      16A     -0.764792    17A     -0.687258    18A     -0.678569
      19A     -0.624018    20A     -0.611837    21A     -0.598245
      22A     -0.587003    23A     -0.568910    24A     -0.544895
      25A     -0.520272    26A     -0.514832    27A     -0.483033
      28A     -0.472618    29A     -0.455098    30A     -0.410433
      31A     -0.384184

  @DF-RHF Final Energy:  -363.05546954175111

   => Energetics <=

    Nuclear Repulsion Energy =            393.1653392900734616
    One-Electron Energy =               -1272.5586527940288306
    Two-Electron Energy =                 516.3378439622042606
    Total Energy =                       -363.0554695417511084
  Basis Set: (AUG-CC-PVTZ AUX)
    Blend: AUG-CC-PVTZ-RI
    Molecular point group: c1

    Geometry (in Angstrom), charge = 0, multiplicity = 1:

       Center              X                  Y                   Z               Mass
    ------------   -----------------  -----------------  -----------------  -----------------
         O           -2.465567538585     0.073820160231    -0.383844490051    15.994914619570
         N           -0.636204538585    -1.216351839769    -0.016113490051    14.003074004430
         C            1.914098461415     0.739282160231    -0.025471490051    12.000000000000
         C            1.794773461415    -0.744257839769    -0.371748490051    12.000000000000
         C            0.651019461415     1.571107160231    -0.250960490051    12.000000000000
         C            0.722727461415    -1.484681839769     0.427591509949    12.000000000000
         C           -0.549697538585     1.152341160231     0.611343509949    12.000000000000
         C           -1.310772538585    -0.027116839769     0.039615509949    12.000000000000
         H            2.732720461415     1.173050160231    -0.612856490051     1.007825032230
         H            2.210538461415     0.831544160231     1.028822509949     1.007825032230
         H            1.578603461415    -0.870344839769    -1.439518490051     1.007825032230
         H            2.762406461415    -1.226506839769    -0.180997490051     1.007825032230
         H            0.362408461415     1.537920160231    -1.309282490051     1.007825032230
         H            0.929926761415     2.809359260231     0.012356409949     1.007825032230
         H            0.868426461415    -2.563989839769     0.325331509949     1.007825032230
         H            0.828595461415    -1.255980839769     1.497079509949     1.007825032230
         H           -1.280069538585     1.962538160231     0.670093509949     1.007825032230
         H           -0.216087538585     0.931555160231     1.634365509949     1.007825032230
         H           -1.173047538585    -1.967965839769    -0.433959490051     1.007825032230

  Basis Set: AUG-CC-PVTZ
    Blend: AUG-CC-PVTZ
  Basis Set: (AUG-CC-PVTZ AUX)
    Blend: AUG-CC-PVTZ-JKFIT
	 Reference Energy          =    -363.0554695417511084 [Eh]
	 Singles Energy            =      -0.0000000000000000 [Eh]
	 Same-Spin Energy          =      -0.3778296548085806 [Eh]
	 Opposite-Spin Energy      =      -1.2494550623314935 [Eh]
	 Correlation Energy        =      -1.6272847171400742 [Eh]
	 Total Energy              =    -364.6827542588911797 [Eh]

	 ================> DF-SCS-MP2 Energies <==================
	-----------------------------------------------------------
	 SCS Same-Spin Scale       =       0.3333333333333333 [-]
	 SCS Opposite-Spin Scale   =       1.2000000000000000 [-]
	 SCS Same-Spin Energy      =      -0.1259432182695269 [Eh]
	 SCS Opposite-Spin Energy  =      -1.4993460747977922 [Eh]
	 SCS Correlation Energy    =      -1.6252892930673191 [Eh]
	 SCS Total Energy          =    -364.6807588348184481 [Eh]
	-----------------------------------------------------------

  Dipole Moment: [D]
     X:     4.0273      Y:    -1.2347      Z:     0.8867     Total:     4.3046

*** Psi4 exiting successfully. Buy a developer a beer!
