                               Psi4 1.3.2 release

  ==> Input File <==

--------------------------------------------------------------------------
#psi4
#
memory 32 gb

molecule  {
0 1
  O       -2.5416370     0.0659770    -0.3927070
  N       -0.7122740    -1.2241950    -0.0249760
  C        1.8380290     0.7314390    -0.0343340
  C        1.6503117    -0.6163786    -0.3306050
  C        0.5749500     1.5632640    -0.2598230
  C        0.6466580    -1.4925250     0.4187290
  C       -0.6257670     1.1444980     0.6024810
  C       -1.3868420    -0.0349600     0.0307530
  H        2.6566510     1.1652070    -0.6217190
  H        2.1344690     0.8237010     1.0199600
  H        1.5025340    -0.8781880    -1.4483810
  H        2.6863370    -1.2343500    -0.1898600
  H        0.2863390     1.5300770    -1.3181450
  H        0.8108260     2.6104720    -0.0371320
  H        0.7923570    -2.5718330     0.3164690
  H        0.7525260    -1.2638240     1.4882170
  H       -1.3561390     1.9546950     0.6612310
  H       -0.2921570     0.9237120     1.6255030
  H       -1.2491170    -1.9758090    -0.4428220
units angstrom
no_reorient  #important for SAPT in psi4, default
symmetry c1  #important for SAPT in psi4, default
}

set PROPERTIES_ORIGIN ["COM"]
properties('MP2/aug-cc-pvtz', properties = ['dipole'])
--------------------------------------------------------------------------

    Molecular point group: c1
  Charge       = 0
  Multiplicity = 1
  Basis Set: AUG-CC-PVTZ
    Blend: AUG-CC-PVTZ
  Basis Set: (AUG-CC-PVTZ AUX)
    Blend: AUG-CC-PVTZ-JKFIT

    Orbital Energies [Eh]
    ---------------------

    Doubly Occupied:

       1A    -20.509189     2A    -15.577298     3A    -11.343395
       4A    -11.280799     5A    -11.244317     6A    -11.237505
       7A    -11.236485     8A    -11.228889     9A     -1.363681
      10A     -1.230121    11A     -1.113330    12A     -1.044395
      13A     -0.951506    14A     -0.891287    15A     -0.787627
      16A     -0.765015    17A     -0.688020    18A     -0.682753
      19A     -0.634130    20A     -0.619481    21A     -0.606238
      22A     -0.593425    23A     -0.562703    24A     -0.547392
      25A     -0.525763    26A     -0.510119    27A     -0.494954
      28A     -0.466990    29A     -0.446713    30A     -0.410655
      31A     -0.378915

  @DF-RHF Final Energy:  -363.04582965596870

   => Energetics <=

    Nuclear Repulsion Energy =            396.3810663147892797
    One-Electron Energy =               -1278.9076127035652917
    Two-Electron Energy =                 519.4807167328073092
    Total Energy =                       -363.0458296559687597
  Basis Set: (AUG-CC-PVTZ AUX)
    Blend: AUG-CC-PVTZ-RI
    Molecular point group: c1

    Geometry (in Angstrom), charge = 0, multiplicity = 1:

       Center              X                  Y                   Z               Mass
    ------------   -----------------  -----------------  -----------------  -----------------
         O           -2.457926536035     0.061120494838    -0.388788848976    15.994914619570
         N           -0.628563536035    -1.229051505162    -0.021057848976    14.003074004430
         C            1.921739463965     0.726582494838    -0.030415848976    12.000000000000
         C            1.734022163965    -0.621235105162    -0.326686848976    12.000000000000
         C            0.658660463965     1.558407494838    -0.255904848976    12.000000000000
         C            0.730368463965    -1.497381505162     0.422647151024    12.000000000000
         C           -0.542056536035     1.139641494838     0.606399151024    12.000000000000
         C           -1.303131536035    -0.039816505162     0.034671151024    12.000000000000
         H            2.740361463965     1.160350494838    -0.617800848976     1.007825032230
         H            2.218179463965     0.818844494838     1.023878151024     1.007825032230
         H            1.586244463965    -0.883044505162    -1.444462848976     1.007825032230
         H            2.770047463965    -1.239206505162    -0.185941848976     1.007825032230
         H            0.370049463965     1.525220494838    -1.314226848976     1.007825032230
         H            0.894536463965     2.605615494838    -0.033213848976     1.007825032230
         H            0.876067463965    -2.576689505162     0.320387151024     1.007825032230
         H            0.836236463965    -1.268680505162     1.492135151024     1.007825032230
         H           -1.272428536035     1.949838494838     0.665149151024     1.007825032230
         H           -0.208446536035     0.918855494838     1.629421151024     1.007825032230
         H           -1.165406536035    -1.980665505162    -0.438903848976     1.007825032230

  Basis Set: AUG-CC-PVTZ
    Blend: AUG-CC-PVTZ
  Basis Set: (AUG-CC-PVTZ AUX)
    Blend: AUG-CC-PVTZ-JKFIT
	 Reference Energy          =    -363.0458296559687028 [Eh]
	 Singles Energy            =      -0.0000000000000000 [Eh]
	 Same-Spin Energy          =      -0.3797267113911820 [Eh]
	 Opposite-Spin Energy      =      -1.2505751184840475 [Eh]
	 Correlation Energy        =      -1.6303018298752294 [Eh]
	 Total Energy              =    -364.6761314858439391 [Eh]

	 ================> DF-SCS-MP2 Energies <==================
	-----------------------------------------------------------
	 SCS Same-Spin Scale       =       0.3333333333333333 [-]
	 SCS Opposite-Spin Scale   =       1.2000000000000000 [-]
	 SCS Same-Spin Energy      =      -0.1265755704637273 [Eh]
	 SCS Opposite-Spin Energy  =      -1.5006901421808569 [Eh]
	 SCS Correlation Energy    =      -1.6272657126445842 [Eh]
	 SCS Total Energy          =    -364.6730953686133034 [Eh]
	-----------------------------------------------------------

  Dipole Moment: [D]
     X:     4.0242      Y:    -0.9688      Z:     0.9347     Total:     4.2435

*** Psi4 exiting successfully. Buy a developer a beer!
