                               Psi4 1.3.2 release

  ==> Input File <==

--------------------------------------------------------------------------
#psi4
#
memory 32 gb

molecule  {
0 1
  O       -2.5416370     0.0659770    -0.3927070
  N       -0.7122740    -1.2241950    -0.0249760
  C        1.8380290     0.7314390    -0.0343340
  C        1.7187040    -0.7521010    -0.3806110
  C        0.4097444     1.6720633    -0.2893160
  C        0.6466580    -1.4925250     0.4187290
  C       -0.6257670     1.1444980     0.6024810
  C       -1.3868420    -0.0349600     0.0307530
  H        2.6566510     1.1652070    -0.6217190
  H        2.1344690     0.8237010     1.0199600
  H        1.5025340    -0.8781880    -1.4483810
  H        2.6863370    -1.2343500    -0.1898600
  H        0.2863390     1.5300770    -1.3181450
  H        0.8108260     2.6104720    -0.0371320
  H        0.7923570    -2.5718330     0.3164690
  H        0.7525260    -1.2638240     1.4882170
  H       -1.3561390     1.9546950     0.6612310
  H       -0.2921570     0.9237120     1.6255030
  H       -1.2491170    -1.9758090    -0.4428220
units angstrom
no_reorient  #important for SAPT in psi4, default
symmetry c1  #important for SAPT in psi4, default
}

set PROPERTIES_ORIGIN ["COM"]
properties('MP2/aug-cc-pvtz', properties = ['dipole'])
--------------------------------------------------------------------------

    Molecular point group: c1
  Charge       = 0
  Multiplicity = 1
  Basis Set: AUG-CC-PVTZ
    Blend: AUG-CC-PVTZ
  Basis Set: (AUG-CC-PVTZ AUX)
    Blend: AUG-CC-PVTZ-JKFIT

    Orbital Energies [Eh]
    ---------------------

    Doubly Occupied:

       1A    -20.510207     2A    -15.579909     3A    -11.344997
       4A    -11.276635     5A    -11.236471     6A    -11.235533
       7A    -11.234186     8A    -11.233340     9A     -1.364715
      10A     -1.228667    11A     -1.085381    12A     -1.048622
      13A     -0.934180    14A     -0.891064    15A     -0.797905
      16A     -0.767290    17A     -0.688522    18A     -0.677425
      19A     -0.627228    20A     -0.613148    21A     -0.598639
      22A     -0.593340    23A     -0.571591    24A     -0.554261
      25A     -0.525637    26A     -0.521205    27A     -0.487236
      28A     -0.481926    29A     -0.420906    30A     -0.406139
      31A     -0.382774

  @DF-RHF Final Energy:  -363.04620832226641

   => Energetics <=

    Nuclear Repulsion Energy =            392.8327262152274102
    One-Electron Energy =               -1271.9197108818821107
    Two-Electron Energy =                 516.0407763443882914
    Total Energy =                       -363.0462083222663523
  Basis Set: (AUG-CC-PVTZ AUX)
    Blend: AUG-CC-PVTZ-RI
    Molecular point group: c1

    Geometry (in Angstrom), charge = 0, multiplicity = 1:

       Center              X                  Y                   Z               Mass
    ------------   -----------------  -----------------  -----------------  -----------------
         O           -2.447653120320     0.063977459725    -0.380352753151    15.994914619570
         N           -0.618290120320    -1.226194540275    -0.012621753151    14.003074004430
         C            1.932012879680     0.729439459725    -0.021979753151    12.000000000000
         C            1.812687879680    -0.754100540275    -0.368256753151    12.000000000000
         C            0.503728279680     1.670063759725    -0.276961753151    12.000000000000
         C            0.740641879680    -1.494524540275     0.431083246849    12.000000000000
         C           -0.531783120320     1.142498459725     0.614835246849    12.000000000000
         C           -1.292858120320    -0.036959540275     0.043107246849    12.000000000000
         H            2.750634879680     1.163207459725    -0.609364753151     1.007825032230
         H            2.228452879680     0.821701459725     1.032314246849     1.007825032230
         H            1.596517879680    -0.880187540275    -1.436026753151     1.007825032230
         H            2.780320879680    -1.236349540275    -0.177505753151     1.007825032230
         H            0.380322879680     1.528077459725    -1.305790753151     1.007825032230
         H            0.904809879680     2.608472459725    -0.024777753151     1.007825032230
         H            0.886340879680    -2.573832540275     0.328823246849     1.007825032230
         H            0.846509879680    -1.265823540275     1.500571246849     1.007825032230
         H           -1.262155120320     1.952695459725     0.673585246849     1.007825032230
         H           -0.198173120320     0.921712459725     1.637857246849     1.007825032230
         H           -1.155133120320    -1.977808540275    -0.430467753151     1.007825032230

  Basis Set: AUG-CC-PVTZ
    Blend: AUG-CC-PVTZ
  Basis Set: (AUG-CC-PVTZ AUX)
    Blend: AUG-CC-PVTZ-JKFIT
	 Reference Energy          =    -363.0462083222664091 [Eh]
	 Singles Energy            =      -0.0000000000000000 [Eh]
	 Same-Spin Energy          =      -0.3783644959888750 [Eh]
	 Opposite-Spin Energy      =      -1.2497477967487196 [Eh]
	 Correlation Energy        =      -1.6281122927375946 [Eh]
	 Total Energy              =    -364.6743206150039782 [Eh]

	 ================> DF-SCS-MP2 Energies <==================
	-----------------------------------------------------------
	 SCS Same-Spin Scale       =       0.3333333333333333 [-]
	 SCS Opposite-Spin Scale   =       1.2000000000000000 [-]
	 SCS Same-Spin Energy      =      -0.1261214986629583 [Eh]
	 SCS Opposite-Spin Energy  =      -1.4996973560984634 [Eh]
	 SCS Correlation Energy    =      -1.6258188547614218 [Eh]
	 SCS Total Energy          =    -364.6720271770278146 [Eh]
	-----------------------------------------------------------

  Dipole Moment: [D]
     X:     3.9769      Y:    -1.0539      Z:     0.8884     Total:     4.2090

*** Psi4 exiting successfully. Buy a developer a beer!
