                               Psi4 1.3.2 release

  ==> Input File <==

--------------------------------------------------------------------------
#psi4
#
memory 32 gb

molecule  {
0 1
  O       -2.5416370     0.0659770    -0.3927070
  N       -0.7122740    -1.2241950    -0.0249760
  C        1.8380290     0.7314390    -0.0343340
  C        1.7187040    -0.7521010    -0.3806110
  C        0.5268615     1.6580535    -0.2740820
  C        0.6466580    -1.4925250     0.4187290
  C       -0.6257670     1.1444980     0.6024810
  C       -1.3868420    -0.0349600     0.0307530
  H        2.6566510     1.1652070    -0.6217190
  H        2.1344690     0.8237010     1.0199600
  H        1.5025340    -0.8781880    -1.4483810
  H        2.6863370    -1.2343500    -0.1898600
  H        0.2863390     1.5300770    -1.3181450
  H        0.8108260     2.6104720    -0.0371320
  H        0.7923570    -2.5718330     0.3164690
  H        0.7525260    -1.2638240     1.4882170
  H       -1.3561390     1.9546950     0.6612310
  H       -0.2921570     0.9237120     1.6255030
  H       -1.2491170    -1.9758090    -0.4428220
units angstrom
no_reorient  #important for SAPT in psi4, default
symmetry c1  #important for SAPT in psi4, default
}

set PROPERTIES_ORIGIN ["COM"]
properties('MP2/aug-cc-pvtz', properties = ['dipole'])
--------------------------------------------------------------------------

    Molecular point group: c1
  Charge       = 0
  Multiplicity = 1
  Basis Set: AUG-CC-PVTZ
    Blend: AUG-CC-PVTZ
  Basis Set: (AUG-CC-PVTZ AUX)
    Blend: AUG-CC-PVTZ-JKFIT

    Orbital Energies [Eh]
    ---------------------

    Doubly Occupied:

       1A    -20.509569     2A    -15.579140     3A    -11.344264
       4A    -11.276993     5A    -11.235627     6A    -11.235315
       7A    -11.234617     8A    -11.233568     9A     -1.363854
      10A     -1.228135    11A     -1.084904    12A     -1.042929
      13A     -0.939115    14A     -0.893177    15A     -0.797383
      16A     -0.764578    17A     -0.688403    18A     -0.675151
      19A     -0.628036    20A     -0.613359    21A     -0.600947
      22A     -0.592043    23A     -0.569346    24A     -0.545195
      25A     -0.522549    26A     -0.518606    27A     -0.485590
      28A     -0.475209    29A     -0.448240    30A     -0.411303
      31A     -0.382705

  @DF-RHF Final Energy:  -363.06538518033318

   => Energetics <=

    Nuclear Repulsion Energy =            392.7338508449516326
    One-Electron Energy =               -1271.7587751578362258
    Two-Electron Energy =                 515.9595391325515266
    Total Energy =                       -363.0653851803331236
  Basis Set: (AUG-CC-PVTZ AUX)
    Blend: AUG-CC-PVTZ-RI
    Molecular point group: c1

    Geometry (in Angstrom), charge = 0, multiplicity = 1:

       Center              X                  Y                   Z               Mass
    ------------   -----------------  -----------------  -----------------  -----------------
         O           -2.460081088952     0.065464120126    -0.381969320451    15.994914619570
         N           -0.630718088952    -1.224707879874    -0.014238320451    14.003074004430
         C            1.919584911048     0.730926120126    -0.023596320451    12.000000000000
         C            1.800259911048    -0.752613879874    -0.369873320451    12.000000000000
         C            0.608417411048     1.657540620126    -0.263344320451    12.000000000000
         C            0.728213911048    -1.493037879874     0.429466679549    12.000000000000
         C           -0.544211088952     1.143985120126     0.613218679549    12.000000000000
         C           -1.305286088952    -0.035472879874     0.041490679549    12.000000000000
         H            2.738206911048     1.164694120126    -0.610981320451     1.007825032230
         H            2.216024911048     0.823188120126     1.030697679549     1.007825032230
         H            1.584089911048    -0.878700879874    -1.437643320451     1.007825032230
         H            2.767892911048    -1.234862879874    -0.179122320451     1.007825032230
         H            0.367894911048     1.529564120126    -1.307407320451     1.007825032230
         H            0.892381911048     2.609959120126    -0.026394320451     1.007825032230
         H            0.873912911048    -2.572345879874     0.327206679549     1.007825032230
         H            0.834081911048    -1.264336879874     1.498954679549     1.007825032230
         H           -1.274583088952     1.954182120126     0.671968679549     1.007825032230
         H           -0.210601088952     0.923199120126     1.636240679549     1.007825032230
         H           -1.167561088952    -1.976321879874    -0.432084320451     1.007825032230

  Basis Set: AUG-CC-PVTZ
    Blend: AUG-CC-PVTZ
  Basis Set: (AUG-CC-PVTZ AUX)
    Blend: AUG-CC-PVTZ-JKFIT
	 Reference Energy          =    -363.0653851803331804 [Eh]
	 Singles Energy            =      -0.0000000000000000 [Eh]
	 Same-Spin Energy          =      -0.3774310238559915 [Eh]
	 Opposite-Spin Energy      =      -1.2478412379801844 [Eh]
	 Correlation Energy        =      -1.6252722618361759 [Eh]
	 Total Energy              =    -364.6906574421693676 [Eh]

	 ================> DF-SCS-MP2 Energies <==================
	-----------------------------------------------------------
	 SCS Same-Spin Scale       =       0.3333333333333333 [-]
	 SCS Opposite-Spin Scale   =       1.2000000000000000 [-]
	 SCS Same-Spin Energy      =      -0.1258103412853305 [Eh]
	 SCS Opposite-Spin Energy  =      -1.4974094855762212 [Eh]
	 SCS Correlation Energy    =      -1.6232198268615516 [Eh]
	 SCS Total Energy          =    -364.6886050071947238 [Eh]
	-----------------------------------------------------------

  Dipole Moment: [D]
     X:     4.0422      Y:    -1.0292      Z:     0.8802     Total:     4.2630

*** Psi4 exiting successfully. Buy a developer a beer!
