                               Psi4 1.3.2 release

  ==> Input File <==

--------------------------------------------------------------------------
#psi4
#
memory 32 gb

molecule  {
0 1
  O       -2.5416370     0.0659770    -0.3927070
  N       -0.7122740    -1.2241950    -0.0249760
  C        1.8380290     0.7314390    -0.0343340
  C        1.8409853    -0.7298171    -0.4812781
  C        0.5749500     1.5632640    -0.2598230
  C        0.6466580    -1.4925250     0.4187290
  C       -0.6257670     1.1444980     0.6024810
  C       -1.3868420    -0.0349600     0.0307530
  H        2.6566510     1.1652070    -0.6217190
  H        2.1344690     0.8237010     1.0199600
  H        1.5025340    -0.8781880    -1.4483810
  H        2.6863370    -1.2343500    -0.1898600
  H        0.2863390     1.5300770    -1.3181450
  H        0.8108260     2.6104720    -0.0371320
  H        0.7923570    -2.5718330     0.3164690
  H        0.7525260    -1.2638240     1.4882170
  H       -1.3561390     1.9546950     0.6612310
  H       -0.2921570     0.9237120     1.6255030
  H       -1.2491170    -1.9758090    -0.4428220
units angstrom
no_reorient  #important for SAPT in psi4, default
symmetry c1  #important for SAPT in psi4, default
}

set PROPERTIES_ORIGIN ["COM"]
properties('MP2/aug-cc-pvtz', properties = ['dipole'])
--------------------------------------------------------------------------

    Molecular point group: c1
  Charge       = 0
  Multiplicity = 1
  Basis Set: AUG-CC-PVTZ
    Blend: AUG-CC-PVTZ
  Basis Set: (AUG-CC-PVTZ AUX)
    Blend: AUG-CC-PVTZ-JKFIT

    Orbital Energies [Eh]
    ---------------------

    Doubly Occupied:

       1A    -20.508836     2A    -15.579344     3A    -11.342469
       4A    -11.279010     5A    -11.238208     6A    -11.235839
       7A    -11.233265     8A    -11.231931     9A     -1.363045
      10A     -1.224071    11A     -1.092067    12A     -1.034268
      13A     -0.936439    14A     -0.894974    15A     -0.802456
      16A     -0.762082    17A     -0.686409    18A     -0.673391
      19A     -0.624202    20A     -0.617455    21A     -0.603553
      22A     -0.586553    23A     -0.576622    24A     -0.538781
      25A     -0.521827    26A     -0.517049    27A     -0.489190
      28A     -0.481708    29A     -0.450382    30A     -0.410283
      31A     -0.371479

  @DF-RHF Final Energy:  -363.05473040155778

   => Energetics <=

    Nuclear Repulsion Energy =            391.9459188899859328
    One-Electron Energy =               -1270.1869205371567659
    Two-Electron Energy =                 515.1862712456130566
    Total Energy =                       -363.0547304015577765
  Basis Set: (AUG-CC-PVTZ AUX)
    Blend: AUG-CC-PVTZ-RI
    Molecular point group: c1

    Geometry (in Angstrom), charge = 0, multiplicity = 1:

       Center              X                  Y                   Z               Mass
    ------------   -----------------  -----------------  -----------------  -----------------
         O           -2.478160007662     0.073158106082    -0.372800060314    15.994914619570
         N           -0.648797007662    -1.217013893918    -0.005069060314    14.003074004430
         C            1.901505992338     0.738620106082    -0.014427060314    12.000000000000
         C            1.904462292338    -0.722635993918    -0.461371160314    12.000000000000
         C            0.638426992338     1.570445106082    -0.239916060314    12.000000000000
         C            0.710134992338    -1.485343893918     0.438635939686    12.000000000000
         C           -0.562290007662     1.151679106082     0.622387939686    12.000000000000
         C           -1.323365007662    -0.027778893918     0.050659939686    12.000000000000
         H            2.720127992338     1.172388106082    -0.601812060314     1.007825032230
         H            2.197945992338     0.830882106082     1.039866939686     1.007825032230
         H            1.566010992338    -0.871006893918    -1.428474060314     1.007825032230
         H            2.749813992338    -1.227168893918    -0.169953060314     1.007825032230
         H            0.349815992338     1.537258106082    -1.298238060314     1.007825032230
         H            0.874302992338     2.617653106082    -0.017225060314     1.007825032230
         H            0.855833992338    -2.564651893918     0.336375939686     1.007825032230
         H            0.816002992338    -1.256642893918     1.508123939686     1.007825032230
         H           -1.292662007662     1.961876106082     0.681137939686     1.007825032230
         H           -0.228680007662     0.930893106082     1.645409939686     1.007825032230
         H           -1.185640007662    -1.968627893918    -0.422915060314     1.007825032230

  Basis Set: AUG-CC-PVTZ
    Blend: AUG-CC-PVTZ
  Basis Set: (AUG-CC-PVTZ AUX)
    Blend: AUG-CC-PVTZ-JKFIT
	 Reference Energy          =    -363.0547304015577765 [Eh]
	 Singles Energy            =      -0.0000000000000000 [Eh]
	 Same-Spin Energy          =      -0.3777008123912592 [Eh]
	 Opposite-Spin Energy      =      -1.2485402890436039 [Eh]
	 Correlation Energy        =      -1.6262411014348630 [Eh]
	 Total Energy              =    -364.6809715029926338 [Eh]

	 ================> DF-SCS-MP2 Energies <==================
	-----------------------------------------------------------
	 SCS Same-Spin Scale       =       0.3333333333333333 [-]
	 SCS Opposite-Spin Scale   =       1.2000000000000000 [-]
	 SCS Same-Spin Energy      =      -0.1259002707970864 [Eh]
	 SCS Opposite-Spin Energy  =      -1.4982483468523247 [Eh]
	 SCS Correlation Energy    =      -1.6241486176494111 [Eh]
	 SCS Total Energy          =    -364.6788790192072156 [Eh]
	-----------------------------------------------------------

  Dipole Moment: [D]
     X:     4.0474      Y:    -1.0308      Z:     0.8771     Total:     4.2677

*** Psi4 exiting successfully. Buy a developer a beer!
