                               Psi4 1.3.2 release

  ==> Input File <==

--------------------------------------------------------------------------
#psi4
#
memory 32 gb

molecule  {
0 1
  O       -2.5416370     0.0659770    -0.3927070
  N       -0.7293169    -1.2554344     0.0112337
  C        1.8380290     0.7314390    -0.0343340
  C        1.7187040    -0.7521010    -0.3806110
  C        0.5749500     1.5632640    -0.2598230
  C        0.6466580    -1.4925250     0.4187290
  C       -0.6257670     1.1444980     0.6024810
  C       -1.3868420    -0.0349600     0.0307530
  H        2.6566510     1.1652070    -0.6217190
  H        2.1344690     0.8237010     1.0199600
  H        1.5025340    -0.8781880    -1.4483810
  H        2.6863370    -1.2343500    -0.1898600
  H        0.2863390     1.5300770    -1.3181450
  H        0.8108260     2.6104720    -0.0371320
  H        0.7923570    -2.5718330     0.3164690
  H        0.7525260    -1.2638240     1.4882170
  H       -1.3561390     1.9546950     0.6612310
  H       -0.2921570     0.9237120     1.6255030
  H       -1.2491170    -1.9758090    -0.4428220
units angstrom
no_reorient  #important for SAPT in psi4, default
symmetry c1  #important for SAPT in psi4, default
}

set PROPERTIES_ORIGIN ["COM"]
properties('MP2/aug-cc-pvtz', properties = ['dipole'])
--------------------------------------------------------------------------

    Molecular point group: c1
  Charge       = 0
  Multiplicity = 1
  Basis Set: AUG-CC-PVTZ
    Blend: AUG-CC-PVTZ
  Basis Set: (AUG-CC-PVTZ AUX)
    Blend: AUG-CC-PVTZ-JKFIT

    Orbital Energies [Eh]
    ---------------------

    Doubly Occupied:

       1A    -20.511927     2A    -15.576504     3A    -11.345420
       4A    -11.275905     5A    -11.237670     6A    -11.237012
       7A    -11.234831     8A    -11.233333     9A     -1.363912
      10A     -1.225593    11A     -1.094737    12A     -1.041325
      13A     -0.945524    14A     -0.887471    15A     -0.796221
      16A     -0.764652    17A     -0.684783    18A     -0.677412
      19A     -0.628054    20A     -0.612368    21A     -0.601019
      22A     -0.591169    23A     -0.569388    24A     -0.548241
      25A     -0.519763    26A     -0.515715    27A     -0.481542
      28A     -0.471400    29A     -0.469231    30A     -0.411603
      31A     -0.382647

  @DF-RHF Final Energy:  -363.07476120755587

   => Energetics <=

    Nuclear Repulsion Energy =            393.4877499188635284
    One-Electron Energy =               -1273.2522789629997533
    Two-Electron Energy =                 516.6897678365803586
    Total Energy =                       -363.0747612075558663
  Basis Set: (AUG-CC-PVTZ AUX)
    Blend: AUG-CC-PVTZ-RI
    Molecular point group: c1

    Geometry (in Angstrom), charge = 0, multiplicity = 1:

       Center              X                  Y                   Z               Mass
    ------------   -----------------  -----------------  -----------------  -----------------
         O           -2.463073632713     0.079391118986    -0.387966231819    15.994914619570
         N           -0.650753532713    -1.242020281014     0.015974468181    14.003074004430
         C            1.916592367287     0.744853118986    -0.029593231819    12.000000000000
         C            1.797267367287    -0.738686881014    -0.375870231819    12.000000000000
         C            0.653513367287     1.576678118986    -0.255082231819    12.000000000000
         C            0.725221367287    -1.479110881014     0.423469768181    12.000000000000
         C           -0.547203632713     1.157912118986     0.607221768181    12.000000000000
         C           -1.308278632713    -0.021545881014     0.035493768181    12.000000000000
         H            2.735214367287     1.178621118986    -0.616978231819     1.007825032230
         H            2.213032367287     0.837115118986     1.024700768181     1.007825032230
         H            1.581097367287    -0.864773881014    -1.443640231819     1.007825032230
         H            2.764900367287    -1.220935881014    -0.185119231819     1.007825032230
         H            0.364902367287     1.543491118986    -1.313404231819     1.007825032230
         H            0.889389367287     2.623886118986    -0.032391231819     1.007825032230
         H            0.870920367287    -2.558418881014     0.321209768181     1.007825032230
         H            0.831089367287    -1.250409881014     1.492957768181     1.007825032230
         H           -1.277575632713     1.968109118986     0.665971768181     1.007825032230
         H           -0.213593632713     0.937126118986     1.630243768181     1.007825032230
         H           -1.170553632713    -1.962394881014    -0.438081231819     1.007825032230

  Basis Set: AUG-CC-PVTZ
    Blend: AUG-CC-PVTZ
  Basis Set: (AUG-CC-PVTZ AUX)
    Blend: AUG-CC-PVTZ-JKFIT
	 Reference Energy          =    -363.0747612075558663 [Eh]
	 Singles Energy            =      -0.0000000000000000 [Eh]
	 Same-Spin Energy          =      -0.3775880468379256 [Eh]
	 Opposite-Spin Energy      =      -1.2475952038152767 [Eh]
	 Correlation Energy        =      -1.6251832506532022 [Eh]
	 Total Energy              =    -364.6999444582090746 [Eh]

	 ================> DF-SCS-MP2 Energies <==================
	-----------------------------------------------------------
	 SCS Same-Spin Scale       =       0.3333333333333333 [-]
	 SCS Opposite-Spin Scale   =       1.2000000000000000 [-]
	 SCS Same-Spin Energy      =      -0.1258626822793085 [Eh]
	 SCS Opposite-Spin Energy  =      -1.4971142445783319 [Eh]
	 SCS Correlation Energy    =      -1.6229769268576404 [Eh]
	 SCS Total Energy          =    -364.6977381344134983 [Eh]
	-----------------------------------------------------------

  Dipole Moment: [D]
     X:     4.0450      Y:    -0.9127      Z:     0.8095     Total:     4.2250

*** Psi4 exiting successfully. Buy a developer a beer!
