                               Psi4 1.3.2 release

  ==> Input File <==

--------------------------------------------------------------------------
#psi4
#
memory 32 gb

molecule  {
0 1
  O       -2.5416370     0.0659770    -0.3927070
  N       -0.7122740    -1.2241950    -0.0249760
  C        1.8507129     0.7461704    -0.0526185
  C        1.7187040    -0.7521010    -0.3806110
  C        0.5749500     1.5632640    -0.2598230
  C        0.6466580    -1.4925250     0.4187290
  C       -0.6257670     1.1444980     0.6024810
  C       -1.3868420    -0.0349600     0.0307530
  H        2.6566510     1.1652070    -0.6217190
  H        2.1344690     0.8237010     1.0199600
  H        1.5025340    -0.8781880    -1.4483810
  H        2.6863370    -1.2343500    -0.1898600
  H        0.2863390     1.5300770    -1.3181450
  H        0.8108260     2.6104720    -0.0371320
  H        0.7923570    -2.5718330     0.3164690
  H        0.7525260    -1.2638240     1.4882170
  H       -1.3561390     1.9546950     0.6612310
  H       -0.2921570     0.9237120     1.6255030
  H       -1.2491170    -1.9758090    -0.4428220
units angstrom
no_reorient  #important for SAPT in psi4, default
symmetry c1  #important for SAPT in psi4, default
}

set PROPERTIES_ORIGIN ["COM"]
properties('MP2/aug-cc-pvtz', properties = ['dipole'])
--------------------------------------------------------------------------

    Molecular point group: c1
  Charge       = 0
  Multiplicity = 1
  Basis Set: AUG-CC-PVTZ
    Blend: AUG-CC-PVTZ
  Basis Set: (AUG-CC-PVTZ AUX)
    Blend: AUG-CC-PVTZ-JKFIT

    Orbital Energies [Eh]
    ---------------------

    Doubly Occupied:

       1A    -20.509159     2A    -15.578687     3A    -11.343137
       4A    -11.277737     5A    -11.236866     6A    -11.236216
       7A    -11.234585     8A    -11.232794     9A     -1.363537
      10A     -1.228190    11A     -1.092949    12A     -1.041488
      13A     -0.946560    14A     -0.888049    15A     -0.795439
      16A     -0.764200    17A     -0.687594    18A     -0.677786
      19A     -0.627063    20A     -0.610847    21A     -0.600484
      22A     -0.591809    23A     -0.571437    24A     -0.545761
      25A     -0.520690    26A     -0.515339    27A     -0.477736
      28A     -0.474451    29A     -0.467023    30A     -0.410849
      31A     -0.382952

  @DF-RHF Final Energy:  -363.07487749301680

   => Energetics <=

    Nuclear Repulsion Energy =            393.8116702630182431
    One-Electron Energy =               -1273.9102657339590223
    Two-Electron Energy =                 517.0237179779239796
    Total Energy =                       -363.0748774930168565
  Basis Set: (AUG-CC-PVTZ AUX)
    Blend: AUG-CC-PVTZ-RI
    Molecular point group: c1

    Geometry (in Angstrom), charge = 0, multiplicity = 1:

       Center              X                  Y                   Z               Mass
    ------------   -----------------  -----------------  -----------------  -----------------
         O           -2.466529997617     0.073959545266    -0.381542151509    15.994914619570
         N           -0.637166997617    -1.216212454734    -0.013811151509    14.003074004430
         C            1.925819902383     0.754152945266    -0.041453651509    12.000000000000
         C            1.793811002383    -0.744118454734    -0.369446151509    12.000000000000
         C            0.650057002383     1.571246545266    -0.248658151509    12.000000000000
         C            0.721765002383    -1.484542454734     0.429893848491    12.000000000000
         C           -0.550659997617     1.152480545266     0.613645848491    12.000000000000
         C           -1.311734997617    -0.026977454734     0.041917848491    12.000000000000
         H            2.731758002383     1.173189545266    -0.610554151509     1.007825032230
         H            2.209576002383     0.831683545266     1.031124848491     1.007825032230
         H            1.577641002383    -0.870205454734    -1.437216151509     1.007825032230
         H            2.761444002383    -1.226367454734    -0.178695151509     1.007825032230
         H            0.361446002383     1.538059545266    -1.306980151509     1.007825032230
         H            0.885933002383     2.618454545266    -0.025967151509     1.007825032230
         H            0.867464002383    -2.563850454734     0.327633848491     1.007825032230
         H            0.827633002383    -1.255841454734     1.499381848491     1.007825032230
         H           -1.281031997617     1.962677545266     0.672395848491     1.007825032230
         H           -0.217049997617     0.931694545266     1.636667848491     1.007825032230
         H           -1.174009997617    -1.967826454734    -0.431657151509     1.007825032230

  Basis Set: AUG-CC-PVTZ
    Blend: AUG-CC-PVTZ
  Basis Set: (AUG-CC-PVTZ AUX)
    Blend: AUG-CC-PVTZ-JKFIT
	 Reference Energy          =    -363.0748774930167997 [Eh]
	 Singles Energy            =      -0.0000000000000000 [Eh]
	 Same-Spin Energy          =      -0.3776445814863968 [Eh]
	 Opposite-Spin Energy      =      -1.2476046389174777 [Eh]
	 Correlation Energy        =      -1.6252492204038744 [Eh]
	 Total Energy              =    -364.7001267134206728 [Eh]

	 ================> DF-SCS-MP2 Energies <==================
	-----------------------------------------------------------
	 SCS Same-Spin Scale       =       0.3333333333333333 [-]
	 SCS Opposite-Spin Scale   =       1.2000000000000000 [-]
	 SCS Same-Spin Energy      =      -0.1258815271621322 [Eh]
	 SCS Opposite-Spin Energy  =      -1.4971255667009733 [Eh]
	 SCS Correlation Energy    =      -1.6230070938631056 [Eh]
	 SCS Total Energy          =    -364.6978845868799226 [Eh]
	-----------------------------------------------------------

  Dipole Moment: [D]
     X:     4.0717      Y:    -1.0324      Z:     0.8885     Total:     4.2935

*** Psi4 exiting successfully. Buy a developer a beer!
