                               Psi4 1.3.2 release

  ==> Input File <==

--------------------------------------------------------------------------
#psi4
#
memory 32 gb

molecule  {
0 1
  O       -2.5416370     0.0659770    -0.3927070
  N       -0.7122740    -1.2241950    -0.0249760
  C        1.8380290     0.7314390    -0.0343340
  C        1.7695597    -0.7586596    -0.3659290
  C        0.5749500     1.5632640    -0.2598230
  C        0.6466580    -1.4925250     0.4187290
  C       -0.6257670     1.1444980     0.6024810
  C       -1.3868420    -0.0349600     0.0307530
  H        2.6566510     1.1652070    -0.6217190
  H        2.1344690     0.8237010     1.0199600
  H        1.5025340    -0.8781880    -1.4483810
  H        2.6863370    -1.2343500    -0.1898600
  H        0.2863390     1.5300770    -1.3181450
  H        0.8108260     2.6104720    -0.0371320
  H        0.7923570    -2.5718330     0.3164690
  H        0.7525260    -1.2638240     1.4882170
  H       -1.3561390     1.9546950     0.6612310
  H       -0.2921570     0.9237120     1.6255030
  H       -1.2491170    -1.9758090    -0.4428220
units angstrom
no_reorient  #important for SAPT in psi4, default
symmetry c1  #important for SAPT in psi4, default
}

set PROPERTIES_ORIGIN ["COM"]
properties('MP2/aug-cc-pvtz', properties = ['dipole'])
--------------------------------------------------------------------------

    Molecular point group: c1
  Charge       = 0
  Multiplicity = 1
  Basis Set: AUG-CC-PVTZ
    Blend: AUG-CC-PVTZ
  Basis Set: (AUG-CC-PVTZ AUX)
    Blend: AUG-CC-PVTZ-JKFIT

    Orbital Energies [Eh]
    ---------------------

    Doubly Occupied:

       1A    -20.509421     2A    -15.579781     3A    -11.343294
       4A    -11.277883     5A    -11.237688     6A    -11.236211
       7A    -11.233824     8A    -11.232820     9A     -1.363723
      10A     -1.227433    11A     -1.093502    12A     -1.041173
      13A     -0.943983    14A     -0.890730    15A     -0.795720
      16A     -0.764292    17A     -0.687636    18A     -0.676180
      19A     -0.627691    20A     -0.609978    21A     -0.601732
      22A     -0.591893    23A     -0.575236    24A     -0.544467
      25A     -0.519987    26A     -0.512806    27A     -0.480083
      28A     -0.474133    29A     -0.466747    30A     -0.410919
      31A     -0.382118

  @DF-RHF Final Energy:  -363.07252541202246

   => Energetics <=

    Nuclear Repulsion Energy =            393.4486646884435572
    One-Electron Energy =               -1273.1762110968372781
    Two-Electron Energy =                 516.6550209963711495
    Total Energy =                       -363.0725254120225145
  Basis Set: (AUG-CC-PVTZ AUX)
    Blend: AUG-CC-PVTZ-RI
    Molecular point group: c1

    Geometry (in Angstrom), charge = 0, multiplicity = 1:

       Center              X                  Y                   Z               Mass
    ------------   -----------------  -----------------  -----------------  -----------------
         O           -2.470580626714     0.076218749534    -0.385040416305    15.994914619570
         N           -0.641217626714    -1.213953250466    -0.017309416305    14.003074004430
         C            1.909085373286     0.741680749534    -0.026667416305    12.000000000000
         C            1.840616073286    -0.748417850466    -0.358262416305    12.000000000000
         C            0.646006373286     1.573505749534    -0.252156416305    12.000000000000
         C            0.717714373286    -1.482283250466     0.426395583695    12.000000000000
         C           -0.554710626714     1.154739749534     0.610147583695    12.000000000000
         C           -1.315785626714    -0.024718250466     0.038419583695    12.000000000000
         H            2.727707373286     1.175448749534    -0.614052416305     1.007825032230
         H            2.205525373286     0.833942749534     1.027626583695     1.007825032230
         H            1.573590373286    -0.867946250466    -1.440714416305     1.007825032230
         H            2.757393373286    -1.224108250466    -0.182193416305     1.007825032230
         H            0.357395373286     1.540318749534    -1.310478416305     1.007825032230
         H            0.881882373286     2.620713749534    -0.029465416305     1.007825032230
         H            0.863413373286    -2.561591250466     0.324135583695     1.007825032230
         H            0.823582373286    -1.253582250466     1.495883583695     1.007825032230
         H           -1.285082626714     1.964936749534     0.668897583695     1.007825032230
         H           -0.221100626714     0.933953749534     1.633169583695     1.007825032230
         H           -1.178060626714    -1.965567250466    -0.435155416305     1.007825032230

  Basis Set: AUG-CC-PVTZ
    Blend: AUG-CC-PVTZ
  Basis Set: (AUG-CC-PVTZ AUX)
    Blend: AUG-CC-PVTZ-JKFIT
	 Reference Energy          =    -363.0725254120224577 [Eh]
	 Singles Energy            =      -0.0000000000000000 [Eh]
	 Same-Spin Energy          =      -0.3776174326147390 [Eh]
	 Opposite-Spin Energy      =      -1.2476426373943981 [Eh]
	 Correlation Energy        =      -1.6252600700091371 [Eh]
	 Total Energy              =    -364.6977854820315770 [Eh]

	 ================> DF-SCS-MP2 Energies <==================
	-----------------------------------------------------------
	 SCS Same-Spin Scale       =       0.3333333333333333 [-]
	 SCS Opposite-Spin Scale   =       1.2000000000000000 [-]
	 SCS Same-Spin Energy      =      -0.1258724775382463 [Eh]
	 SCS Opposite-Spin Energy  =      -1.4971711648732777 [Eh]
	 SCS Correlation Energy    =      -1.6230436424115240 [Eh]
	 SCS Total Energy          =    -364.6955690544339745 [Eh]
	-----------------------------------------------------------

  Dipole Moment: [D]
     X:     4.0691      Y:    -1.0280      Z:     0.9041     Total:     4.2932

*** Psi4 exiting successfully. Buy a developer a beer!
