                               Psi4 1.3.2 release

  ==> Input File <==

--------------------------------------------------------------------------
#psi4
#
memory 32 gb

molecule  {
0 1
  O       -2.5416370     0.0659770    -0.3927070
  N       -0.7122740    -1.2241950    -0.0249760
  C        1.8084217     0.7612220    -0.1886698
  C        1.7187040    -0.7521010    -0.3806110
  C        0.5749500     1.5632640    -0.2598230
  C        0.6466580    -1.4925250     0.4187290
  C       -0.6257670     1.1444980     0.6024810
  C       -1.3868420    -0.0349600     0.0307530
  H        2.6566510     1.1652070    -0.6217190
  H        2.1344690     0.8237010     1.0199600
  H        1.5025340    -0.8781880    -1.4483810
  H        2.6863370    -1.2343500    -0.1898600
  H        0.2863390     1.5300770    -1.3181450
  H        0.8108260     2.6104720    -0.0371320
  H        0.7923570    -2.5718330     0.3164690
  H        0.7525260    -1.2638240     1.4882170
  H       -1.3561390     1.9546950     0.6612310
  H       -0.2921570     0.9237120     1.6255030
  H       -1.2491170    -1.9758090    -0.4428220
units angstrom
no_reorient  #important for SAPT in psi4, default
symmetry c1  #important for SAPT in psi4, default
}

set PROPERTIES_ORIGIN ["COM"]
properties('MP2/aug-cc-pvtz', properties = ['dipole'])
--------------------------------------------------------------------------

    Molecular point group: c1
  Charge       = 0
  Multiplicity = 1
  Basis Set: AUG-CC-PVTZ
    Blend: AUG-CC-PVTZ
  Basis Set: (AUG-CC-PVTZ AUX)
    Blend: AUG-CC-PVTZ-JKFIT

    Orbital Energies [Eh]
    ---------------------

    Doubly Occupied:

       1A    -20.510267     2A    -15.579825     3A    -11.344458
       4A    -11.279593     5A    -11.241150     6A    -11.239281
       7A    -11.236740     8A    -11.236665     9A     -1.364652
      10A     -1.229473    11A     -1.101268    12A     -1.043411
      13A     -0.952246    14A     -0.893411    15A     -0.789508
      16A     -0.766814    17A     -0.689673    18A     -0.681410
      19A     -0.634236    20A     -0.610570    21A     -0.599820
      22A     -0.593193    23A     -0.575079    24A     -0.551631
      25A     -0.523593    26A     -0.514917    27A     -0.491145
      28A     -0.475307    29A     -0.432894    30A     -0.412162
      31A     -0.384274

  @DF-RHF Final Energy:  -363.05093409719802

   => Energetics <=

    Nuclear Repulsion Energy =            394.3652128437936994
    One-Electron Energy =               -1274.8749605781410992
    Two-Electron Energy =                 517.4588136371494329
    Total Energy =                       -363.0509340971980237
  Basis Set: (AUG-CC-PVTZ AUX)
    Blend: AUG-CC-PVTZ-RI
    Molecular point group: c1

    Geometry (in Angstrom), charge = 0, multiplicity = 1:

       Center              X                  Y                   Z               Mass
    ------------   -----------------  -----------------  -----------------  -----------------
         O           -2.462042235309     0.072362333478    -0.367104966086    15.994914619570
         N           -0.632679235309    -1.217809666522     0.000626033914    14.003074004430
         C            1.888016464691     0.767607333478    -0.163067766086    12.000000000000
         C            1.798298764691    -0.745715666522    -0.355008966086    12.000000000000
         C            0.654544764691     1.569649333478    -0.234220966086    12.000000000000
         C            0.726252764691    -1.486139666522     0.444331033914    12.000000000000
         C           -0.546172235309     1.150883333478     0.628083033914    12.000000000000
         C           -1.307247235309    -0.028574666522     0.056355033914    12.000000000000
         H            2.736245764691     1.171592333478    -0.596116966086     1.007825032230
         H            2.214063764691     0.830086333478     1.045562033914     1.007825032230
         H            1.582128764691    -0.871802666522    -1.422778966086     1.007825032230
         H            2.765931764691    -1.227964666522    -0.164257966086     1.007825032230
         H            0.365933764691     1.536462333478    -1.292542966086     1.007825032230
         H            0.890420764691     2.616857333478    -0.011529966086     1.007825032230
         H            0.871951764691    -2.565447666522     0.342071033914     1.007825032230
         H            0.832120764691    -1.257438666522     1.513819033914     1.007825032230
         H           -1.276544235309     1.961080333478     0.686833033914     1.007825032230
         H           -0.212562235309     0.930097333478     1.651105033914     1.007825032230
         H           -1.169522235309    -1.969423666522    -0.417219966086     1.007825032230

  Basis Set: AUG-CC-PVTZ
    Blend: AUG-CC-PVTZ
  Basis Set: (AUG-CC-PVTZ AUX)
    Blend: AUG-CC-PVTZ-JKFIT
	 Reference Energy          =    -363.0509340971980237 [Eh]
	 Singles Energy            =      -0.0000000000000000 [Eh]
	 Same-Spin Energy          =      -0.3785806645110287 [Eh]
	 Opposite-Spin Energy      =      -1.2494159546415662 [Eh]
	 Correlation Energy        =      -1.6279966191525950 [Eh]
	 Total Energy              =    -364.6789307163506351 [Eh]

	 ================> DF-SCS-MP2 Energies <==================
	-----------------------------------------------------------
	 SCS Same-Spin Scale       =       0.3333333333333333 [-]
	 SCS Opposite-Spin Scale   =       1.2000000000000000 [-]
	 SCS Same-Spin Energy      =      -0.1261935548370096 [Eh]
	 SCS Opposite-Spin Energy  =      -1.4992991455698794 [Eh]
	 SCS Correlation Energy    =      -1.6254927004068889 [Eh]
	 SCS Total Energy          =    -364.6764267976049041 [Eh]
	-----------------------------------------------------------

  Dipole Moment: [D]
     X:     3.9920      Y:    -1.0499      Z:     0.7714     Total:     4.1992

*** Psi4 exiting successfully. Buy a developer a beer!
