                               Psi4 1.3.2 release

  ==> Input File <==

--------------------------------------------------------------------------
#psi4
#
memory 32 gb

molecule  {
0 1
  O       -2.5416370     0.0659770    -0.3927070
  N       -0.7907389    -1.2630806    -0.0631001
  C        1.8380290     0.7314390    -0.0343340
  C        1.7187040    -0.7521010    -0.3806110
  C        0.5749500     1.5632640    -0.2598230
  C        0.6466580    -1.4925250     0.4187290
  C       -0.6257670     1.1444980     0.6024810
  C       -1.3868420    -0.0349600     0.0307530
  H        2.6566510     1.1652070    -0.6217190
  H        2.1344690     0.8237010     1.0199600
  H        1.5025340    -0.8781880    -1.4483810
  H        2.6863370    -1.2343500    -0.1898600
  H        0.2863390     1.5300770    -1.3181450
  H        0.8108260     2.6104720    -0.0371320
  H        0.7923570    -2.5718330     0.3164690
  H        0.7525260    -1.2638240     1.4882170
  H       -1.3561390     1.9546950     0.6612310
  H       -0.2921570     0.9237120     1.6255030
  H       -1.2491170    -1.9758090    -0.4428220
units angstrom
no_reorient  #important for SAPT in psi4, default
symmetry c1  #important for SAPT in psi4, default
}

set PROPERTIES_ORIGIN ["COM"]
properties('MP2/aug-cc-pvtz', properties = ['dipole'])
--------------------------------------------------------------------------

    Molecular point group: c1
  Charge       = 0
  Multiplicity = 1
  Basis Set: AUG-CC-PVTZ
    Blend: AUG-CC-PVTZ
  Basis Set: (AUG-CC-PVTZ AUX)
    Blend: AUG-CC-PVTZ-JKFIT

    Orbital Energies [Eh]
    ---------------------

    Doubly Occupied:

       1A    -20.503662     2A    -15.571052     3A    -11.340911
       4A    -11.281634     5A    -11.239942     6A    -11.237862
       7A    -11.236971     8A    -11.234328     9A     -1.362321
      10A     -1.216205    11A     -1.097911    12A     -1.040630
      13A     -0.950852    14A     -0.882122    15A     -0.798357
      16A     -0.782324    17A     -0.680214    18A     -0.671951
      19A     -0.630972    20A     -0.611576    21A     -0.600444
      22A     -0.585927    23A     -0.571850    24A     -0.543230
      25A     -0.523473    26A     -0.513615    27A     -0.482834
      28A     -0.472739    29A     -0.469555    30A     -0.407454
      31A     -0.383304

  @DF-RHF Final Energy:  -363.06496126221941

   => Energetics <=

    Nuclear Repulsion Energy =            392.8522733736161854
    One-Electron Energy =               -1271.9820303255210092
    Two-Electron Energy =                 516.0647956896854112
    Total Energy =                       -363.0649612622194127
  Basis Set: (AUG-CC-PVTZ AUX)
    Blend: AUG-CC-PVTZ-RI
    Molecular point group: c1

    Geometry (in Angstrom), charge = 0, multiplicity = 1:

       Center              X                  Y                   Z               Mass
    ------------   -----------------  -----------------  -----------------  -----------------
         O           -2.455467814694     0.080337939437    -0.378761559951    15.994914619570
         N           -0.704569714694    -1.248719660563    -0.049154659951    14.003074004430
         C            1.924198185306     0.745799939437    -0.020388559951    12.000000000000
         C            1.804873185306    -0.737740060563    -0.366665559951    12.000000000000
         C            0.661119185306     1.577624939437    -0.245877559951    12.000000000000
         C            0.732827185306    -1.478164060563     0.432674440049    12.000000000000
         C           -0.539597814694     1.158858939437     0.616426440049    12.000000000000
         C           -1.300672814694    -0.020599060563     0.044698440049    12.000000000000
         H            2.742820185306     1.179567939437    -0.607773559951     1.007825032230
         H            2.220638185306     0.838061939437     1.033905440049     1.007825032230
         H            1.588703185306    -0.863827060563    -1.434435559951     1.007825032230
         H            2.772506185306    -1.219989060563    -0.175914559951     1.007825032230
         H            0.372508185306     1.544437939437    -1.304199559951     1.007825032230
         H            0.896995185306     2.624832939437    -0.023186559951     1.007825032230
         H            0.878526185306    -2.557472060563     0.330414440049     1.007825032230
         H            0.838695185306    -1.249463060563     1.502162440049     1.007825032230
         H           -1.269969814694     1.969055939437     0.675176440049     1.007825032230
         H           -0.205987814694     0.938072939437     1.639448440049     1.007825032230
         H           -1.162947814694    -1.961448060563    -0.428876559951     1.007825032230

  Basis Set: AUG-CC-PVTZ
    Blend: AUG-CC-PVTZ
  Basis Set: (AUG-CC-PVTZ AUX)
    Blend: AUG-CC-PVTZ-JKFIT
	 Reference Energy          =    -363.0649612622194127 [Eh]
	 Singles Energy            =      -0.0000000000000000 [Eh]
	 Same-Spin Energy          =      -0.3766427143904859 [Eh]
	 Opposite-Spin Energy      =      -1.2466404438637753 [Eh]
	 Correlation Energy        =      -1.6232831582542611 [Eh]
	 Total Energy              =    -364.6882444204736657 [Eh]

	 ================> DF-SCS-MP2 Energies <==================
	-----------------------------------------------------------
	 SCS Same-Spin Scale       =       0.3333333333333333 [-]
	 SCS Opposite-Spin Scale   =       1.2000000000000000 [-]
	 SCS Same-Spin Energy      =      -0.1255475714634953 [Eh]
	 SCS Opposite-Spin Energy  =      -1.4959685326365302 [Eh]
	 SCS Correlation Energy    =      -1.6215161041000254 [Eh]
	 SCS Total Energy          =    -364.6864773663194228 [Eh]
	-----------------------------------------------------------

  Dipole Moment: [D]
     X:     4.2297      Y:    -0.9213      Z:     0.9455     Total:     4.4309

*** Psi4 exiting successfully. Buy a developer a beer!
