                               Psi4 1.4a3.dev225

  ==> Input File <==

--------------------------------------------------------------------------
#psi4
#
memory 32 gb

molecule  {
0 1
  O       -2.5416370     0.0659770    -0.3927070
  N       -0.7122740    -1.2241950    -0.0249760
  C        1.8380290     0.7314390    -0.0343340
  C        1.7187040    -0.7521010    -0.3806110
  C        0.5749500     1.5632640    -0.2598230
  C        0.6606850    -1.4828371     0.4082702
  C       -0.6257670     1.1444980     0.6024810
  C       -1.3868420    -0.0349600     0.0307530
  H        2.6566510     1.1652070    -0.6217190
  H        2.1344690     0.8237010     1.0199600
  H        1.5025340    -0.8781880    -1.4483810
  H        2.6863370    -1.2343500    -0.1898600
  H        0.2863390     1.5300770    -1.3181450
  H        0.8108260     2.6104720    -0.0371320
  H        0.7923570    -2.5718330     0.3164690
  H        0.7525260    -1.2638240     1.4882170
  H       -1.3561390     1.9546950     0.6612310
  H       -0.2921570     0.9237120     1.6255030
  H       -1.2491170    -1.9758090    -0.4428220
units angstrom
no_reorient  #important for SAPT in psi4, default
symmetry c1  #important for SAPT in psi4, default
}

set PROPERTIES_ORIGIN ["COM"]
properties('MP2/aug-cc-pvtz', properties = ['dipole'])
--------------------------------------------------------------------------

    Molecular point group: c1
  Charge       = 0
  Multiplicity = 1
  Basis Set: AUG-CC-PVTZ
    Blend: AUG-CC-PVTZ
  Basis Set: (AUG-CC-PVTZ AUX)
    Blend: AUG-CC-PVTZ-JKFIT

    Orbital Energies [Eh]
    ---------------------

    Doubly Occupied:

       1A    -20.508649     2A    -15.578399     3A    -11.342515
       4A    -11.278290     5A    -11.236762     6A    -11.235870
       7A    -11.234143     8A    -11.233292     9A     -1.362975
      10A     -1.226719    11A     -1.094931    12A     -1.044201
      13A     -0.945970    14A     -0.887519    15A     -0.795914
      16A     -0.763346    17A     -0.687039    18A     -0.676450
      19A     -0.626868    20A     -0.612307    21A     -0.601367
      22A     -0.590884    23A     -0.569748    24A     -0.547407
      25A     -0.518756    26A     -0.514731    27A     -0.481235
      28A     -0.471568    29A     -0.469119    30A     -0.410074
      31A     -0.383634

  @DF-RHF Final Energy:  -363.07487641981299

   => Energetics <=

    Nuclear Repulsion Energy =            394.2135806719441007
    One-Electron Energy =               -1274.7155515860597461
    Two-Electron Energy =                 517.4270944943026507
    Total Energy =                       -363.0748764198129948
  Basis Set: (AUG-CC-PVTZ AUX)
    Blend: AUG-CC-PVTZ-RI
    Molecular point group: c1

    Geometry (in Angstrom), charge = 0, multiplicity = 1:

       Center              X                  Y                   Z               Mass
    ------------   -----------------  -----------------  -----------------  -----------------
         O           -2.466672521678     0.074494740039    -0.382372581516    15.994914619570
         N           -0.637309521678    -1.215677259961    -0.014641581516    14.003074004430
         C            1.912993478322     0.739956740039    -0.023999581516    12.000000000000
         C            1.793668478322    -0.743583259961    -0.370276581516    12.000000000000
         C            0.649914478322     1.571781740039    -0.249488581516    12.000000000000
         C            0.735649478322    -1.474319359961     0.418604618484    12.000000000000
         C           -0.550802521678     1.153015740039     0.612815418484    12.000000000000
         C           -1.311877521678    -0.026442259961     0.041087418484    12.000000000000
         H            2.731615478322     1.173724740039    -0.611384581516     1.007825032230
         H            2.209433478322     0.832218740039     1.030294418484     1.007825032230
         H            1.577498478322    -0.869670259961    -1.438046581516     1.007825032230
         H            2.761301478322    -1.225832259961    -0.179525581516     1.007825032230
         H            0.361303478322     1.538594740039    -1.307810581516     1.007825032230
         H            0.885790478322     2.618989740039    -0.026797581516     1.007825032230
         H            0.867321478322    -2.563315259961     0.326803418484     1.007825032230
         H            0.827490478322    -1.255306259961     1.498551418484     1.007825032230
         H           -1.281174521678     1.963212740039     0.671565418484     1.007825032230
         H           -0.217192521678     0.932229740039     1.635837418484     1.007825032230
         H           -1.174152521678    -1.967291259961    -0.432487581516     1.007825032230

  Basis Set: AUG-CC-PVTZ
    Blend: AUG-CC-PVTZ
  Basis Set: (AUG-CC-PVTZ AUX)
    Blend: AUG-CC-PVTZ-JKFIT
	 Reference Energy          =    -363.0748764198129948 [Eh]
	 Singles Energy            =      -0.0000000000000000 [Eh]
	 Same-Spin Energy          =      -0.3778397739039911 [Eh]
	 Opposite-Spin Energy      =      -1.2478221318926894 [Eh]
	 Correlation Energy        =      -1.6256619057966806 [Eh]
	 Total Energy              =    -364.7005383256096707 [Eh]

	 ================> DF-SCS-MP2 Energies <==================
	-----------------------------------------------------------
	 SCS Same-Spin Scale       =       0.3333333333333333 [-]
	 SCS Opposite-Spin Scale   =       1.2000000000000000 [-]
	 SCS Same-Spin Energy      =      -0.1259465913013304 [Eh]
	 SCS Opposite-Spin Energy  =      -1.4973865582712274 [Eh]
	 SCS Correlation Energy    =      -1.6233331495725578 [Eh]
	 SCS Total Energy          =    -364.6982095693855399 [Eh]
	-----------------------------------------------------------

  Dipole Moment: [D]
     X:     4.1078      Y:    -1.0290      Z:     0.8838     Total:     4.3260

*** Psi4 exiting successfully. Buy a developer a beer!
