                               Psi4 1.4a3.dev225

  ==> Input File <==

--------------------------------------------------------------------------
#psi4
#
memory 32 gb

molecule  {
0 1
  O       -2.5416370     0.0659770    -0.3927070
  N       -0.7122740    -1.2241950    -0.0249760
  C        1.8380290     0.7314390    -0.0343340
  C        1.7187040    -0.7521010    -0.3806110
  C        0.5749500     1.5632640    -0.2598230
  C        0.6466580    -1.4925250     0.4187290
  C       -0.6257670     1.1444980     0.6024810
  C       -1.3868420    -0.0349600     0.0307530
  H        2.6566510     1.1652070    -0.6217190
  H        2.1344690     0.8237010     1.0199600
  H        1.5025340    -0.8781880    -1.4483810
  H        2.6863370    -1.2343500    -0.1898600
  H        0.2863390     1.5300770    -1.3181450
  H        0.8108260     2.6104720    -0.0371320
  H        0.7923570    -2.5718330     0.3164690
  H        0.7525260    -1.2638240     1.4882170
  H       -1.3695110     1.9695285     0.6623066
  H       -0.2921570     0.9237120     1.6255030
  H       -1.2491170    -1.9758090    -0.4428220
units angstrom
no_reorient  #important for SAPT in psi4, default
symmetry c1  #important for SAPT in psi4, default
}

set PROPERTIES_ORIGIN ["COM"]
properties('MP2/aug-cc-pvtz', properties = ['dipole'])
--------------------------------------------------------------------------

    Molecular point group: c1
  Charge       = 0
  Multiplicity = 1
  Basis Set: AUG-CC-PVTZ
    Blend: AUG-CC-PVTZ
  Basis Set: (AUG-CC-PVTZ AUX)
    Blend: AUG-CC-PVTZ-JKFIT

    Orbital Energies [Eh]
    ---------------------

    Doubly Occupied:

       1A    -20.509026     2A    -15.578801     3A    -11.343165
       4A    -11.277428     5A    -11.238428     6A    -11.236564
       7A    -11.234439     8A    -11.233145     9A     -1.363434
      10A     -1.228367    11A     -1.093842    12A     -1.041726
      13A     -0.944743    14A     -0.888591    15A     -0.795526
      16A     -0.762920    17A     -0.687963    18A     -0.676843
      19A     -0.626139    20A     -0.611892    21A     -0.601586
      22A     -0.591691    23A     -0.568279    24A     -0.545117
      25A     -0.518874    26A     -0.515859    27A     -0.481241
      28A     -0.470010    29A     -0.469188    30A     -0.410637
      31A     -0.382812

  @DF-RHF Final Energy:  -363.07490229087836

   => Energetics <=

    Nuclear Repulsion Energy =            393.9849384316468104
    One-Electron Energy =               -1274.2631259659256102
    Two-Electron Energy =                 517.2032852434005008
    Total Energy =                       -363.0749022908782990
  Basis Set: (AUG-CC-PVTZ AUX)
    Blend: AUG-CC-PVTZ-RI
    Molecular point group: c1

    Geometry (in Angstrom), charge = 0, multiplicity = 1:

       Center              X                  Y                   Z               Mass
    ------------   -----------------  -----------------  -----------------  -----------------
         O           -2.465064862473     0.075390580035    -0.383492010834    15.994914619570
         N           -0.635701862473    -1.214781419965    -0.015761010834    14.003074004430
         C            1.914601137527     0.740852580035    -0.025119010834    12.000000000000
         C            1.795276137527    -0.742687419965    -0.371396010834    12.000000000000
         C            0.651522137527     1.572677580035    -0.250608010834    12.000000000000
         C            0.723230137527    -1.483111419965     0.427943989166    12.000000000000
         C           -0.549194862473     1.153911580035     0.611695989166    12.000000000000
         C           -1.310269862473    -0.025546419965     0.039967989166    12.000000000000
         H            2.733223137527     1.174620580035    -0.612504010834     1.007825032230
         H            2.211041137527     0.833114580035     1.029174989166     1.007825032230
         H            1.579106137527    -0.868774419965    -1.439166010834     1.007825032230
         H            2.762909137527    -1.224936419965    -0.180645010834     1.007825032230
         H            0.362911137527     1.539490580035    -1.308930010834     1.007825032230
         H            0.887398137527     2.619885580035    -0.027917010834     1.007825032230
         H            0.868929137527    -2.562419419965     0.325683989166     1.007825032230
         H            0.829098137527    -1.254410419965     1.497431989166     1.007825032230
         H           -1.292938862473     1.978942080035     0.671521589166     1.007825032230
         H           -0.215584862473     0.933125580035     1.634717989166     1.007825032230
         H           -1.172544862473    -1.966395419965    -0.433607010834     1.007825032230

  Basis Set: AUG-CC-PVTZ
    Blend: AUG-CC-PVTZ
  Basis Set: (AUG-CC-PVTZ AUX)
    Blend: AUG-CC-PVTZ-JKFIT
	 Reference Energy          =    -363.0749022908783559 [Eh]
	 Singles Energy            =      -0.0000000000000000 [Eh]
	 Same-Spin Energy          =      -0.3777477468831765 [Eh]
	 Opposite-Spin Energy      =      -1.2478297254643529 [Eh]
	 Correlation Energy        =      -1.6255774723475294 [Eh]
	 Total Energy              =    -364.7004797632258715 [Eh]

	 ================> DF-SCS-MP2 Energies <==================
	-----------------------------------------------------------
	 SCS Same-Spin Scale       =       0.3333333333333333 [-]
	 SCS Opposite-Spin Scale   =       1.2000000000000000 [-]
	 SCS Same-Spin Energy      =      -0.1259159156277255 [Eh]
	 SCS Opposite-Spin Energy  =      -1.4973956705572233 [Eh]
	 SCS Correlation Energy    =      -1.6233115861849488 [Eh]
	 SCS Total Energy          =    -364.6982138770633242 [Eh]
	-----------------------------------------------------------

  Dipole Moment: [D]
     X:     4.0765      Y:    -1.0414      Z:     0.8929     Total:     4.3011

*** Psi4 exiting successfully. Buy a developer a beer!
