                               Psi4 1.4a3.dev225

  ==> Input File <==

--------------------------------------------------------------------------
#psi4
#
memory 32 gb

molecule  {
0 1
  O       -2.5416370     0.0659770    -0.3927070
  N       -0.7122740    -1.2241950    -0.0249760
  C        1.8380290     0.7314390    -0.0343340
  C        1.7187040    -0.7521010    -0.3806110
  C        0.5749500     1.5632640    -0.2598230
  C        0.6466580    -1.4925250     0.4187290
  C       -0.6257670     1.1444980     0.6024810
  C       -1.3868420    -0.0349600     0.0307530
  H        2.6566510     1.1652070    -0.6217190
  H        2.1344690     0.8237010     1.0199600
  H        1.5025340    -0.8781880    -1.4483810
  H        2.6863370    -1.2343500    -0.1898600
  H        0.2863390     1.5300770    -1.3181450
  H        0.8215838     2.6582330    -0.0269755
  H        0.7923570    -2.5718330     0.3164690
  H        0.7525260    -1.2638240     1.4882170
  H       -1.3561390     1.9546950     0.6612310
  H       -0.2921570     0.9237120     1.6255030
  H       -1.2491170    -1.9758090    -0.4428220
units angstrom
no_reorient  #important for SAPT in psi4, default
symmetry c1  #important for SAPT in psi4, default
}

set PROPERTIES_ORIGIN ["COM"]
properties('MP2/aug-cc-pvtz', properties = ['dipole'])
--------------------------------------------------------------------------

    Molecular point group: c1
  Charge       = 0
  Multiplicity = 1
  Basis Set: AUG-CC-PVTZ
    Blend: AUG-CC-PVTZ
  Basis Set: (AUG-CC-PVTZ AUX)
    Blend: AUG-CC-PVTZ-JKFIT

    Orbital Energies [Eh]
    ---------------------

    Doubly Occupied:

       1A    -20.509425     2A    -15.579014     3A    -11.343416
       4A    -11.277633     5A    -11.242567     6A    -11.236559
       7A    -11.234772     8A    -11.233498     9A     -1.363799
      10A     -1.228610    11A     -1.093219    12A     -1.042073
      13A     -0.945471    14A     -0.886362    15A     -0.794431
      16A     -0.764107    17A     -0.687519    18A     -0.677201
      19A     -0.624987    20A     -0.611528    21A     -0.600329
      22A     -0.591149    23A     -0.569795    24A     -0.545071
      25A     -0.519454    26A     -0.515566    27A     -0.481482
      28A     -0.470859    29A     -0.466662    30A     -0.410616
      31A     -0.383057

  @DF-RHF Final Energy:  -363.07330514580218

   => Energetics <=

    Nuclear Repulsion Energy =            393.8385323289081725
    One-Electron Energy =               -1273.9632155813919780
    Two-Electron Energy =                 517.0513781066816819
    Total Energy =                       -363.0733051458021237
  Basis Set: (AUG-CC-PVTZ AUX)
    Blend: AUG-CC-PVTZ-RI
    Molecular point group: c1

    Geometry (in Angstrom), charge = 0, multiplicity = 1:

       Center              X                  Y                   Z               Mass
    ------------   -----------------  -----------------  -----------------  -----------------
         O           -2.465279911487     0.075097124374    -0.383572941409    15.994914619570
         N           -0.635916911487    -1.215074875626    -0.015841941409    14.003074004430
         C            1.914386088513     0.740559124374    -0.025199941409    12.000000000000
         C            1.795061088513    -0.742980875626    -0.371476941409    12.000000000000
         C            0.651307088513     1.572384124374    -0.250688941409    12.000000000000
         C            0.723015088513    -1.483404875626     0.427863058591    12.000000000000
         C           -0.549409911487     1.153618124374     0.611615058591    12.000000000000
         C           -1.310484911487    -0.025839875626     0.039887058591    12.000000000000
         H            2.733008088513     1.174327124374    -0.612584941409     1.007825032230
         H            2.210826088513     0.832821124374     1.029094058591     1.007825032230
         H            1.578891088513    -0.869067875626    -1.439246941409     1.007825032230
         H            2.762694088513    -1.225229875626    -0.180725941409     1.007825032230
         H            0.362696088513     1.539197124374    -1.309010941409     1.007825032230
         H            0.897940888513     2.667353124374    -0.017841441409     1.007825032230
         H            0.868714088513    -2.562712875626     0.325603058591     1.007825032230
         H            0.828883088513    -1.254703875626     1.497351058591     1.007825032230
         H           -1.279781911487     1.963815124374     0.670365058591     1.007825032230
         H           -0.215799911487     0.932832124374     1.634637058591     1.007825032230
         H           -1.172759911487    -1.966688875626    -0.433687941409     1.007825032230

  Basis Set: AUG-CC-PVTZ
    Blend: AUG-CC-PVTZ
  Basis Set: (AUG-CC-PVTZ AUX)
    Blend: AUG-CC-PVTZ-JKFIT
	 Reference Energy          =    -363.0733051458021805 [Eh]
	 Singles Energy            =      -0.0000000000000000 [Eh]
	 Same-Spin Energy          =      -0.3777498710494267 [Eh]
	 Opposite-Spin Energy      =      -1.2480535686452139 [Eh]
	 Correlation Energy        =      -1.6258034396946406 [Eh]
	 Total Energy              =    -364.6991085854968446 [Eh]

	 ================> DF-SCS-MP2 Energies <==================
	-----------------------------------------------------------
	 SCS Same-Spin Scale       =       0.3333333333333333 [-]
	 SCS Opposite-Spin Scale   =       1.2000000000000000 [-]
	 SCS Same-Spin Energy      =      -0.1259166236831422 [Eh]
	 SCS Opposite-Spin Energy  =      -1.4976642823742565 [Eh]
	 SCS Correlation Energy    =      -1.6235809060573987 [Eh]
	 SCS Total Energy          =    -364.6968860518595648 [Eh]
	-----------------------------------------------------------

  Dipole Moment: [D]
     X:     4.0630      Y:    -1.0774      Z:     0.8944     Total:     4.2975

*** Psi4 exiting successfully. Buy a developer a beer!
