                               Psi4 1.3.2 release

  ==> Input File <==

--------------------------------------------------------------------------
#psi4
#
memory 32 gb

molecule  {
0 1
  O       -2.5416370     0.0659770    -0.3927070
  N       -0.6956033    -1.1260497    -0.0050655
  C        1.8380290     0.7314390    -0.0343340
  C        1.7187040    -0.7521010    -0.3806110
  C        0.5749500     1.5632640    -0.2598230
  C        0.6466580    -1.4925250     0.4187290
  C       -0.6257670     1.1444980     0.6024810
  C       -1.3868420    -0.0349600     0.0307530
  H        2.6566510     1.1652070    -0.6217190
  H        2.1344690     0.8237010     1.0199600
  H        1.5025340    -0.8781880    -1.4483810
  H        2.6863370    -1.2343500    -0.1898600
  H        0.2863390     1.5300770    -1.3181450
  H        0.8108260     2.6104720    -0.0371320
  H        0.7923570    -2.5718330     0.3164690
  H        0.7525260    -1.2638240     1.4882170
  H       -1.3561390     1.9546950     0.6612310
  H       -0.2921570     0.9237120     1.6255030
  H       -1.2491170    -1.9758090    -0.4428220
units angstrom
no_reorient  #important for SAPT in psi4, default
symmetry c1  #important for SAPT in psi4, default
}

set PROPERTIES_ORIGIN ["COM"]
properties('MP2/aug-cc-pvtz', properties = ['dipole'])
--------------------------------------------------------------------------

    Molecular point group: c1
  Charge       = 0
  Multiplicity = 1
  Basis Set: AUG-CC-PVTZ
    Blend: AUG-CC-PVTZ
  Basis Set: (AUG-CC-PVTZ AUX)
    Blend: AUG-CC-PVTZ-JKFIT

    Orbital Energies [Eh]
    ---------------------

    Doubly Occupied:

       1A    -20.497638     2A    -15.589808     3A    -11.332026
       4A    -11.284225     5A    -11.236847     6A    -11.234639
       7A    -11.233467     8A    -11.229942     9A     -1.363551
      10A     -1.240578    11A     -1.093396    12A     -1.047926
      13A     -0.946725    14A     -0.895356    15A     -0.796275
      16A     -0.755025    17A     -0.696486    18A     -0.673972
      19A     -0.627676    20A     -0.611237    21A     -0.601802
      22A     -0.594849    23A     -0.570115    24A     -0.538098
      25A     -0.521027    26A     -0.509982    27A     -0.481533
      28A     -0.470747    29A     -0.467244    30A     -0.404782
      31A     -0.384641

  @DF-RHF Final Energy:  -363.06076530430835

   => Energetics <=

    Nuclear Repulsion Energy =            395.9960709915848724
    One-Electron Energy =               -1278.2504375740584237
    Two-Electron Energy =                 519.1936012781651471
    Total Energy =                       -363.0607653043083474
  Basis Set: (AUG-CC-PVTZ AUX)
    Blend: AUG-CC-PVTZ-RI
    Molecular point group: c1

    Geometry (in Angstrom), charge = 0, multiplicity = 1:

       Center              X                  Y                   Z               Mass
    ------------   -----------------  -----------------  -----------------  -----------------
         O           -2.467248350344     0.063369555333    -0.385947919992    15.994914619570
         N           -0.621214650344    -1.128657144667     0.001693580008    14.003074004430
         C            1.912417649656     0.728831555333    -0.027574919992    12.000000000000
         C            1.793092649656    -0.754708444667    -0.373851919992    12.000000000000
         C            0.649338649656     1.560656555333    -0.253063919992    12.000000000000
         C            0.721046649656    -1.495132444667     0.425488080008    12.000000000000
         C           -0.551378350344     1.141890555333     0.609240080008    12.000000000000
         C           -1.312453350344    -0.037567444667     0.037512080008    12.000000000000
         H            2.731039649656     1.162599555333    -0.614959919992     1.007825032230
         H            2.208857649656     0.821093555333     1.026719080008     1.007825032230
         H            1.576922649656    -0.880795444667    -1.441621919992     1.007825032230
         H            2.760725649656    -1.236957444667    -0.183100919992     1.007825032230
         H            0.360727649656     1.527469555333    -1.311385919992     1.007825032230
         H            0.885214649656     2.607864555333    -0.030372919992     1.007825032230
         H            0.866745649656    -2.574440444667     0.323228080008     1.007825032230
         H            0.826914649656    -1.266431444667     1.494976080008     1.007825032230
         H           -1.281750350344     1.952087555333     0.667990080008     1.007825032230
         H           -0.217768350344     0.921104555333     1.632262080008     1.007825032230
         H           -1.174728350344    -1.978416444667    -0.436062919992     1.007825032230

  Basis Set: AUG-CC-PVTZ
    Blend: AUG-CC-PVTZ
  Basis Set: (AUG-CC-PVTZ AUX)
    Blend: AUG-CC-PVTZ-JKFIT
	 Reference Energy          =    -363.0607653043083474 [Eh]
	 Singles Energy            =      -0.0000000000000000 [Eh]
	 Same-Spin Energy          =      -0.3786169780396064 [Eh]
	 Opposite-Spin Energy      =      -1.2489948243648386 [Eh]
	 Correlation Energy        =      -1.6276118024044450 [Eh]
	 Total Energy              =    -364.6883771067127782 [Eh]

	 ================> DF-SCS-MP2 Energies <==================
	-----------------------------------------------------------
	 SCS Same-Spin Scale       =       0.3333333333333333 [-]
	 SCS Opposite-Spin Scale   =       1.2000000000000000 [-]
	 SCS Same-Spin Energy      =      -0.1262056593465354 [Eh]
	 SCS Opposite-Spin Energy  =      -1.4987937892378063 [Eh]
	 SCS Correlation Energy    =      -1.6249994485843418 [Eh]
	 SCS Total Energy          =    -364.6857647528926805 [Eh]
	-----------------------------------------------------------

  Dipole Moment: [D]
     X:     4.3735      Y:    -1.4193      Z:     0.9367     Total:     4.6925

*** Psi4 exiting successfully. Buy a developer a beer!
