                               Psi4 1.3.2 release

  ==> Input File <==

--------------------------------------------------------------------------
#psi4
#
memory 32 gb

molecule  {
0 1
  O       -2.5416370     0.0659770    -0.3927070
  N       -0.7122740    -1.2241950    -0.0249760
  C        1.8380290     0.7314390    -0.0343340
  C        1.7187040    -0.7521010    -0.3806110
  C        0.5749500     1.5632640    -0.2598230
  C        0.6413285    -1.5405375     0.4031118
  C       -0.6257670     1.1444980     0.6024810
  C       -1.3868420    -0.0349600     0.0307530
  H        2.6566510     1.1652070    -0.6217190
  H        2.1344690     0.8237010     1.0199600
  H        1.5025340    -0.8781880    -1.4483810
  H        2.6863370    -1.2343500    -0.1898600
  H        0.2863390     1.5300770    -1.3181450
  H        0.8108260     2.6104720    -0.0371320
  H        0.7923570    -2.5718330     0.3164690
  H        0.7525260    -1.2638240     1.4882170
  H       -1.3561390     1.9546950     0.6612310
  H       -0.2921570     0.9237120     1.6255030
  H       -1.2491170    -1.9758090    -0.4428220
units angstrom
no_reorient  #important for SAPT in psi4, default
symmetry c1  #important for SAPT in psi4, default
}

set PROPERTIES_ORIGIN ["COM"]
properties('MP2/aug-cc-pvtz', properties = ['dipole'])
--------------------------------------------------------------------------

    Molecular point group: c1
  Charge       = 0
  Multiplicity = 1
  Basis Set: AUG-CC-PVTZ
    Blend: AUG-CC-PVTZ
  Basis Set: (AUG-CC-PVTZ AUX)
    Blend: AUG-CC-PVTZ-JKFIT

    Orbital Energies [Eh]
    ---------------------

    Doubly Occupied:

       1A    -20.509414     2A    -15.578636     3A    -11.344250
       4A    -11.277062     5A    -11.236567     6A    -11.235880
       7A    -11.235033     8A    -11.233753     9A     -1.363689
      10A     -1.227851    11A     -1.092937    12A     -1.041108
      13A     -0.945863    14A     -0.890940    15A     -0.794013
      16A     -0.763053    17A     -0.688428    18A     -0.679332
      19A     -0.623981    20A     -0.612083    21A     -0.603038
      22A     -0.595461    23A     -0.569680    24A     -0.542706
      25A     -0.521575    26A     -0.512237    27A     -0.481427
      28A     -0.472753    29A     -0.469004    30A     -0.411360
      31A     -0.380174

  @DF-RHF Final Energy:  -363.07263397926636

   => Energetics <=

    Nuclear Repulsion Energy =            393.5526538550496412
    One-Electron Energy =               -1273.3839967215137676
    Two-Electron Energy =                 516.7587088871978267
    Total Energy =                       -363.0726339792663566
  Basis Set: (AUG-CC-PVTZ AUX)
    Blend: AUG-CC-PVTZ-RI
    Molecular point group: c1

    Geometry (in Angstrom), charge = 0, multiplicity = 1:

       Center              X                  Y                   Z               Mass
    ------------   -----------------  -----------------  -----------------  -----------------
         O           -2.464618492208     0.080617661127    -0.381825194043    15.994914619570
         N           -0.635255492208    -1.209554338873    -0.014094194043    14.003074004430
         C            1.915047507792     0.746079661127    -0.023452194043    12.000000000000
         C            1.795722507792    -0.737460338873    -0.369729194043    12.000000000000
         C            0.651968507792     1.577904661127    -0.248941194043    12.000000000000
         C            0.718347007792    -1.525896838873     0.413993605957    12.000000000000
         C           -0.548748492208     1.159138661127     0.613362805957    12.000000000000
         C           -1.309823492208    -0.020319338873     0.041634805957    12.000000000000
         H            2.733669507792     1.179847661127    -0.610837194043     1.007825032230
         H            2.211487507792     0.838341661127     1.030841805957     1.007825032230
         H            1.579552507792    -0.863547338873    -1.437499194043     1.007825032230
         H            2.763355507792    -1.219709338873    -0.178978194043     1.007825032230
         H            0.363357507792     1.544717661127    -1.307263194043     1.007825032230
         H            0.887844507792     2.625112661127    -0.026250194043     1.007825032230
         H            0.869375507792    -2.557192338873     0.327350805957     1.007825032230
         H            0.829544507792    -1.249183338873     1.499098805957     1.007825032230
         H           -1.279120492208     1.969335661127     0.672112805957     1.007825032230
         H           -0.215138492208     0.938352661127     1.636384805957     1.007825032230
         H           -1.172098492208    -1.961168338873    -0.431940194043     1.007825032230

  Basis Set: AUG-CC-PVTZ
    Blend: AUG-CC-PVTZ
  Basis Set: (AUG-CC-PVTZ AUX)
    Blend: AUG-CC-PVTZ-JKFIT
	 Reference Energy          =    -363.0726339792663566 [Eh]
	 Singles Energy            =      -0.0000000000000000 [Eh]
	 Same-Spin Energy          =      -0.3776044580523163 [Eh]
	 Opposite-Spin Energy      =      -1.2476250162780373 [Eh]
	 Correlation Energy        =      -1.6252294743303537 [Eh]
	 Total Energy              =    -364.6978634535967103 [Eh]

	 ================> DF-SCS-MP2 Energies <==================
	-----------------------------------------------------------
	 SCS Same-Spin Scale       =       0.3333333333333333 [-]
	 SCS Opposite-Spin Scale   =       1.2000000000000000 [-]
	 SCS Same-Spin Energy      =      -0.1258681526841054 [Eh]
	 SCS Opposite-Spin Energy  =      -1.4971500195336447 [Eh]
	 SCS Correlation Energy    =      -1.6230181722177501 [Eh]
	 SCS Total Energy          =    -364.6956521514841256 [Eh]
	-----------------------------------------------------------

  Dipole Moment: [D]
     X:     4.0605      Y:    -1.0646      Z:     0.8798     Total:     4.2889

*** Psi4 exiting successfully. Buy a developer a beer!
