                               Psi4 1.3.2 release

  ==> Input File <==

--------------------------------------------------------------------------
#psi4
#
memory 32 gb

molecule  {
0 1
  O       -2.5416370     0.0659770    -0.3927070
  N       -0.7181305    -1.2737881    -0.0341263
  C        1.8380290     0.7314390    -0.0343340
  C        1.7187040    -0.7521010    -0.3806110
  C        0.5749500     1.5632640    -0.2598230
  C        0.6466580    -1.4925250     0.4187290
  C       -0.6257670     1.1444980     0.6024810
  C       -1.3868420    -0.0349600     0.0307530
  H        2.6566510     1.1652070    -0.6217190
  H        2.1344690     0.8237010     1.0199600
  H        1.5025340    -0.8781880    -1.4483810
  H        2.6863370    -1.2343500    -0.1898600
  H        0.2863390     1.5300770    -1.3181450
  H        0.8108260     2.6104720    -0.0371320
  H        0.7923570    -2.5718330     0.3164690
  H        0.7525260    -1.2638240     1.4882170
  H       -1.3561390     1.9546950     0.6612310
  H       -0.2921570     0.9237120     1.6255030
  H       -1.2491170    -1.9758090    -0.4428220
units angstrom
no_reorient  #important for SAPT in psi4, default
symmetry c1  #important for SAPT in psi4, default
}

set PROPERTIES_ORIGIN ["COM"]
properties('MP2/aug-cc-pvtz', properties = ['dipole'])
--------------------------------------------------------------------------

    Molecular point group: c1
  Charge       = 0
  Multiplicity = 1
  Basis Set: AUG-CC-PVTZ
    Blend: AUG-CC-PVTZ
  Basis Set: (AUG-CC-PVTZ AUX)
    Blend: AUG-CC-PVTZ-JKFIT

    Orbital Energies [Eh]
    ---------------------

    Doubly Occupied:

       1A    -20.514929     2A    -15.572854     3A    -11.348245
       4A    -11.274723     5A    -11.239255     6A    -11.237489
       7A    -11.233502     8A    -11.232848     9A     -1.364430
      10A     -1.223111    11A     -1.094911    12A     -1.040084
      13A     -0.946262    14A     -0.884484    15A     -0.796032
      16A     -0.767519    17A     -0.684341    18A     -0.678228
      19A     -0.627192    20A     -0.613122    21A     -0.601611
      22A     -0.589955    23A     -0.569074    24A     -0.549499
      25A     -0.519070    26A     -0.516199    27A     -0.481221
      28A     -0.471791    29A     -0.468703    30A     -0.412535
      31A     -0.381816

  @DF-RHF Final Energy:  -363.07211383190145

   => Energetics <=

    Nuclear Repulsion Energy =            393.1650699257912720
    One-Electron Energy =               -1272.6043012565648951
    Two-Electron Energy =                 516.3671174988721759
    Total Energy =                       -363.0721138319014472
  Basis Set: (AUG-CC-PVTZ AUX)
    Blend: AUG-CC-PVTZ-RI
    Molecular point group: c1

    Geometry (in Angstrom), charge = 0, multiplicity = 1:

       Center              X                  Y                   Z               Mass
    ------------   -----------------  -----------------  -----------------  -----------------
         O           -2.464458832197     0.081663837266    -0.382349353415    15.994914619570
         N           -0.640952332197    -1.258101262734    -0.023768653415    14.003074004430
         C            1.915207167803     0.747125837266    -0.023976353415    12.000000000000
         C            1.795882167803    -0.736414162734    -0.370253353415    12.000000000000
         C            0.652128167803     1.578950837266    -0.249465353415    12.000000000000
         C            0.723836167803    -1.476838162734     0.429086646585    12.000000000000
         C           -0.548588832197     1.160184837266     0.612838646585    12.000000000000
         C           -1.309663832197    -0.019273162734     0.041110646585    12.000000000000
         H            2.733829167803     1.180893837266    -0.611361353415     1.007825032230
         H            2.211647167803     0.839387837266     1.030317646585     1.007825032230
         H            1.579712167803    -0.862501162734    -1.438023353415     1.007825032230
         H            2.763515167803    -1.218663162734    -0.179502353415     1.007825032230
         H            0.363517167803     1.545763837266    -1.307787353415     1.007825032230
         H            0.888004167803     2.626158837266    -0.026774353415     1.007825032230
         H            0.869535167803    -2.556146162734     0.326826646585     1.007825032230
         H            0.829704167803    -1.248137162734     1.498574646585     1.007825032230
         H           -1.278960832197     1.970381837266     0.671588646585     1.007825032230
         H           -0.214978832197     0.939398837266     1.635860646585     1.007825032230
         H           -1.171938832197    -1.960122162734    -0.432464353415     1.007825032230

  Basis Set: AUG-CC-PVTZ
    Blend: AUG-CC-PVTZ
  Basis Set: (AUG-CC-PVTZ AUX)
    Blend: AUG-CC-PVTZ-JKFIT
	 Reference Energy          =    -363.0721138319014472 [Eh]
	 Singles Energy            =      -0.0000000000000000 [Eh]
	 Same-Spin Energy          =      -0.3774709625604740 [Eh]
	 Opposite-Spin Energy      =      -1.2475726498209503 [Eh]
	 Correlation Energy        =      -1.6250436123814243 [Eh]
	 Total Energy              =    -364.6971574442828796 [Eh]

	 ================> DF-SCS-MP2 Energies <==================
	-----------------------------------------------------------
	 SCS Same-Spin Scale       =       0.3333333333333333 [-]
	 SCS Opposite-Spin Scale   =       1.2000000000000000 [-]
	 SCS Same-Spin Energy      =      -0.1258236541868246 [Eh]
	 SCS Opposite-Spin Energy  =      -1.4970871797851404 [Eh]
	 SCS Correlation Energy    =      -1.6229108339719651 [Eh]
	 SCS Total Energy          =    -364.6950246658734045 [Eh]
	-----------------------------------------------------------

  Dipole Moment: [D]
     X:     3.9346      Y:    -0.8236      Z:     0.8811     Total:     4.1153

*** Psi4 exiting successfully. Buy a developer a beer!
