                               Psi4 1.3.2 release

  ==> Input File <==

--------------------------------------------------------------------------
#psi4
#
memory 32 gb

molecule  {
0 1
  O       -2.5416370     0.0659770    -0.3927070
  N       -0.7122740    -1.2241950    -0.0249760
  C        1.8380290     0.7314390    -0.0343340
  C        1.7187040    -0.7521010    -0.3806110
  C        0.5749500     1.5632640    -0.2598230
  C        0.6466580    -1.4925250     0.4187290
  C       -0.6257670     1.1444980     0.6024810
  C       -1.3678010    -0.0248822     0.0410602
  H        2.6566510     1.1652070    -0.6217190
  H        2.1344690     0.8237010     1.0199600
  H        1.5025340    -0.8781880    -1.4483810
  H        2.6863370    -1.2343500    -0.1898600
  H        0.2863390     1.5300770    -1.3181450
  H        0.8108260     2.6104720    -0.0371320
  H        0.7923570    -2.5718330     0.3164690
  H        0.7525260    -1.2638240     1.4882170
  H       -1.3561390     1.9546950     0.6612310
  H       -0.2921570     0.9237120     1.6255030
  H       -1.2491170    -1.9758090    -0.4428220
units angstrom
no_reorient  #important for SAPT in psi4, default
symmetry c1  #important for SAPT in psi4, default
}

set PROPERTIES_ORIGIN ["COM"]
properties('MP2/aug-cc-pvtz', properties = ['dipole'])
--------------------------------------------------------------------------

    Molecular point group: c1
  Charge       = 0
  Multiplicity = 1
  Basis Set: AUG-CC-PVTZ
    Blend: AUG-CC-PVTZ
  Basis Set: (AUG-CC-PVTZ AUX)
    Blend: AUG-CC-PVTZ-JKFIT

    Orbital Energies [Eh]
    ---------------------

    Doubly Occupied:

       1A    -20.506260     2A    -15.580327     3A    -11.344485
       4A    -11.277401     5A    -11.238092     6A    -11.237179
       7A    -11.235025     8A    -11.233973     9A     -1.351818
      10A     -1.226626    11A     -1.095760    12A     -1.044880
      13A     -0.947744    14A     -0.890365    15A     -0.796670
      16A     -0.766381    17A     -0.687602    18A     -0.677468
      19A     -0.626875    20A     -0.612292    21A     -0.602951
      22A     -0.589201    23A     -0.570092    24A     -0.543790
      25A     -0.517368    26A     -0.515672    27A     -0.482139
      28A     -0.471632    29A     -0.468323    30A     -0.410720
      31A     -0.380837

  @DF-RHF Final Energy:  -363.07276649004467

   => Energetics <=

    Nuclear Repulsion Energy =            394.1305295787266232
    One-Electron Energy =               -1274.5466899313914837
    Two-Electron Energy =                 517.3433938626201325
    Total Energy =                       -363.0727664900447280
  Basis Set: (AUG-CC-PVTZ AUX)
    Blend: AUG-CC-PVTZ-RI
    Molecular point group: c1

    Geometry (in Angstrom), charge = 0, multiplicity = 1:

       Center              X                  Y                   Z               Mass
    ------------   -----------------  -----------------  -----------------  -----------------
         O           -2.467204586036     0.074453365509    -0.384576181132    15.994914619570
         N           -0.637841586036    -1.215718634491    -0.016845181132    14.003074004430
         C            1.912461413964     0.739915365509    -0.026203181132    12.000000000000
         C            1.793136413964    -0.743624634491    -0.372480181132    12.000000000000
         C            0.649382413964     1.571740365509    -0.251692181132    12.000000000000
         C            0.721090413964    -1.484048634491     0.426859818868    12.000000000000
         C           -0.551334586036     1.152974365509     0.610611818868    12.000000000000
         C           -1.293368586036    -0.016405834491     0.049191018868    12.000000000000
         H            2.731083413964     1.173683365509    -0.613588181132     1.007825032230
         H            2.208901413964     0.832177365509     1.028090818868     1.007825032230
         H            1.576966413964    -0.869711634491    -1.440250181132     1.007825032230
         H            2.760769413964    -1.225873634491    -0.181729181132     1.007825032230
         H            0.360771413964     1.538553365509    -1.310014181132     1.007825032230
         H            0.885258413964     2.618948365509    -0.029001181132     1.007825032230
         H            0.866789413964    -2.563356634491     0.324599818868     1.007825032230
         H            0.826958413964    -1.255347634491     1.496347818868     1.007825032230
         H           -1.281706586036     1.963171365509     0.669361818868     1.007825032230
         H           -0.217724586036     0.932188365509     1.633633818868     1.007825032230
         H           -1.174684586036    -1.967332634491    -0.434691181132     1.007825032230

  Basis Set: AUG-CC-PVTZ
    Blend: AUG-CC-PVTZ
  Basis Set: (AUG-CC-PVTZ AUX)
    Blend: AUG-CC-PVTZ-JKFIT
	 Reference Energy          =    -363.0727664900446712 [Eh]
	 Singles Energy            =      -0.0000000000000000 [Eh]
	 Same-Spin Energy          =      -0.3782945690157883 [Eh]
	 Opposite-Spin Energy      =      -1.2487239690900098 [Eh]
	 Correlation Energy        =      -1.6270185381057982 [Eh]
	 Total Energy              =    -364.6997850281504725 [Eh]

	 ================> DF-SCS-MP2 Energies <==================
	-----------------------------------------------------------
	 SCS Same-Spin Scale       =       0.3333333333333333 [-]
	 SCS Opposite-Spin Scale   =       1.2000000000000000 [-]
	 SCS Same-Spin Energy      =      -0.1260981896719294 [Eh]
	 SCS Opposite-Spin Energy  =      -1.4984687629080118 [Eh]
	 SCS Correlation Energy    =      -1.6245669525799413 [Eh]
	 SCS Total Energy          =    -364.6973334426245970 [Eh]
	-----------------------------------------------------------

  Dipole Moment: [D]
     X:     4.1964      Y:    -1.0096      Z:     0.9374     Total:     4.4168

*** Psi4 exiting successfully. Buy a developer a beer!
