                               Psi4 1.4a3.dev225

  ==> Input File <==

--------------------------------------------------------------------------
#psi4
#
memory 32 gb

molecule  {
0 1
  O       -2.5416370     0.0659770    -0.3927070
  N       -0.7122740    -1.2241950    -0.0249760
  C        1.8380290     0.7314390    -0.0343340
  C        1.7187040    -0.7521010    -0.3806110
  C        0.5749500     1.5632640    -0.2598230
  C        0.5999433    -1.4833009     0.4034762
  C       -0.6257670     1.1444980     0.6024810
  C       -1.3868420    -0.0349600     0.0307530
  H        2.6566510     1.1652070    -0.6217190
  H        2.1344690     0.8237010     1.0199600
  H        1.5025340    -0.8781880    -1.4483810
  H        2.6863370    -1.2343500    -0.1898600
  H        0.2863390     1.5300770    -1.3181450
  H        0.8108260     2.6104720    -0.0371320
  H        0.7923570    -2.5718330     0.3164690
  H        0.7525260    -1.2638240     1.4882170
  H       -1.3561390     1.9546950     0.6612310
  H       -0.2921570     0.9237120     1.6255030
  H       -1.2491170    -1.9758090    -0.4428220
units angstrom
no_reorient  #important for SAPT in psi4, default
symmetry c1  #important for SAPT in psi4, default
}

set PROPERTIES_ORIGIN ["COM"]
properties('MP2/aug-cc-pvtz', properties = ['dipole'])
--------------------------------------------------------------------------

    Molecular point group: c1
  Charge       = 0
  Multiplicity = 1
  Basis Set: AUG-CC-PVTZ
    Blend: AUG-CC-PVTZ
  Basis Set: (AUG-CC-PVTZ AUX)
    Blend: AUG-CC-PVTZ-JKFIT

    Orbital Energies [Eh]
    ---------------------

    Doubly Occupied:

       1A    -20.511666     2A    -15.580680     3A    -11.345402
       4A    -11.276763     5A    -11.237166     6A    -11.236458
       7A    -11.233592     8A    -11.232027     9A     -1.366730
      10A     -1.240852    11A     -1.093575    12A     -1.039499
      13A     -0.943272    14A     -0.891509    15A     -0.795003
      16A     -0.767370    17A     -0.695274    18A     -0.677783
      19A     -0.628274    20A     -0.609722    21A     -0.603382
      22A     -0.590963    23A     -0.572200    24A     -0.545408
      25A     -0.518220    26A     -0.513523    27A     -0.479927
      28A     -0.470847    29A     -0.466501    30A     -0.413031
      31A     -0.381145

  @DF-RHF Final Energy:  -363.07284663452913

   => Energetics <=

    Nuclear Repulsion Energy =            394.6689591383068318
    One-Electron Energy =               -1275.5680856677083739
    Two-Electron Energy =                 517.8262798948724139
    Total Energy =                       -363.0728466345291281
  Basis Set: (AUG-CC-PVTZ AUX)
    Blend: AUG-CC-PVTZ-RI
    Molecular point group: c1

    Geometry (in Angstrom), charge = 0, multiplicity = 1:

       Center              X                  Y                   Z               Mass
    ------------   -----------------  -----------------  -----------------  -----------------
         O           -2.460226870767     0.074543956523    -0.381863862621    15.994914619570
         N           -0.630863870767    -1.215628043477    -0.014132862621    14.003074004430
         C            1.919439129233     0.740005956523    -0.023490862621    12.000000000000
         C            1.800114129233    -0.743534043477    -0.369767862621    12.000000000000
         C            0.656360129233     1.571830956523    -0.248979862621    12.000000000000
         C            0.681353429233    -1.474733943477     0.414319337379    12.000000000000
         C           -0.544356870767     1.153064956523     0.613324137379    12.000000000000
         C           -1.305431870767    -0.026393043477     0.041596137379    12.000000000000
         H            2.738061129233     1.173773956523    -0.610875862621     1.007825032230
         H            2.215879129233     0.832267956523     1.030803137379     1.007825032230
         H            1.583944129233    -0.869621043477    -1.437537862621     1.007825032230
         H            2.767747129233    -1.225783043477    -0.179016862621     1.007825032230
         H            0.367749129233     1.538643956523    -1.307301862621     1.007825032230
         H            0.892236129233     2.619038956523    -0.026288862621     1.007825032230
         H            0.873767129233    -2.563266043477     0.327312137379     1.007825032230
         H            0.833936129233    -1.255257043477     1.499060137379     1.007825032230
         H           -1.274728870767     1.963261956523     0.672074137379     1.007825032230
         H           -0.210746870767     0.932278956523     1.636346137379     1.007825032230
         H           -1.167706870767    -1.967242043477    -0.431978862621     1.007825032230

  Basis Set: AUG-CC-PVTZ
    Blend: AUG-CC-PVTZ
  Basis Set: (AUG-CC-PVTZ AUX)
    Blend: AUG-CC-PVTZ-JKFIT
	 Reference Energy          =    -363.0728466345291281 [Eh]
	 Singles Energy            =      -0.0000000000000000 [Eh]
	 Same-Spin Energy          =      -0.3780389228576246 [Eh]
	 Opposite-Spin Energy      =      -1.2478155968535463 [Eh]
	 Correlation Energy        =      -1.6258545197111709 [Eh]
	 Total Energy              =    -364.6987011542403252 [Eh]

	 ================> DF-SCS-MP2 Energies <==================
	-----------------------------------------------------------
	 SCS Same-Spin Scale       =       0.3333333333333333 [-]
	 SCS Opposite-Spin Scale   =       1.2000000000000000 [-]
	 SCS Same-Spin Energy      =      -0.1260129742858749 [Eh]
	 SCS Opposite-Spin Energy  =      -1.4973787162242556 [Eh]
	 SCS Correlation Energy    =      -1.6233916905101304 [Eh]
	 SCS Total Energy          =    -364.6962383250392463 [Eh]
	-----------------------------------------------------------

  Dipole Moment: [D]
     X:     3.9131      Y:    -1.0050      Z:     0.8569     Total:     4.1300

*** Psi4 exiting successfully. Buy a developer a beer!
