                               Psi4 1.3.2 release

  ==> Input File <==

--------------------------------------------------------------------------
#psi4
#
memory 32 gb

molecule  {
0 1
  O       -2.5416370     0.0659770    -0.3927070
  N       -0.6370955    -1.1795155     0.0134196
  C        1.8380290     0.7314390    -0.0343340
  C        1.7187040    -0.7521010    -0.3806110
  C        0.5749500     1.5632640    -0.2598230
  C        0.6466580    -1.4925250     0.4187290
  C       -0.6257670     1.1444980     0.6024810
  C       -1.3868420    -0.0349600     0.0307530
  H        2.6566510     1.1652070    -0.6217190
  H        2.1344690     0.8237010     1.0199600
  H        1.5025340    -0.8781880    -1.4483810
  H        2.6863370    -1.2343500    -0.1898600
  H        0.2863390     1.5300770    -1.3181450
  H        0.8108260     2.6104720    -0.0371320
  H        0.7923570    -2.5718330     0.3164690
  H        0.7525260    -1.2638240     1.4882170
  H       -1.3561390     1.9546950     0.6612310
  H       -0.2921570     0.9237120     1.6255030
  H       -1.2491170    -1.9758090    -0.4428220
units angstrom
no_reorient  #important for SAPT in psi4, default
symmetry c1  #important for SAPT in psi4, default
}

set PROPERTIES_ORIGIN ["COM"]
properties('MP2/aug-cc-pvtz', properties = ['dipole'])
--------------------------------------------------------------------------

    Molecular point group: c1
  Charge       = 0
  Multiplicity = 1
  Basis Set: AUG-CC-PVTZ
    Blend: AUG-CC-PVTZ
  Basis Set: (AUG-CC-PVTZ AUX)
    Blend: AUG-CC-PVTZ-JKFIT

    Orbital Energies [Eh]
    ---------------------

    Doubly Occupied:

       1A    -20.514929     2A    -15.585836     3A    -11.347114
       4A    -11.273179     5A    -11.235375     6A    -11.232796
       7A    -11.232227     8A    -11.231521     9A     -1.365732
      10A     -1.244568    11A     -1.090717    12A     -1.045181
      13A     -0.940916    14A     -0.896309    15A     -0.795676
      16A     -0.747844    17A     -0.699080    18A     -0.678706
      19A     -0.627872    20A     -0.607433    21A     -0.604409
      22A     -0.597570    23A     -0.568400    24A     -0.543634
      25A     -0.518722    26A     -0.511468    27A     -0.479615
      28A     -0.469373    29A     -0.467532    30A     -0.412566
      31A     -0.380880

  @DF-RHF Final Energy:  -363.05920266890575

   => Energetics <=

    Nuclear Repulsion Energy =            395.4505082727393415
    One-Electron Energy =               -1277.1250661192452753
    Two-Electron Energy =                 518.6153551776001223
    Total Energy =                       -363.0592026689057548
  Basis Set: (AUG-CC-PVTZ AUX)
    Blend: AUG-CC-PVTZ-RI
    Molecular point group: c1

    Geometry (in Angstrom), charge = 0, multiplicity = 1:

       Center              X                  Y                   Z               Mass
    ------------   -----------------  -----------------  -----------------  -----------------
         O           -2.474493306215     0.069990165946    -0.388236909387    15.994914619570
         N           -0.569951806215    -1.175502334054     0.017889690613    14.003074004430
         C            1.905172693785     0.735452165946    -0.029863909387    12.000000000000
         C            1.785847693785    -0.748087834054    -0.376140909387    12.000000000000
         C            0.642093693785     1.567277165946    -0.255352909387    12.000000000000
         C            0.713801693785    -1.488511834054     0.423199090613    12.000000000000
         C           -0.558623306215     1.148511165946     0.606951090613    12.000000000000
         C           -1.319698306215    -0.030946834054     0.035223090613    12.000000000000
         H            2.723794693785     1.169220165946    -0.617248909387     1.007825032230
         H            2.201612693785     0.827714165946     1.024430090613     1.007825032230
         H            1.569677693785    -0.874174834054    -1.443910909387     1.007825032230
         H            2.753480693785    -1.230336834054    -0.185389909387     1.007825032230
         H            0.353482693785     1.534090165946    -1.313674909387     1.007825032230
         H            0.877969693785     2.614485165946    -0.032661909387     1.007825032230
         H            0.859500693785    -2.567819834054     0.320939090613     1.007825032230
         H            0.819669693785    -1.259810834054     1.492687090613     1.007825032230
         H           -1.288995306215     1.958708165946     0.665701090613     1.007825032230
         H           -0.225013306215     0.927725165946     1.629973090613     1.007825032230
         H           -1.181973306215    -1.971795834054    -0.438351909387     1.007825032230

  Basis Set: AUG-CC-PVTZ
    Blend: AUG-CC-PVTZ
  Basis Set: (AUG-CC-PVTZ AUX)
    Blend: AUG-CC-PVTZ-JKFIT
	 Reference Energy          =    -363.0592026689057548 [Eh]
	 Singles Energy            =      -0.0000000000000000 [Eh]
	 Same-Spin Energy          =      -0.3794926555882816 [Eh]
	 Opposite-Spin Energy      =      -1.2504061556927959 [Eh]
	 Correlation Energy        =      -1.6298988112810775 [Eh]
	 Total Energy              =    -364.6891014801868209 [Eh]

	 ================> DF-SCS-MP2 Energies <==================
	-----------------------------------------------------------
	 SCS Same-Spin Scale       =       0.3333333333333333 [-]
	 SCS Opposite-Spin Scale   =       1.2000000000000000 [-]
	 SCS Same-Spin Energy      =      -0.1264975518627605 [Eh]
	 SCS Opposite-Spin Energy  =      -1.5004873868313551 [Eh]
	 SCS Correlation Energy    =      -1.6269849386941155 [Eh]
	 SCS Total Energy          =    -364.6861876075998907 [Eh]
	-----------------------------------------------------------

  Dipole Moment: [D]
     X:     3.9194      Y:    -1.1241      Z:     0.8499     Total:     4.1651

*** Psi4 exiting successfully. Buy a developer a beer!
