                               Psi4 1.3.2 release

  ==> Input File <==

--------------------------------------------------------------------------
#psi4
#
memory 32 gb

molecule  {
0 1
  O       -2.5351701     0.1909954    -0.3608397
  N       -0.7122740    -1.2241950    -0.0249760
  C        1.8380290     0.7314390    -0.0343340
  C        1.7187040    -0.7521010    -0.3806110
  C        0.5749500     1.5632640    -0.2598230
  C        0.6466580    -1.4925250     0.4187290
  C       -0.6257670     1.1444980     0.6024810
  C       -1.3868420    -0.0349600     0.0307530
  H        2.6566510     1.1652070    -0.6217190
  H        2.1344690     0.8237010     1.0199600
  H        1.5025340    -0.8781880    -1.4483810
  H        2.6863370    -1.2343500    -0.1898600
  H        0.2863390     1.5300770    -1.3181450
  H        0.8108260     2.6104720    -0.0371320
  H        0.7923570    -2.5718330     0.3164690
  H        0.7525260    -1.2638240     1.4882170
  H       -1.3561390     1.9546950     0.6612310
  H       -0.2921570     0.9237120     1.6255030
  H       -1.2491170    -1.9758090    -0.4428220
units angstrom
no_reorient  #important for SAPT in psi4, default
symmetry c1  #important for SAPT in psi4, default
}

set PROPERTIES_ORIGIN ["COM"]
properties('MP2/aug-cc-pvtz', properties = ['dipole'])
--------------------------------------------------------------------------

    Molecular point group: c1
  Charge       = 0
  Multiplicity = 1
  Basis Set: AUG-CC-PVTZ
    Blend: AUG-CC-PVTZ
  Basis Set: (AUG-CC-PVTZ AUX)
    Blend: AUG-CC-PVTZ-JKFIT

    Orbital Energies [Eh]
    ---------------------

    Doubly Occupied:

       1A    -20.510361     2A    -15.585200     3A    -11.343213
       4A    -11.280647     5A    -11.235202     6A    -11.233384
       7A    -11.231992     8A    -11.229331     9A     -1.362635
      10A     -1.234990    11A     -1.092697    12A     -1.040544
      13A     -0.944703    14A     -0.888465    15A     -0.795106
      16A     -0.765226    17A     -0.689397    18A     -0.676729
      19A     -0.626919    20A     -0.612016    21A     -0.601028
      22A     -0.591924    23A     -0.568032    24A     -0.546155
      25A     -0.518658    26A     -0.515908    27A     -0.480469
      28A     -0.468512    29A     -0.467980    30A     -0.406234
      31A     -0.387904

  @DF-RHF Final Energy:  -363.07236602125704

   => Energetics <=

    Nuclear Repulsion Energy =            394.1599290605399233
    One-Electron Energy =               -1274.6014697640864597
    Two-Electron Energy =                 517.3691746822894402
    Total Energy =                       -363.0723660212570394
  Basis Set: (AUG-CC-PVTZ AUX)
    Blend: AUG-CC-PVTZ-RI
    Molecular point group: c1

    Geometry (in Angstrom), charge = 0, multiplicity = 1:

       Center              X                  Y                   Z               Mass
    ------------   -----------------  -----------------  -----------------  -----------------
         O           -2.459631831841     0.182858239538    -0.356122521649    15.994914619570
         N           -0.636735731841    -1.232332160462    -0.020258821649    14.003074004430
         C            1.913567268159     0.723301839538    -0.029616821649    12.000000000000
         C            1.794242268159    -0.760238160462    -0.375893821649    12.000000000000
         C            0.650488268159     1.555126839538    -0.255105821649    12.000000000000
         C            0.722196268159    -1.500662160462     0.423446178351    12.000000000000
         C           -0.550228731841     1.136360839538     0.607198178351    12.000000000000
         C           -1.311303731841    -0.043097160462     0.035470178351    12.000000000000
         H            2.732189268159     1.157069839538    -0.617001821649     1.007825032230
         H            2.210007268159     0.815563839538     1.024677178351     1.007825032230
         H            1.578072268159    -0.886325160462    -1.443663821649     1.007825032230
         H            2.761875268159    -1.242487160462    -0.185142821649     1.007825032230
         H            0.361877268159     1.521939839538    -1.313427821649     1.007825032230
         H            0.886364268159     2.602334839538    -0.032414821649     1.007825032230
         H            0.867895268159    -2.579970160462     0.321186178351     1.007825032230
         H            0.828064268159    -1.271961160462     1.492934178351     1.007825032230
         H           -1.280600731841     1.946557839538     0.665948178351     1.007825032230
         H           -0.216618731841     0.915574839538     1.630220178351     1.007825032230
         H           -1.173578731841    -1.983946160462    -0.438104821649     1.007825032230

  Basis Set: AUG-CC-PVTZ
    Blend: AUG-CC-PVTZ
  Basis Set: (AUG-CC-PVTZ AUX)
    Blend: AUG-CC-PVTZ-JKFIT
	 Reference Energy          =    -363.0723660212570394 [Eh]
	 Singles Energy            =      -0.0000000000000000 [Eh]
	 Same-Spin Energy          =      -0.3778145490639892 [Eh]
	 Opposite-Spin Energy      =      -1.2479643558019506 [Eh]
	 Correlation Energy        =      -1.6257789048659399 [Eh]
	 Total Energy              =    -364.6981449261230068 [Eh]

	 ================> DF-SCS-MP2 Energies <==================
	-----------------------------------------------------------
	 SCS Same-Spin Scale       =       0.3333333333333333 [-]
	 SCS Opposite-Spin Scale   =       1.2000000000000000 [-]
	 SCS Same-Spin Energy      =      -0.1259381830213297 [Eh]
	 SCS Opposite-Spin Energy  =      -1.4975572269623407 [Eh]
	 SCS Correlation Energy    =      -1.6234954099836705 [Eh]
	 SCS Total Energy          =    -364.6958614312407008 [Eh]
	-----------------------------------------------------------

  Dipole Moment: [D]
     X:     4.0340      Y:    -1.3869      Z:     0.8125     Total:     4.3424

*** Psi4 exiting successfully. Buy a developer a beer!
