                               Psi4 1.3.2 release

  ==> Input File <==

--------------------------------------------------------------------------
#psi4
#
memory 32 gb

molecule  {
0 1
  O       -2.5416370     0.0659770    -0.3927070
  N       -0.7122740    -1.2241950    -0.0249760
  C        1.8380290     0.7314390    -0.0343340
  C        1.7187040    -0.7521010    -0.3806110
  C        0.5749500     1.5632640    -0.2598230
  C        0.6466580    -1.4925250     0.4187290
  C       -0.6262987     1.2436899     0.6432431
  C       -1.3868420    -0.0349600     0.0307530
  H        2.6566510     1.1652070    -0.6217190
  H        2.1344690     0.8237010     1.0199600
  H        1.5025340    -0.8781880    -1.4483810
  H        2.6863370    -1.2343500    -0.1898600
  H        0.2863390     1.5300770    -1.3181450
  H        0.8108260     2.6104720    -0.0371320
  H        0.7923570    -2.5718330     0.3164690
  H        0.7525260    -1.2638240     1.4882170
  H       -1.3561390     1.9546950     0.6612310
  H       -0.2921570     0.9237120     1.6255030
  H       -1.2491170    -1.9758090    -0.4428220
units angstrom
no_reorient  #important for SAPT in psi4, default
symmetry c1  #important for SAPT in psi4, default
}

set PROPERTIES_ORIGIN ["COM"]
properties('MP2/aug-cc-pvtz', properties = ['dipole'])
--------------------------------------------------------------------------

    Molecular point group: c1
  Charge       = 0
  Multiplicity = 1
  Basis Set: AUG-CC-PVTZ
    Blend: AUG-CC-PVTZ
  Basis Set: (AUG-CC-PVTZ AUX)
    Blend: AUG-CC-PVTZ-JKFIT

    Orbital Energies [Eh]
    ---------------------

    Doubly Occupied:

       1A    -20.508181     2A    -15.579642     3A    -11.344293
       4A    -11.277504     5A    -11.235898     6A    -11.235197
       7A    -11.234548     8A    -11.233948     9A     -1.360765
      10A     -1.226841    11A     -1.093254    12A     -1.038517
      13A     -0.944920    14A     -0.882777    15A     -0.794122
      16A     -0.768624    17A     -0.686342    18A     -0.670613
      19A     -0.626355    20A     -0.613164    21A     -0.606153
      22A     -0.586764    23A     -0.579322    24A     -0.540725
      25A     -0.525469    26A     -0.513832    27A     -0.482420
      28A     -0.478716    29A     -0.467360    30A     -0.398099
      31A     -0.382640

  @DF-RHF Final Energy:  -363.06555113297685

   => Energetics <=

    Nuclear Repulsion Energy =            392.4561412842750769
    One-Electron Energy =               -1271.2093758625726423
    Two-Electron Energy =                 515.6876834453206584
    Total Energy =                       -363.0655511329769070
  Basis Set: (AUG-CC-PVTZ AUX)
    Blend: AUG-CC-PVTZ-RI
    Molecular point group: c1

    Geometry (in Angstrom), charge = 0, multiplicity = 1:

       Center              X                  Y                   Z               Mass
    ------------   -----------------  -----------------  -----------------  -----------------
         O           -2.465127614342     0.064996956159    -0.387807925616    15.994914619570
         N           -0.635764614342    -1.225175043841    -0.020076925616    14.003074004430
         C            1.914538385658     0.730458956159    -0.029434925616    12.000000000000
         C            1.795213385658    -0.753081043841    -0.375711925616    12.000000000000
         C            0.651459385658     1.562283956159    -0.254923925616    12.000000000000
         C            0.723167385658    -1.493505043841     0.423628074384    12.000000000000
         C           -0.549789314342     1.242709856159     0.648142174384    12.000000000000
         C           -1.310332614342    -0.035940043841     0.035652074384    12.000000000000
         H            2.733160385658     1.164226956159    -0.616819925616     1.007825032230
         H            2.210978385658     0.822720956159     1.024859074384     1.007825032230
         H            1.579043385658    -0.879168043841    -1.443481925616     1.007825032230
         H            2.762846385658    -1.235330043841    -0.184960925616     1.007825032230
         H            0.362848385658     1.529096956159    -1.313245925616     1.007825032230
         H            0.887335385658     2.609491956159    -0.032232925616     1.007825032230
         H            0.868866385658    -2.572813043841     0.321368074384     1.007825032230
         H            0.829035385658    -1.264804043841     1.493116074384     1.007825032230
         H           -1.279629614342     1.953714956159     0.666130074384     1.007825032230
         H           -0.215647614342     0.922731956159     1.630402074384     1.007825032230
         H           -1.172607614342    -1.976789043841    -0.437922925616     1.007825032230

  Basis Set: AUG-CC-PVTZ
    Blend: AUG-CC-PVTZ
  Basis Set: (AUG-CC-PVTZ AUX)
    Blend: AUG-CC-PVTZ-JKFIT
	 Reference Energy          =    -363.0655511329768501 [Eh]
	 Singles Energy            =      -0.0000000000000000 [Eh]
	 Same-Spin Energy          =      -0.3773074695171186 [Eh]
	 Opposite-Spin Energy      =      -1.2474828962729849 [Eh]
	 Correlation Energy        =      -1.6247903657901035 [Eh]
	 Total Energy              =    -364.6903414987669407 [Eh]

	 ================> DF-SCS-MP2 Energies <==================
	-----------------------------------------------------------
	 SCS Same-Spin Scale       =       0.3333333333333333 [-]
	 SCS Opposite-Spin Scale   =       1.2000000000000000 [-]
	 SCS Same-Spin Energy      =      -0.1257691565057062 [Eh]
	 SCS Opposite-Spin Energy  =      -1.4969794755275818 [Eh]
	 SCS Correlation Energy    =      -1.6227486320332880 [Eh]
	 SCS Total Energy          =    -364.6882997650101288 [Eh]
	-----------------------------------------------------------

  Dipole Moment: [D]
     X:     4.0365      Y:    -1.0867      Z:     0.8792     Total:     4.2717

*** Psi4 exiting successfully. Buy a developer a beer!
