                               Psi4 1.3.2 release

  ==> Input File <==

--------------------------------------------------------------------------
#psi4
#
memory 32 gb

molecule  {
0 1
  O       -2.5416370     0.0659770    -0.3927070
  N       -0.7122740    -1.2241950    -0.0249760
  C        1.8428450     0.7248835    -0.0089351
  C        1.7187040    -0.7521010    -0.3806110
  C        0.5749500     1.5632640    -0.2598230
  C        0.6466580    -1.4925250     0.4187290
  C       -0.6257670     1.1444980     0.6024810
  C       -1.3868420    -0.0349600     0.0307530
  H        2.6566510     1.1652070    -0.6217190
  H        2.1344690     0.8237010     1.0199600
  H        1.5025340    -0.8781880    -1.4483810
  H        2.6863370    -1.2343500    -0.1898600
  H        0.2863390     1.5300770    -1.3181450
  H        0.8108260     2.6104720    -0.0371320
  H        0.7923570    -2.5718330     0.3164690
  H        0.7525260    -1.2638240     1.4882170
  H       -1.3561390     1.9546950     0.6612310
  H       -0.2921570     0.9237120     1.6255030
  H       -1.2491170    -1.9758090    -0.4428220
units angstrom
no_reorient  #important for SAPT in psi4, default
symmetry c1  #important for SAPT in psi4, default
}

set PROPERTIES_ORIGIN ["COM"]
properties('MP2/aug-cc-pvtz', properties = ['dipole'])
--------------------------------------------------------------------------

    Molecular point group: c1
  Charge       = 0
  Multiplicity = 1
  Basis Set: AUG-CC-PVTZ
    Blend: AUG-CC-PVTZ
  Basis Set: (AUG-CC-PVTZ AUX)
    Blend: AUG-CC-PVTZ-JKFIT

    Orbital Energies [Eh]
    ---------------------

    Doubly Occupied:

       1A    -20.508930     2A    -15.578560     3A    -11.342872
       4A    -11.277047     5A    -11.236903     6A    -11.235614
       7A    -11.234311     8A    -11.232498     9A     -1.363326
      10A     -1.228154    11A     -1.092989    12A     -1.042145
      13A     -0.944516    14A     -0.887864    15A     -0.797538
      16A     -0.763736    17A     -0.687735    18A     -0.676061
      19A     -0.625289    20A     -0.612217    21A     -0.602781
      22A     -0.591763    23A     -0.569090    24A     -0.544397
      25A     -0.519201    26A     -0.516018    27A     -0.487476
      28A     -0.468040    29A     -0.466832    30A     -0.410324
      31A     -0.382556

  @DF-RHF Final Energy:  -363.07480714873037

   => Energetics <=

    Nuclear Repulsion Energy =            394.0291225296381299
    One-Electron Energy =               -1274.3542926009704388
    Two-Electron Energy =                 517.2503629226018802
    Total Energy =                       -363.0748071487304287
  Basis Set: (AUG-CC-PVTZ AUX)
    Blend: AUG-CC-PVTZ-RI
    Molecular point group: c1

    Geometry (in Angstrom), charge = 0, multiplicity = 1:

       Center              X                  Y                   Z               Mass
    ------------   -----------------  -----------------  -----------------  -----------------
         O           -2.465695089526     0.076218420575    -0.386177648161    15.994914619570
         N           -0.636332089526    -1.213953579425    -0.018446648161    14.003074004430
         C            1.918786910474     0.735124920575    -0.002405748161    12.000000000000
         C            1.794645910474    -0.741859579425    -0.374081648161    12.000000000000
         C            0.650891910474     1.573505420575    -0.253293648161    12.000000000000
         C            0.722599910474    -1.482283579425     0.425258351839    12.000000000000
         C           -0.549825089526     1.154739420575     0.609010351839    12.000000000000
         C           -1.310900089526    -0.024718579425     0.037282351839    12.000000000000
         H            2.732592910474     1.175448420575    -0.615189648161     1.007825032230
         H            2.210410910474     0.833942420575     1.026489351839     1.007825032230
         H            1.578475910474    -0.867946579425    -1.441851648161     1.007825032230
         H            2.762278910474    -1.224108579425    -0.183330648161     1.007825032230
         H            0.362280910474     1.540318420575    -1.311615648161     1.007825032230
         H            0.886767910474     2.620713420575    -0.030602648161     1.007825032230
         H            0.868298910474    -2.561591579425     0.322998351839     1.007825032230
         H            0.828467910474    -1.253582579425     1.494746351839     1.007825032230
         H           -1.280197089526     1.964936420575     0.667760351839     1.007825032230
         H           -0.216215089526     0.933953420575     1.632032351839     1.007825032230
         H           -1.173175089526    -1.965567579425    -0.436292648161     1.007825032230

  Basis Set: AUG-CC-PVTZ
    Blend: AUG-CC-PVTZ
  Basis Set: (AUG-CC-PVTZ AUX)
    Blend: AUG-CC-PVTZ-JKFIT
	 Reference Energy          =    -363.0748071487303719 [Eh]
	 Singles Energy            =      -0.0000000000000000 [Eh]
	 Same-Spin Energy          =      -0.3776715930794249 [Eh]
	 Opposite-Spin Energy      =      -1.2476391884292075 [Eh]
	 Correlation Energy        =      -1.6253107815086323 [Eh]
	 Total Energy              =    -364.7001179302390028 [Eh]

	 ================> DF-SCS-MP2 Energies <==================
	-----------------------------------------------------------
	 SCS Same-Spin Scale       =       0.3333333333333333 [-]
	 SCS Opposite-Spin Scale   =       1.2000000000000000 [-]
	 SCS Same-Spin Energy      =      -0.1258905310264750 [Eh]
	 SCS Opposite-Spin Energy  =      -1.4971670261150489 [Eh]
	 SCS Correlation Energy    =      -1.6230575571415238 [Eh]
	 SCS Total Energy          =    -364.6978647058718934 [Eh]
	-----------------------------------------------------------

  Dipole Moment: [D]
     X:     4.0771      Y:    -1.0375      Z:     0.9090     Total:     4.3041

*** Psi4 exiting successfully. Buy a developer a beer!
