                               Psi4 1.4a3.dev225

  ==> Input File <==

--------------------------------------------------------------------------
#psi4
#
memory 32 gb

molecule  {
0 1
  O       -2.5416370     0.0659770    -0.3927070
  N       -0.7122740    -1.2241950    -0.0249760
  C        1.8380290     0.7314390    -0.0343340
  C        1.7187040    -0.7521010    -0.3806110
  C        0.5749500     1.5632640    -0.2598230
  C        0.6466580    -1.4925250     0.4187290
  C       -0.6257670     1.1444980     0.6024810
  C       -1.3968848    -0.0505236     0.0232087
  H        2.6566510     1.1652070    -0.6217190
  H        2.1344690     0.8237010     1.0199600
  H        1.5025340    -0.8781880    -1.4483810
  H        2.6863370    -1.2343500    -0.1898600
  H        0.2863390     1.5300770    -1.3181450
  H        0.8108260     2.6104720    -0.0371320
  H        0.7923570    -2.5718330     0.3164690
  H        0.7525260    -1.2638240     1.4882170
  H       -1.3561390     1.9546950     0.6612310
  H       -0.2921570     0.9237120     1.6255030
  H       -1.2491170    -1.9758090    -0.4428220
units angstrom
no_reorient  #important for SAPT in psi4, default
symmetry c1  #important for SAPT in psi4, default
}

set PROPERTIES_ORIGIN ["COM"]
properties('MP2/aug-cc-pvtz', properties = ['dipole'])
--------------------------------------------------------------------------

    Molecular point group: c1
  Charge       = 0
  Multiplicity = 1
  Basis Set: AUG-CC-PVTZ
    Blend: AUG-CC-PVTZ
  Basis Set: (AUG-CC-PVTZ AUX)
    Blend: AUG-CC-PVTZ-JKFIT

    Orbital Energies [Eh]
    ---------------------

    Doubly Occupied:

       1A    -20.509495     2A    -15.579141     3A    -11.341539
       4A    -11.278283     5A    -11.235368     6A    -11.234755
       7A    -11.234457     8A    -11.232510     9A     -1.369640
      10A     -1.231693    11A     -1.093063    12A     -1.040296
      13A     -0.944220    14A     -0.887728    15A     -0.794918
      16A     -0.763779    17A     -0.689325    18A     -0.675644
      19A     -0.626606    20A     -0.611600    21A     -0.601421
      22A     -0.592974    23A     -0.570188    24A     -0.545358
      25A     -0.521201    26A     -0.515555    27A     -0.480787
      28A     -0.470775    29A     -0.468889    30A     -0.408619
      31A     -0.384701

  @DF-RHF Final Energy:  -363.07621738817937

   => Energetics <=

    Nuclear Repulsion Energy =            394.0948467985396064
    One-Electron Energy =               -1274.4730654234756457
    Two-Electron Energy =                 517.3020012367566096
    Total Energy =                       -363.0762173881794297
  Basis Set: (AUG-CC-PVTZ AUX)
    Blend: AUG-CC-PVTZ-RI
    Molecular point group: c1

    Geometry (in Angstrom), charge = 0, multiplicity = 1:

       Center              X                  Y                   Z               Mass
    ------------   -----------------  -----------------  -----------------  -----------------
         O           -2.464118336854     0.077174321842    -0.382681855862    15.994914619570
         N           -0.634755336854    -1.212997678158    -0.014950855862    14.003074004430
         C            1.915547663146     0.742636321842    -0.024308855862    12.000000000000
         C            1.796222663146    -0.740903678158    -0.370585855862    12.000000000000
         C            0.652468663146     1.574461321842    -0.249797855862    12.000000000000
         C            0.724176663146    -1.481327678158     0.428754144138    12.000000000000
         C           -0.548248336854     1.155695321842     0.612506144138    12.000000000000
         C           -1.319366136854    -0.039326278158     0.033233844138    12.000000000000
         H            2.734169663146     1.176404321842    -0.611693855862     1.007825032230
         H            2.211987663146     0.834898321842     1.029985144138     1.007825032230
         H            1.580052663146    -0.866990678158    -1.438355855862     1.007825032230
         H            2.763855663146    -1.223152678158    -0.179834855862     1.007825032230
         H            0.363857663146     1.541274321842    -1.308119855862     1.007825032230
         H            0.888344663146     2.621669321842    -0.027106855862     1.007825032230
         H            0.869875663146    -2.560635678158     0.326494144138     1.007825032230
         H            0.830044663146    -1.252626678158     1.498242144138     1.007825032230
         H           -1.278620336854     1.965892321842     0.671256144138     1.007825032230
         H           -0.214638336854     0.934909321842     1.635528144138     1.007825032230
         H           -1.171598336854    -1.964611678158    -0.432796855862     1.007825032230

  Basis Set: AUG-CC-PVTZ
    Blend: AUG-CC-PVTZ
  Basis Set: (AUG-CC-PVTZ AUX)
    Blend: AUG-CC-PVTZ-JKFIT
	 Reference Energy          =    -363.0762173881793728 [Eh]
	 Singles Energy            =      -0.0000000000000000 [Eh]
	 Same-Spin Energy          =      -0.3773821048581571 [Eh]
	 Opposite-Spin Energy      =      -1.2470249924410468 [Eh]
	 Correlation Energy        =      -1.6244070972992040 [Eh]
	 Total Energy              =    -364.7006244854785564 [Eh]

	 ================> DF-SCS-MP2 Energies <==================
	-----------------------------------------------------------
	 SCS Same-Spin Scale       =       0.3333333333333333 [-]
	 SCS Opposite-Spin Scale   =       1.2000000000000000 [-]
	 SCS Same-Spin Energy      =      -0.1257940349527190 [Eh]
	 SCS Opposite-Spin Energy  =      -1.4964299909292562 [Eh]
	 SCS Correlation Energy    =      -1.6222240258819753 [Eh]
	 SCS Total Energy          =    -364.6984414140613353 [Eh]
	-----------------------------------------------------------

  Dipole Moment: [D]
     X:     4.0319      Y:    -1.1133      Z:     0.8694     Total:     4.2722

*** Psi4 exiting successfully. Buy a developer a beer!
