                               Psi4 1.4a3.dev225

  ==> Input File <==

--------------------------------------------------------------------------
#psi4
#
memory 32 gb

molecule  {
0 1
  O       -2.5416370     0.0659770    -0.3927070
  N       -0.7122740    -1.2241950    -0.0249760
  C        1.8380290     0.7314390    -0.0343340
  C        1.7187040    -0.7521010    -0.3806110
  C        0.5749500     1.5632640    -0.2598230
  C        0.6466580    -1.4925250     0.4187290
  C       -0.6101372     1.1499491     0.5912563
  C       -1.3868420    -0.0349600     0.0307530
  H        2.6566510     1.1652070    -0.6217190
  H        2.1344690     0.8237010     1.0199600
  H        1.5025340    -0.8781880    -1.4483810
  H        2.6863370    -1.2343500    -0.1898600
  H        0.2863390     1.5300770    -1.3181450
  H        0.8108260     2.6104720    -0.0371320
  H        0.7923570    -2.5718330     0.3164690
  H        0.7525260    -1.2638240     1.4882170
  H       -1.3561390     1.9546950     0.6612310
  H       -0.2921570     0.9237120     1.6255030
  H       -1.2491170    -1.9758090    -0.4428220
units angstrom
no_reorient  #important for SAPT in psi4, default
symmetry c1  #important for SAPT in psi4, default
}

set PROPERTIES_ORIGIN ["COM"]
properties('MP2/aug-cc-pvtz', properties = ['dipole'])
--------------------------------------------------------------------------

    Molecular point group: c1
  Charge       = 0
  Multiplicity = 1
  Basis Set: AUG-CC-PVTZ
    Blend: AUG-CC-PVTZ
  Basis Set: (AUG-CC-PVTZ AUX)
    Blend: AUG-CC-PVTZ-JKFIT

    Orbital Energies [Eh]
    ---------------------

    Doubly Occupied:

       1A    -20.509534     2A    -15.578706     3A    -11.343478
       4A    -11.277322     5A    -11.236988     6A    -11.235289
       7A    -11.234402     8A    -11.232990     9A     -1.363476
      10A     -1.228337    11A     -1.095649    12A     -1.042836
      13A     -0.944552    14A     -0.888619    15A     -0.795936
      16A     -0.763196    17A     -0.688007    18A     -0.676470
      19A     -0.626931    20A     -0.612313    21A     -0.601443
      22A     -0.592110    23A     -0.568442    24A     -0.547123
      25A     -0.518975    26A     -0.514905    27A     -0.481093
      28A     -0.472487    29A     -0.468532    30A     -0.410103
      31A     -0.382839

  @DF-RHF Final Energy:  -363.07479983185982

   => Energetics <=

    Nuclear Repulsion Energy =            394.2063160694177668
    One-Electron Energy =               -1274.6960650151897880
    Two-Electron Energy =                 517.4149491139121437
    Total Energy =                       -363.0747998318598775
  Basis Set: (AUG-CC-PVTZ AUX)
    Blend: AUG-CC-PVTZ-RI
    Molecular point group: c1

    Geometry (in Angstrom), charge = 0, multiplicity = 1:

       Center              X                  Y                   Z               Mass
    ------------   -----------------  -----------------  -----------------  -----------------
         O           -2.466842603998     0.074944331239    -0.382291307464    15.994914619570
         N           -0.637479603998    -1.215227668761    -0.014560307464    14.003074004430
         C            1.912823396002     0.740406331239    -0.023918307464    12.000000000000
         C            1.793498396002    -0.743133668761    -0.370195307464    12.000000000000
         C            0.649744396002     1.572231331239    -0.249407307464    12.000000000000
         C            0.721452396002    -1.483557668761     0.429144692536    12.000000000000
         C           -0.535342803998     1.158916431239     0.601671992536    12.000000000000
         C           -1.312047603998    -0.025992668761     0.041168692536    12.000000000000
         H            2.731445396002     1.174174331239    -0.611303307464     1.007825032230
         H            2.209263396002     0.832668331239     1.030375692536     1.007825032230
         H            1.577328396002    -0.869220668761    -1.437965307464     1.007825032230
         H            2.761131396002    -1.225382668761    -0.179444307464     1.007825032230
         H            0.361133396002     1.539044331239    -1.307729307464     1.007825032230
         H            0.885620396002     2.619439331239    -0.026716307464     1.007825032230
         H            0.867151396002    -2.562865668761     0.326884692536     1.007825032230
         H            0.827320396002    -1.254856668761     1.498632692536     1.007825032230
         H           -1.281344603998     1.963662331239     0.671646692536     1.007825032230
         H           -0.217362603998     0.932679331239     1.635918692536     1.007825032230
         H           -1.174322603998    -1.966841668761    -0.432406307464     1.007825032230

  Basis Set: AUG-CC-PVTZ
    Blend: AUG-CC-PVTZ
  Basis Set: (AUG-CC-PVTZ AUX)
    Blend: AUG-CC-PVTZ-JKFIT
	 Reference Energy          =    -363.0747998318598206 [Eh]
	 Singles Energy            =      -0.0000000000000000 [Eh]
	 Same-Spin Energy          =      -0.3778607477027388 [Eh]
	 Opposite-Spin Energy      =      -1.2478430712356310 [Eh]
	 Correlation Energy        =      -1.6257038189383697 [Eh]
	 Total Energy              =    -364.7005036507981686 [Eh]

	 ================> DF-SCS-MP2 Energies <==================
	-----------------------------------------------------------
	 SCS Same-Spin Scale       =       0.3333333333333333 [-]
	 SCS Opposite-Spin Scale   =       1.2000000000000000 [-]
	 SCS Same-Spin Energy      =      -0.1259535825675796 [Eh]
	 SCS Opposite-Spin Energy  =      -1.4974116854827570 [Eh]
	 SCS Correlation Energy    =      -1.6233652680503365 [Eh]
	 SCS Total Energy          =    -364.6981650999101703 [Eh]
	-----------------------------------------------------------

  Dipole Moment: [D]
     X:     4.0638      Y:    -1.0454      Z:     0.8852     Total:     4.2885

*** Psi4 exiting successfully. Buy a developer a beer!
