                               Psi4 1.3.2 release

  ==> Input File <==

--------------------------------------------------------------------------
#psi4
#
memory 32 gb

molecule  {
0 1
  O       -2.5416370     0.0659770    -0.3927070
  N       -0.7122740    -1.2241950    -0.0249760
  C        1.8380290     0.7314390    -0.0343340
  C        1.6781682    -0.7559239    -0.3461564
  C        0.5749500     1.5632640    -0.2598230
  C        0.6466580    -1.4925250     0.4187290
  C       -0.6257670     1.1444980     0.6024810
  C       -1.3868420    -0.0349600     0.0307530
  H        2.6566510     1.1652070    -0.6217190
  H        2.1344690     0.8237010     1.0199600
  H        1.5025340    -0.8781880    -1.4483810
  H        2.6863370    -1.2343500    -0.1898600
  H        0.2863390     1.5300770    -1.3181450
  H        0.8108260     2.6104720    -0.0371320
  H        0.7923570    -2.5718330     0.3164690
  H        0.7525260    -1.2638240     1.4882170
  H       -1.3561390     1.9546950     0.6612310
  H       -0.2921570     0.9237120     1.6255030
  H       -1.2491170    -1.9758090    -0.4428220
units angstrom
no_reorient  #important for SAPT in psi4, default
symmetry c1  #important for SAPT in psi4, default
}

set PROPERTIES_ORIGIN ["COM"]
properties('MP2/aug-cc-pvtz', properties = ['dipole'])
--------------------------------------------------------------------------

    Molecular point group: c1
  Charge       = 0
  Multiplicity = 1
  Basis Set: AUG-CC-PVTZ
    Blend: AUG-CC-PVTZ
  Basis Set: (AUG-CC-PVTZ AUX)
    Blend: AUG-CC-PVTZ-JKFIT

    Orbital Energies [Eh]
    ---------------------

    Doubly Occupied:

       1A    -20.509173     2A    -15.578474     3A    -11.343270
       4A    -11.276285     5A    -11.236740     6A    -11.236514
       7A    -11.235900     8A    -11.233814     9A     -1.363649
      10A     -1.230237    11A     -1.095276    12A     -1.046154
      13A     -0.948905    14A     -0.886474    15A     -0.793095
      16A     -0.764780    17A     -0.689380    18A     -0.678692
      19A     -0.627278    20A     -0.614109    21A     -0.601207
      22A     -0.592687    23A     -0.567921    24A     -0.550885
      25A     -0.519655    26A     -0.511585    27A     -0.476134
      28A     -0.474588    29A     -0.465065    30A     -0.410686
      31A     -0.384708

  @DF-RHF Final Energy:  -363.07196203185498

   => Energetics <=

    Nuclear Repulsion Energy =            394.8443907518549167
    One-Electron Energy =               -1275.9460666698364548
    Two-Electron Energy =                 518.0297138861266149
    Total Energy =                       -363.0719620318549232
  Basis Set: (AUG-CC-PVTZ AUX)
    Blend: AUG-CC-PVTZ-RI
    Molecular point group: c1

    Geometry (in Angstrom), charge = 0, multiplicity = 1:

       Center              X                  Y                   Z               Mass
    ------------   -----------------  -----------------  -----------------  -----------------
         O           -2.460882549360     0.075928448683    -0.387138600538    15.994914619570
         N           -0.631519549360    -1.214243551317    -0.019407600538    14.003074004430
         C            1.918783450640     0.741390448683    -0.028765600538    12.000000000000
         C            1.758922650640    -0.745972451317    -0.340588000538    12.000000000000
         C            0.655704450640     1.573215448683    -0.254254600538    12.000000000000
         C            0.727412450640    -1.482573551317     0.424297399462    12.000000000000
         C           -0.545012549360     1.154449448683     0.608049399462    12.000000000000
         C           -1.306087549360    -0.025008551317     0.036321399462    12.000000000000
         H            2.737405450640     1.175158448683    -0.616150600538     1.007825032230
         H            2.215223450640     0.833652448683     1.025528399462     1.007825032230
         H            1.583288450640    -0.868236551317    -1.442812600538     1.007825032230
         H            2.767091450640    -1.224398551317    -0.184291600538     1.007825032230
         H            0.367093450640     1.540028448683    -1.312576600538     1.007825032230
         H            0.891580450640     2.620423448683    -0.031563600538     1.007825032230
         H            0.873111450640    -2.561881551317     0.322037399462     1.007825032230
         H            0.833280450640    -1.253872551317     1.493785399462     1.007825032230
         H           -1.275384549360     1.964646448683     0.666799399462     1.007825032230
         H           -0.211402549360     0.933663448683     1.631071399462     1.007825032230
         H           -1.168362549360    -1.965857551317    -0.437253600538     1.007825032230

  Basis Set: AUG-CC-PVTZ
    Blend: AUG-CC-PVTZ
  Basis Set: (AUG-CC-PVTZ AUX)
    Blend: AUG-CC-PVTZ-JKFIT
	 Reference Energy          =    -363.0719620318549801 [Eh]
	 Singles Energy            =      -0.0000000000000000 [Eh]
	 Same-Spin Energy          =      -0.3781465514911689 [Eh]
	 Opposite-Spin Energy      =      -1.2481739166912735 [Eh]
	 Correlation Energy        =      -1.6263204681824424 [Eh]
	 Total Energy              =    -364.6982825000374078 [Eh]

	 ================> DF-SCS-MP2 Energies <==================
	-----------------------------------------------------------
	 SCS Same-Spin Scale       =       0.3333333333333333 [-]
	 SCS Opposite-Spin Scale   =       1.2000000000000000 [-]
	 SCS Same-Spin Energy      =      -0.1260488504970563 [Eh]
	 SCS Opposite-Spin Energy  =      -1.4978087000295282 [Eh]
	 SCS Correlation Energy    =      -1.6238575505265844 [Eh]
	 SCS Total Energy          =    -364.6958195823815458 [Eh]
	-----------------------------------------------------------

  Dipole Moment: [D]
     X:     4.0735      Y:    -1.0308      Z:     0.9066     Total:     4.2986

*** Psi4 exiting successfully. Buy a developer a beer!
