                               Psi4 1.3.2 release

  ==> Input File <==

--------------------------------------------------------------------------
#psi4
#
memory 32 gb

molecule  {
0 1
  O       -2.5416370     0.0659770    -0.3927070
  N       -0.7122740    -1.2241950    -0.0249760
  C        1.8380290     0.7314390    -0.0343340
  C        1.7187040    -0.7521010    -0.3806110
  C        0.5749500     1.5632640    -0.2598230
  C        0.6466580    -1.4925250     0.4187290
  C       -0.6267649     1.1938689     0.6234001
  C       -1.3868420    -0.0349600     0.0307530
  H        2.6566510     1.1652070    -0.6217190
  H        2.1344690     0.8237010     1.0199600
  H        1.5025340    -0.8781880    -1.4483810
  H        2.6863370    -1.2343500    -0.1898600
  H        0.2863390     1.5300770    -1.3181450
  H        0.8108260     2.6104720    -0.0371320
  H        0.7923570    -2.5718330     0.3164690
  H        0.7525260    -1.2638240     1.4882170
  H       -1.3561390     1.9546950     0.6612310
  H       -0.2921570     0.9237120     1.6255030
  H       -1.2491170    -1.9758090    -0.4428220
units angstrom
no_reorient  #important for SAPT in psi4, default
symmetry c1  #important for SAPT in psi4, default
}

set PROPERTIES_ORIGIN ["COM"]
properties('MP2/aug-cc-pvtz', properties = ['dipole'])
--------------------------------------------------------------------------

    Molecular point group: c1
  Charge       = 0
  Multiplicity = 1
  Basis Set: AUG-CC-PVTZ
    Blend: AUG-CC-PVTZ
  Basis Set: (AUG-CC-PVTZ AUX)
    Blend: AUG-CC-PVTZ-JKFIT

    Orbital Energies [Eh]
    ---------------------

    Doubly Occupied:

       1A    -20.508641     2A    -15.579219     3A    -11.343856
       4A    -11.277427     5A    -11.235915     6A    -11.235320
       7A    -11.234399     8A    -11.233495     9A     -1.362107
      10A     -1.227516    11A     -1.093518    12A     -1.040097
      13A     -0.944917    14A     -0.885450    15A     -0.794689
      16A     -0.766455    17A     -0.686975    18A     -0.673512
      19A     -0.625785    20A     -0.612209    21A     -0.604059
      22A     -0.589368    23A     -0.574688    24A     -0.543039
      25A     -0.522837    26A     -0.515070    27A     -0.481775
      28A     -0.475073    29A     -0.468486    30A     -0.404920
      31A     -0.382761

  @DF-RHF Final Energy:  -363.07337917633481

   => Energetics <=

    Nuclear Repulsion Energy =            393.2615787864895083
    One-Electron Energy =               -1272.8227609420237059
    Two-Electron Energy =                 516.4878029791993868
    Total Energy =                       -363.0733791763348108
  Basis Set: (AUG-CC-PVTZ AUX)
    Blend: AUG-CC-PVTZ-RI
    Molecular point group: c1

    Geometry (in Angstrom), charge = 0, multiplicity = 1:

       Center              X                  Y                   Z               Mass
    ------------   -----------------  -----------------  -----------------  -----------------
         O           -2.465078143180     0.070283748824    -0.385702270835    15.994914619570
         N           -0.635715143180    -1.219888251176    -0.017971270835    14.003074004430
         C            1.914587856820     0.735745748824    -0.027329270835    12.000000000000
         C            1.795262856820    -0.747794251176    -0.373606270835    12.000000000000
         C            0.651508856820     1.567570748824    -0.252818270835    12.000000000000
         C            0.723216856820    -1.488218251176     0.425733729165    12.000000000000
         C           -0.550206043180     1.198175648824     0.630404829165    12.000000000000
         C           -1.310283143180    -0.030653251176     0.037757729165    12.000000000000
         H            2.733209856820     1.169513748824    -0.614714270835     1.007825032230
         H            2.211027856820     0.828007748824     1.026964729165     1.007825032230
         H            1.579092856820    -0.873881251176    -1.441376270835     1.007825032230
         H            2.762895856820    -1.230043251176    -0.182855270835     1.007825032230
         H            0.362897856820     1.534383748824    -1.311140270835     1.007825032230
         H            0.887384856820     2.614778748824    -0.030127270835     1.007825032230
         H            0.868915856820    -2.567526251176     0.323473729165     1.007825032230
         H            0.829084856820    -1.259517251176     1.495221729165     1.007825032230
         H           -1.279580143180     1.959001748824     0.668235729165     1.007825032230
         H           -0.215598143180     0.928018748824     1.632507729165     1.007825032230
         H           -1.172558143180    -1.971502251176    -0.435817270835     1.007825032230

  Basis Set: AUG-CC-PVTZ
    Blend: AUG-CC-PVTZ
  Basis Set: (AUG-CC-PVTZ AUX)
    Blend: AUG-CC-PVTZ-JKFIT
	 Reference Energy          =    -363.0733791763348108 [Eh]
	 Singles Energy            =      -0.0000000000000000 [Eh]
	 Same-Spin Energy          =      -0.3774003657275666 [Eh]
	 Opposite-Spin Energy      =      -1.2473460988383374 [Eh]
	 Correlation Energy        =      -1.6247464645659040 [Eh]
	 Total Energy              =    -364.6981256409007415 [Eh]

	 ================> DF-SCS-MP2 Energies <==================
	-----------------------------------------------------------
	 SCS Same-Spin Scale       =       0.3333333333333333 [-]
	 SCS Opposite-Spin Scale   =       1.2000000000000000 [-]
	 SCS Same-Spin Energy      =      -0.1258001219091889 [Eh]
	 SCS Opposite-Spin Energy  =      -1.4968153186060047 [Eh]
	 SCS Correlation Energy    =      -1.6226154405151936 [Eh]
	 SCS Total Energy          =    -364.6959946168499869 [Eh]
	-----------------------------------------------------------

  Dipole Moment: [D]
     X:     4.0525      Y:    -1.0615      Z:     0.8891     Total:     4.2825

*** Psi4 exiting successfully. Buy a developer a beer!
