                               Psi4 1.3.2 release

  ==> Input File <==

--------------------------------------------------------------------------
#psi4
#
memory 32 gb

molecule  {
0 1
  O       -2.5387300     0.1495304    -0.3719571
  N       -0.7122740    -1.2241950    -0.0249760
  C        1.8380290     0.7314390    -0.0343340
  C        1.7187040    -0.7521010    -0.3806110
  C        0.5749500     1.5632640    -0.2598230
  C        0.6466580    -1.4925250     0.4187290
  C       -0.6257670     1.1444980     0.6024810
  C       -1.3868420    -0.0349600     0.0307530
  H        2.6566510     1.1652070    -0.6217190
  H        2.1344690     0.8237010     1.0199600
  H        1.5025340    -0.8781880    -1.4483810
  H        2.6863370    -1.2343500    -0.1898600
  H        0.2863390     1.5300770    -1.3181450
  H        0.8108260     2.6104720    -0.0371320
  H        0.7923570    -2.5718330     0.3164690
  H        0.7525260    -1.2638240     1.4882170
  H       -1.3561390     1.9546950     0.6612310
  H       -0.2921570     0.9237120     1.6255030
  H       -1.2491170    -1.9758090    -0.4428220
units angstrom
no_reorient  #important for SAPT in psi4, default
symmetry c1  #important for SAPT in psi4, default
}

set PROPERTIES_ORIGIN ["COM"]
properties('MP2/aug-cc-pvtz', properties = ['dipole'])
--------------------------------------------------------------------------

    Molecular point group: c1
  Charge       = 0
  Multiplicity = 1
  Basis Set: AUG-CC-PVTZ
    Blend: AUG-CC-PVTZ
  Basis Set: (AUG-CC-PVTZ AUX)
    Blend: AUG-CC-PVTZ-JKFIT

    Orbital Energies [Eh]
    ---------------------

    Doubly Occupied:

       1A    -20.509990     2A    -15.583068     3A    -11.343132
       4A    -11.279604     5A    -11.234950     6A    -11.234457
       7A    -11.232392     8A    -11.231597     9A     -1.362771
      10A     -1.232834    11A     -1.093136    12A     -1.041150
      13A     -0.944979    14A     -0.888540    15A     -0.795247
      16A     -0.764835    17A     -0.688883    18A     -0.676807
      19A     -0.626707    20A     -0.611970    21A     -0.601314
      22A     -0.591918    23A     -0.568770    24A     -0.545789
      25A     -0.518918    26A     -0.515885    27A     -0.480751
      28A     -0.469237    29A     -0.468522    30A     -0.407991
      31A     -0.386269

  @DF-RHF Final Energy:  -363.07411342572362

   => Energetics <=

    Nuclear Repulsion Energy =            394.1126168194880393
    One-Electron Energy =               -1274.5086312177081709
    Two-Electron Energy =                 517.3219009724964508
    Total Energy =                       -363.0741134257236808
  Basis Set: (AUG-CC-PVTZ AUX)
    Blend: AUG-CC-PVTZ-RI
    Molecular point group: c1

    Geometry (in Angstrom), charge = 0, multiplicity = 1:

       Center              X                  Y                   Z               Mass
    ------------   -----------------  -----------------  -----------------  -----------------
         O           -2.462688209995     0.147258160831    -0.365667446647    15.994914619570
         N           -0.636232209995    -1.226467239169    -0.018686346647    14.003074004430
         C            1.914070790005     0.729166760831    -0.028044346647    12.000000000000
         C            1.794745790005    -0.754373239169    -0.374321346647    12.000000000000
         C            0.650991790005     1.560991760831    -0.253533346647    12.000000000000
         C            0.722699790005    -1.494797239169     0.425018653353    12.000000000000
         C           -0.549725209995     1.142225760831     0.608770653353    12.000000000000
         C           -1.310800209995    -0.037232239169     0.037042653353    12.000000000000
         H            2.732692790005     1.162934760831    -0.615429346647     1.007825032230
         H            2.210510790005     0.821428760831     1.026249653353     1.007825032230
         H            1.578575790005    -0.880460239169    -1.442091346647     1.007825032230
         H            2.762378790005    -1.236622239169    -0.183570346647     1.007825032230
         H            0.362380790005     1.527804760831    -1.311855346647     1.007825032230
         H            0.886867790005     2.608199760831    -0.030842346647     1.007825032230
         H            0.868398790005    -2.574105239169     0.322758653353     1.007825032230
         H            0.828567790005    -1.266096239169     1.494506653353     1.007825032230
         H           -1.280097209995     1.952422760831     0.667520653353     1.007825032230
         H           -0.216115209995     0.921439760831     1.631792653353     1.007825032230
         H           -1.173075209995    -1.978081239169    -0.436532346647     1.007825032230

  Basis Set: AUG-CC-PVTZ
    Blend: AUG-CC-PVTZ
  Basis Set: (AUG-CC-PVTZ AUX)
    Blend: AUG-CC-PVTZ-JKFIT
	 Reference Energy          =    -363.0741134257236240 [Eh]
	 Singles Energy            =      -0.0000000000000000 [Eh]
	 Same-Spin Energy          =      -0.3777587132425241 [Eh]
	 Opposite-Spin Energy      =      -1.2478117854701534 [Eh]
	 Correlation Energy        =      -1.6255704987126776 [Eh]
	 Total Energy              =    -364.6996839244363287 [Eh]

	 ================> DF-SCS-MP2 Energies <==================
	-----------------------------------------------------------
	 SCS Same-Spin Scale       =       0.3333333333333333 [-]
	 SCS Opposite-Spin Scale   =       1.2000000000000000 [-]
	 SCS Same-Spin Energy      =      -0.1259195710808413 [Eh]
	 SCS Opposite-Spin Energy  =      -1.4973741425641840 [Eh]
	 SCS Correlation Energy    =      -1.6232937136450254 [Eh]
	 SCS Total Energy          =    -364.6974071393686359 [Eh]
	-----------------------------------------------------------

  Dipole Moment: [D]
     X:     4.0516      Y:    -1.2711      Z:     0.8416     Total:     4.3289

*** Psi4 exiting successfully. Buy a developer a beer!
