                               Psi4 1.3.2 release

  ==> Input File <==

--------------------------------------------------------------------------
#psi4
#
memory 32 gb

molecule  {
0 1
  O       -2.5416370     0.0659770    -0.3927070
  N       -0.7122740    -1.2241950    -0.0249760
  C        1.8380290     0.7314390    -0.0343340
  C        1.7187040    -0.7521010    -0.3806110
  C        0.5749500     1.5632640    -0.2598230
  C        0.6488673    -1.4682744     0.4259020
  C       -0.6257670     1.1444980     0.6024810
  C       -1.3868420    -0.0349600     0.0307530
  H        2.6566510     1.1652070    -0.6217190
  H        2.1344690     0.8237010     1.0199600
  H        1.5025340    -0.8781880    -1.4483810
  H        2.6863370    -1.2343500    -0.1898600
  H        0.2863390     1.5300770    -1.3181450
  H        0.8108260     2.6104720    -0.0371320
  H        0.7923570    -2.5718330     0.3164690
  H        0.7525260    -1.2638240     1.4882170
  H       -1.3561390     1.9546950     0.6612310
  H       -0.2921570     0.9237120     1.6255030
  H       -1.2491170    -1.9758090    -0.4428220
units angstrom
no_reorient  #important for SAPT in psi4, default
symmetry c1  #important for SAPT in psi4, default
}

set PROPERTIES_ORIGIN ["COM"]
properties('MP2/aug-cc-pvtz', properties = ['dipole'])
--------------------------------------------------------------------------

    Molecular point group: c1
  Charge       = 0
  Multiplicity = 1
  Basis Set: AUG-CC-PVTZ
    Blend: AUG-CC-PVTZ
  Basis Set: (AUG-CC-PVTZ AUX)
    Blend: AUG-CC-PVTZ-JKFIT

    Orbital Energies [Eh]
    ---------------------

    Doubly Occupied:

       1A    -20.508938     2A    -15.578830     3A    -11.342502
       4A    -11.277764     5A    -11.236755     6A    -11.236050
       7A    -11.234150     8A    -11.232742     9A     -1.363400
      10A     -1.228589    11A     -1.094614    12A     -1.042815
      13A     -0.945359    14A     -0.887450    15A     -0.796344
      16A     -0.764481    17A     -0.688763    18A     -0.675501
      19A     -0.627561    20A     -0.612543    21A     -0.601647
      22A     -0.588846    23A     -0.570167    24A     -0.546432
      25A     -0.518319    26A     -0.517200    27A     -0.481340
      28A     -0.471297    29A     -0.467047    30A     -0.410223
      31A     -0.383945

  @DF-RHF Final Energy:  -363.07455673128294

   => Energetics <=

    Nuclear Repulsion Energy =            394.3606777121786990
    One-Electron Energy =               -1275.0072445673083621
    Two-Electron Energy =                 517.5720101238466668
    Total Energy =                       -363.0745567312829962
  Basis Set: (AUG-CC-PVTZ AUX)
    Blend: AUG-CC-PVTZ-RI
    Molecular point group: c1

    Geometry (in Angstrom), charge = 0, multiplicity = 1:

       Center              X                  Y                   Z               Mass
    ------------   -----------------  -----------------  -----------------  -----------------
         O           -2.465418477606     0.072949408241    -0.384243593156    15.994914619570
         N           -0.636055477606    -1.217222591759    -0.016512593156    14.003074004430
         C            1.914247522394     0.738411408241    -0.025870593156    12.000000000000
         C            1.794922522394    -0.745128591759    -0.372147593156    12.000000000000
         C            0.651168522394     1.570236408241    -0.251359593156    12.000000000000
         C            0.725085822394    -1.461301991759     0.434365406844    12.000000000000
         C           -0.549548477606     1.151470408241     0.610944406844    12.000000000000
         C           -1.310623477606    -0.027987591759     0.039216406844    12.000000000000
         H            2.732869522394     1.172179408241    -0.613255593156     1.007825032230
         H            2.210687522394     0.830673408241     1.028423406844     1.007825032230
         H            1.578752522394    -0.871215591759    -1.439917593156     1.007825032230
         H            2.762555522394    -1.227377591759    -0.181396593156     1.007825032230
         H            0.362557522394     1.537049408241    -1.309681593156     1.007825032230
         H            0.887044522394     2.617444408241    -0.028668593156     1.007825032230
         H            0.868575522394    -2.564860591759     0.324932406844     1.007825032230
         H            0.828744522394    -1.256851591759     1.496680406844     1.007825032230
         H           -1.279920477606     1.961667408241     0.669694406844     1.007825032230
         H           -0.215938477606     0.930684408241     1.633966406844     1.007825032230
         H           -1.172898477606    -1.968836591759    -0.434358593156     1.007825032230

  Basis Set: AUG-CC-PVTZ
    Blend: AUG-CC-PVTZ
  Basis Set: (AUG-CC-PVTZ AUX)
    Blend: AUG-CC-PVTZ-JKFIT
	 Reference Energy          =    -363.0745567312829394 [Eh]
	 Singles Energy            =      -0.0000000000000000 [Eh]
	 Same-Spin Energy          =      -0.3778417891058777 [Eh]
	 Opposite-Spin Energy      =      -1.2478245945513788 [Eh]
	 Correlation Energy        =      -1.6256663836572565 [Eh]
	 Total Energy              =    -364.7002231149401723 [Eh]

	 ================> DF-SCS-MP2 Energies <==================
	-----------------------------------------------------------
	 SCS Same-Spin Scale       =       0.3333333333333333 [-]
	 SCS Opposite-Spin Scale   =       1.2000000000000000 [-]
	 SCS Same-Spin Energy      =      -0.1259472630352926 [Eh]
	 SCS Opposite-Spin Energy  =      -1.4973895134616546 [Eh]
	 SCS Correlation Energy    =      -1.6233367764969473 [Eh]
	 SCS Total Energy          =    -364.6978935077798951 [Eh]
	-----------------------------------------------------------

  Dipole Moment: [D]
     X:     4.0762      Y:    -1.0179      Z:     0.9012     Total:     4.2970

*** Psi4 exiting successfully. Buy a developer a beer!
