                               Psi4 1.3.2 release

  ==> Input File <==

--------------------------------------------------------------------------
#psi4
#
memory 32 gb

molecule  {
0 1
  O       -2.5416370     0.0659770    -0.3927070
  N       -0.7122740    -1.2241950    -0.0249760
  C        1.8864183     0.7918398    -0.1078285
  C        1.7187040    -0.7521010    -0.3806110
  C        0.5749500     1.5632640    -0.2598230
  C        0.6466580    -1.4925250     0.4187290
  C       -0.6257670     1.1444980     0.6024810
  C       -1.3868420    -0.0349600     0.0307530
  H        2.6566510     1.1652070    -0.6217190
  H        2.1344690     0.8237010     1.0199600
  H        1.5025340    -0.8781880    -1.4483810
  H        2.6863370    -1.2343500    -0.1898600
  H        0.2863390     1.5300770    -1.3181450
  H        0.8108260     2.6104720    -0.0371320
  H        0.7923570    -2.5718330     0.3164690
  H        0.7525260    -1.2638240     1.4882170
  H       -1.3561390     1.9546950     0.6612310
  H       -0.2921570     0.9237120     1.6255030
  H       -1.2491170    -1.9758090    -0.4428220
units angstrom
no_reorient  #important for SAPT in psi4, default
symmetry c1  #important for SAPT in psi4, default
}

set PROPERTIES_ORIGIN ["COM"]
properties('MP2/aug-cc-pvtz', properties = ['dipole'])
--------------------------------------------------------------------------

    Molecular point group: c1
  Charge       = 0
  Multiplicity = 1
  Basis Set: AUG-CC-PVTZ
    Blend: AUG-CC-PVTZ
  Basis Set: (AUG-CC-PVTZ AUX)
    Blend: AUG-CC-PVTZ-JKFIT

    Orbital Energies [Eh]
    ---------------------

    Doubly Occupied:

       1A    -20.509602     2A    -15.578887     3A    -11.343609
       4A    -11.279062     5A    -11.238687     6A    -11.236702
       7A    -11.235786     8A    -11.233138     9A     -1.363933
      10A     -1.228165    11A     -1.090483    12A     -1.039612
      13A     -0.950657    14A     -0.886664    15A     -0.797818
      16A     -0.765016    17A     -0.687012    18A     -0.680769
      19A     -0.630357    20A     -0.608412    21A     -0.596983
      22A     -0.592827    23A     -0.574690    24A     -0.547709
      25A     -0.525038    26A     -0.514176    27A     -0.486782
      28A     -0.466430    29A     -0.455293    30A     -0.411649
      31A     -0.383517

  @DF-RHF Final Energy:  -363.06238159084893

   => Energetics <=

    Nuclear Repulsion Energy =            392.9989166154546751
    One-Electron Energy =               -1272.2436636000418275
    Two-Electron Energy =                 516.1823653937382232
    Total Energy =                       -363.0623815908489860
  Basis Set: (AUG-CC-PVTZ AUX)
    Blend: AUG-CC-PVTZ-RI
    Molecular point group: c1

    Geometry (in Angstrom), charge = 0, multiplicity = 1:

       Center              X                  Y                   Z               Mass
    ------------   -----------------  -----------------  -----------------  -----------------
         O           -2.470318902834     0.069113302739    -0.375683501079    15.994914619570
         N           -0.640955902834    -1.221058697261    -0.007952501079    14.003074004430
         C            1.957736397166     0.794976102739    -0.090805001079    12.000000000000
         C            1.790022097166    -0.748964697261    -0.363587501079    12.000000000000
         C            0.646268097166     1.566400302739    -0.242799501079    12.000000000000
         C            0.717976097166    -1.489388697261     0.435752498921    12.000000000000
         C           -0.554448902834     1.147634302739     0.619504498921    12.000000000000
         C           -1.315523902834    -0.031823697261     0.047776498921    12.000000000000
         H            2.727969097166     1.168343302739    -0.604695501079     1.007825032230
         H            2.205787097166     0.826837302739     1.036983498921     1.007825032230
         H            1.573852097166    -0.875051697261    -1.431357501079     1.007825032230
         H            2.757655097166    -1.231213697261    -0.172836501079     1.007825032230
         H            0.357657097166     1.533213302739    -1.301121501079     1.007825032230
         H            0.882144097166     2.613608302739    -0.020108501079     1.007825032230
         H            0.863675097166    -2.568696697261     0.333492498921     1.007825032230
         H            0.823844097166    -1.260687697261     1.505240498921     1.007825032230
         H           -1.284820902834     1.957831302739     0.678254498921     1.007825032230
         H           -0.220838902834     0.926848302739     1.642526498921     1.007825032230
         H           -1.177798902834    -1.972672697261    -0.425798501079     1.007825032230

  Basis Set: AUG-CC-PVTZ
    Blend: AUG-CC-PVTZ
  Basis Set: (AUG-CC-PVTZ AUX)
    Blend: AUG-CC-PVTZ-JKFIT
	 Reference Energy          =    -363.0623815908489291 [Eh]
	 Singles Energy            =      -0.0000000000000000 [Eh]
	 Same-Spin Energy          =      -0.3775982145168120 [Eh]
	 Opposite-Spin Energy      =      -1.2479926722623464 [Eh]
	 Correlation Energy        =      -1.6255908867791584 [Eh]
	 Total Energy              =    -364.6879724776280796 [Eh]

	 ================> DF-SCS-MP2 Energies <==================
	-----------------------------------------------------------
	 SCS Same-Spin Scale       =       0.3333333333333333 [-]
	 SCS Opposite-Spin Scale   =       1.2000000000000000 [-]
	 SCS Same-Spin Energy      =      -0.1258660715056040 [Eh]
	 SCS Opposite-Spin Energy  =      -1.4975912067148156 [Eh]
	 SCS Correlation Energy    =      -1.6234572782204195 [Eh]
	 SCS Total Energy          =    -364.6858388690693573 [Eh]
	-----------------------------------------------------------

  Dipole Moment: [D]
     X:     4.0492      Y:    -1.0279      Z:     0.8656     Total:     4.2663

*** Psi4 exiting successfully. Buy a developer a beer!
