                               Psi4 1.4a3.dev225

  ==> Input File <==

--------------------------------------------------------------------------
#psi4
#
memory 32 gb

molecule  {
0 1
  O       -2.5416370     0.0659770    -0.3927070
  N       -0.7122740    -1.2241950    -0.0249760
  C        1.8380290     0.7314390    -0.0343340
  C        1.7187040    -0.7521010    -0.3806110
  C        0.5749500     1.5632640    -0.2598230
  C        0.6326310    -1.5022129     0.4291878
  C       -0.6257670     1.1444980     0.6024810
  C       -1.3868420    -0.0349600     0.0307530
  H        2.6566510     1.1652070    -0.6217190
  H        2.1344690     0.8237010     1.0199600
  H        1.5025340    -0.8781880    -1.4483810
  H        2.6863370    -1.2343500    -0.1898600
  H        0.2863390     1.5300770    -1.3181450
  H        0.8108260     2.6104720    -0.0371320
  H        0.7923570    -2.5718330     0.3164690
  H        0.7525260    -1.2638240     1.4882170
  H       -1.3561390     1.9546950     0.6612310
  H       -0.2921570     0.9237120     1.6255030
  H       -1.2491170    -1.9758090    -0.4428220
units angstrom
no_reorient  #important for SAPT in psi4, default
symmetry c1  #important for SAPT in psi4, default
}

set PROPERTIES_ORIGIN ["COM"]
properties('MP2/aug-cc-pvtz', properties = ['dipole'])
--------------------------------------------------------------------------

    Molecular point group: c1
  Charge       = 0
  Multiplicity = 1
  Basis Set: AUG-CC-PVTZ
    Blend: AUG-CC-PVTZ
  Basis Set: (AUG-CC-PVTZ AUX)
    Blend: AUG-CC-PVTZ-JKFIT

    Orbital Energies [Eh]
    ---------------------

    Doubly Occupied:

       1A    -20.509490     2A    -15.578959     3A    -11.343567
       4A    -11.276495     5A    -11.236611     6A    -11.236018
       7A    -11.234563     8A    -11.232786     9A     -1.363951
      10A     -1.229852    11A     -1.093147    12A     -1.040268
      13A     -0.944907    14A     -0.889499    15A     -0.794992
      16A     -0.764747    17A     -0.688893    18A     -0.677285
      19A     -0.625699    20A     -0.611539    21A     -0.602378
      22A     -0.592774    23A     -0.570287    24A     -0.543135
      25A     -0.520328    26A     -0.516352    27A     -0.481224
      28A     -0.470284    29A     -0.468797    30A     -0.411112
      31A     -0.381703

  @DF-RHF Final Energy:  -363.07532700536569

   => Energetics <=

    Nuclear Repulsion Energy =            393.9616840405188896
    One-Electron Energy =               -1274.2107426624086202
    Two-Electron Energy =                 517.1737316165240372
    Total Energy =                       -363.0753270053656934
  Basis Set: (AUG-CC-PVTZ AUX)
    Blend: AUG-CC-PVTZ-RI
    Molecular point group: c1

    Geometry (in Angstrom), charge = 0, multiplicity = 1:

       Center              X                  Y                   Z               Mass
    ------------   -----------------  -----------------  -----------------  -----------------
         O           -2.463695550492     0.076550817543    -0.384592268279    15.994914619570
         N           -0.634332550492    -1.213621182457    -0.016861268279    14.003074004430
         C            1.915970449508     0.742012817543    -0.026219268279    12.000000000000
         C            1.796645449508    -0.741527182457    -0.372496268279    12.000000000000
         C            0.652891449508     1.573837817543    -0.251708268279    12.000000000000
         C            0.710572449508    -1.491639082457     0.437302531721    12.000000000000
         C           -0.547825550492     1.155071817543     0.610595731721    12.000000000000
         C           -1.308900550492    -0.024386182457     0.038867731721    12.000000000000
         H            2.734592449508     1.175780817543    -0.613604268279     1.007825032230
         H            2.212410449508     0.834274817543     1.028074731721     1.007825032230
         H            1.580475449508    -0.867614182457    -1.440266268279     1.007825032230
         H            2.764278449508    -1.223776182457    -0.181745268279     1.007825032230
         H            0.364280449508     1.540650817543    -1.310030268279     1.007825032230
         H            0.888767449508     2.621045817543    -0.029017268279     1.007825032230
         H            0.870298449508    -2.561259182457     0.324583731721     1.007825032230
         H            0.830467449508    -1.253250182457     1.496331731721     1.007825032230
         H           -1.278197550492     1.965268817543     0.669345731721     1.007825032230
         H           -0.214215550492     0.934285817543     1.633617731721     1.007825032230
         H           -1.171175550492    -1.965235182457    -0.434707268279     1.007825032230

  Basis Set: AUG-CC-PVTZ
    Blend: AUG-CC-PVTZ
  Basis Set: (AUG-CC-PVTZ AUX)
    Blend: AUG-CC-PVTZ-JKFIT
	 Reference Energy          =    -363.0753270053656934 [Eh]
	 Singles Energy            =      -0.0000000000000000 [Eh]
	 Same-Spin Energy          =      -0.3776447852691737 [Eh]
	 Opposite-Spin Energy      =      -1.2475633841405487 [Eh]
	 Correlation Energy        =      -1.6252081694097225 [Eh]
	 Total Energy              =    -364.7005351747754389 [Eh]

	 ================> DF-SCS-MP2 Energies <==================
	-----------------------------------------------------------
	 SCS Same-Spin Scale       =       0.3333333333333333 [-]
	 SCS Opposite-Spin Scale   =       1.2000000000000000 [-]
	 SCS Same-Spin Energy      =      -0.1258815950897246 [Eh]
	 SCS Opposite-Spin Energy  =      -1.4970760609686584 [Eh]
	 SCS Correlation Energy    =      -1.6229576560583829 [Eh]
	 SCS Total Energy          =    -364.6982846614240543 [Eh]
	-----------------------------------------------------------

  Dipole Moment: [D]
     X:     4.0370      Y:    -1.0428      Z:     0.9075     Total:     4.2671

*** Psi4 exiting successfully. Buy a developer a beer!
