                               Psi4 1.3.2 release

  ==> Input File <==

--------------------------------------------------------------------------
#psi4
#
memory 32 gb

molecule  {
0 1
  O       -2.5416370     0.0659770    -0.3927070
  N       -0.7122740    -1.2241950    -0.0249760
  C        1.8380290     0.7314390    -0.0343340
  C        1.7187040    -0.7521010    -0.3806110
  C        0.5749500     1.5632640    -0.2598230
  C        0.5765230    -1.5409647     0.4710231
  C       -0.6257670     1.1444980     0.6024810
  C       -1.3868420    -0.0349600     0.0307530
  H        2.6566510     1.1652070    -0.6217190
  H        2.1344690     0.8237010     1.0199600
  H        1.5025340    -0.8781880    -1.4483810
  H        2.6863370    -1.2343500    -0.1898600
  H        0.2863390     1.5300770    -1.3181450
  H        0.8108260     2.6104720    -0.0371320
  H        0.7923570    -2.5718330     0.3164690
  H        0.7525260    -1.2638240     1.4882170
  H       -1.3561390     1.9546950     0.6612310
  H       -0.2921570     0.9237120     1.6255030
  H       -1.2491170    -1.9758090    -0.4428220
units angstrom
no_reorient  #important for SAPT in psi4, default
symmetry c1  #important for SAPT in psi4, default
}

set PROPERTIES_ORIGIN ["COM"]
properties('MP2/aug-cc-pvtz', properties = ['dipole'])
--------------------------------------------------------------------------

    Molecular point group: c1
  Charge       = 0
  Multiplicity = 1
  Basis Set: AUG-CC-PVTZ
    Blend: AUG-CC-PVTZ
  Basis Set: (AUG-CC-PVTZ AUX)
    Blend: AUG-CC-PVTZ-JKFIT

    Orbital Energies [Eh]
    ---------------------

    Doubly Occupied:

       1A    -20.511269     2A    -15.580258     3A    -11.345666
       4A    -11.274251     5A    -11.236922     6A    -11.235753
       7A    -11.234852     8A    -11.231762     9A     -1.365989
      10A     -1.236396    11A     -1.090744    12A     -1.033466
      13A     -0.943434    14A     -0.892560    15A     -0.793225
      16A     -0.767791    17A     -0.693888    18A     -0.679194
      19A     -0.624923    20A     -0.611197    21A     -0.603994
      22A     -0.595956    23A     -0.570878    24A     -0.537511
      25A     -0.524646    26A     -0.515562    27A     -0.480887
      28A     -0.470737    29A     -0.463272    30A     -0.413168
      31A     -0.375276

  @DF-RHF Final Energy:  -363.06795732575455

   => Energetics <=

    Nuclear Repulsion Energy =            393.4683257194589601
    One-Electron Energy =               -1273.2017111607494826
    Two-Electron Energy =                 516.6654281155358603
    Total Energy =                       -363.0679573257546053
  Basis Set: (AUG-CC-PVTZ AUX)
    Blend: AUG-CC-PVTZ-RI
    Molecular point group: c1

    Geometry (in Angstrom), charge = 0, multiplicity = 1:

       Center              X                  Y                   Z               Mass
    ------------   -----------------  -----------------  -----------------  -----------------
         O           -2.457741608121     0.080662993774    -0.389031652418    15.994914619570
         N           -0.628378608121    -1.209509006226    -0.021300652418    14.003074004430
         C            1.921924391879     0.746124993774    -0.030658652418    12.000000000000
         C            1.802599391879    -0.737415006226    -0.376935652418    12.000000000000
         C            0.658845391879     1.577949993774    -0.256147652418    12.000000000000
         C            0.660418391879    -1.526278706226     0.474698447582    12.000000000000
         C           -0.541871608121     1.159183993774     0.606156347582    12.000000000000
         C           -1.302946608121    -0.020274006226     0.034428347582    12.000000000000
         H            2.740546391879     1.179892993774    -0.618043652418     1.007825032230
         H            2.218364391879     0.838386993774     1.023635347582     1.007825032230
         H            1.586429391879    -0.863502006226    -1.444705652418     1.007825032230
         H            2.770232391879    -1.219664006226    -0.186184652418     1.007825032230
         H            0.370234391879     1.544762993774    -1.314469652418     1.007825032230
         H            0.894721391879     2.625157993774    -0.033456652418     1.007825032230
         H            0.876252391879    -2.557147006226     0.320144347582     1.007825032230
         H            0.836421391879    -1.249138006226     1.491892347582     1.007825032230
         H           -1.272243608121     1.969380993774     0.664906347582     1.007825032230
         H           -0.208261608121     0.938397993774     1.629178347582     1.007825032230
         H           -1.165221608121    -1.961123006226    -0.439146652418     1.007825032230

  Basis Set: AUG-CC-PVTZ
    Blend: AUG-CC-PVTZ
  Basis Set: (AUG-CC-PVTZ AUX)
    Blend: AUG-CC-PVTZ-JKFIT
	 Reference Energy          =    -363.0679573257545485 [Eh]
	 Singles Energy            =      -0.0000000000000000 [Eh]
	 Same-Spin Energy          =      -0.3776522466123111 [Eh]
	 Opposite-Spin Energy      =      -1.2477409856825670 [Eh]
	 Correlation Energy        =      -1.6253932322948781 [Eh]
	 Total Energy              =    -364.6933505580494170 [Eh]

	 ================> DF-SCS-MP2 Energies <==================
	-----------------------------------------------------------
	 SCS Same-Spin Scale       =       0.3333333333333333 [-]
	 SCS Opposite-Spin Scale   =       1.2000000000000000 [-]
	 SCS Same-Spin Energy      =      -0.1258840822041037 [Eh]
	 SCS Opposite-Spin Energy  =      -1.4972891828190804 [Eh]
	 SCS Correlation Energy    =      -1.6231732650231840 [Eh]
	 SCS Total Energy          =    -364.6911305907777319 [Eh]
	-----------------------------------------------------------

  Dipole Moment: [D]
     X:     3.8964      Y:    -1.0616      Z:     0.9479     Total:     4.1482

*** Psi4 exiting successfully. Buy a developer a beer!
