                               Psi4 1.3.2 release

  ==> Input File <==

--------------------------------------------------------------------------
#psi4
#
memory 32 gb

molecule  {
0 1
  O       -2.5416370     0.0659770    -0.3927070
  N       -0.7122740    -1.2241950    -0.0249760
  C        1.8380290     0.7314390    -0.0343340
  C        1.7187040    -0.7521010    -0.3806110
  C        0.5749500     1.5632640    -0.2598230
  C        0.6466580    -1.4925250     0.4187290
  C       -0.6257670     1.1444980     0.6024810
  C       -1.3868420    -0.0349600     0.0307530
  H        2.5950803     1.1396242    -0.7151982
  H        2.1344690     0.8237010     1.0199600
  H        1.5025340    -0.8781880    -1.4483810
  H        2.6863370    -1.2343500    -0.1898600
  H        0.2863390     1.5300770    -1.3181450
  H        0.8108260     2.6104720    -0.0371320
  H        0.7923570    -2.5718330     0.3164690
  H        0.7525260    -1.2638240     1.4882170
  H       -1.3561390     1.9546950     0.6612310
  H       -0.2921570     0.9237120     1.6255030
  H       -1.2491170    -1.9758090    -0.4428220
units angstrom
no_reorient  #important for SAPT in psi4, default
symmetry c1  #important for SAPT in psi4, default
}

set PROPERTIES_ORIGIN ["COM"]
properties('MP2/aug-cc-pvtz', properties = ['dipole'])
--------------------------------------------------------------------------

    Molecular point group: c1
  Charge       = 0
  Multiplicity = 1
  Basis Set: AUG-CC-PVTZ
    Blend: AUG-CC-PVTZ
  Basis Set: (AUG-CC-PVTZ AUX)
    Blend: AUG-CC-PVTZ-JKFIT

    Orbital Energies [Eh]
    ---------------------

    Doubly Occupied:

       1A    -20.508939     2A    -15.578530     3A    -11.342903
       4A    -11.276901     5A    -11.236238     6A    -11.235543
       7A    -11.233995     8A    -11.233252     9A     -1.363326
      10A     -1.228103    11A     -1.094554    12A     -1.042075
      13A     -0.945517    14A     -0.888560    15A     -0.793376
      16A     -0.763714    17A     -0.688561    18A     -0.677113
      19A     -0.627455    20A     -0.611574    21A     -0.602728
      22A     -0.590871    23A     -0.571307    24A     -0.545141
      25A     -0.520251    26A     -0.515789    27A     -0.482675
      28A     -0.469966    29A     -0.466430    30A     -0.410374
      31A     -0.382465

  @DF-RHF Final Energy:  -363.07417854355020

   => Energetics <=

    Nuclear Repulsion Energy =            394.1854278539586858
    One-Electron Energy =               -1274.6627660776100583
    Two-Electron Energy =                 517.4031596801011119
    Total Energy =                       -363.0741785435502607
  Basis Set: (AUG-CC-PVTZ AUX)
    Blend: AUG-CC-PVTZ-RI
    Molecular point group: c1

    Geometry (in Angstrom), charge = 0, multiplicity = 1:

       Center              X                  Y                   Z               Mass
    ------------   -----------------  -----------------  -----------------  -----------------
         O           -2.464635307197     0.075750777196    -0.382649321855    15.994914619570
         N           -0.635272307197    -1.214421222804    -0.014918321855    14.003074004430
         C            1.915030692803     0.741212777196    -0.024276321855    12.000000000000
         C            1.795705692803    -0.742327222804    -0.370553321855    12.000000000000
         C            0.651951692803     1.573037777196    -0.249765321855    12.000000000000
         C            0.723659692803    -1.482751222804     0.428786678145    12.000000000000
         C           -0.548765307197     1.154271777196     0.612538678145    12.000000000000
         C           -1.309840307197    -0.025186222804     0.040810678145    12.000000000000
         H            2.672081992803     1.149397977196    -0.705140521855     1.007825032230
         H            2.211470692803     0.833474777196     1.030017678145     1.007825032230
         H            1.579535692803    -0.868414222804    -1.438323321855     1.007825032230
         H            2.763338692803    -1.224576222804    -0.179802321855     1.007825032230
         H            0.363340692803     1.539850777196    -1.308087321855     1.007825032230
         H            0.887827692803     2.620245777196    -0.027074321855     1.007825032230
         H            0.869358692803    -2.562059222804     0.326526678145     1.007825032230
         H            0.829527692803    -1.254050222804     1.498274678145     1.007825032230
         H           -1.279137307197     1.964468777196     0.671288678145     1.007825032230
         H           -0.215155307197     0.933485777196     1.635560678145     1.007825032230
         H           -1.172115307197    -1.966035222804    -0.432764321855     1.007825032230

  Basis Set: AUG-CC-PVTZ
    Blend: AUG-CC-PVTZ
  Basis Set: (AUG-CC-PVTZ AUX)
    Blend: AUG-CC-PVTZ-JKFIT
	 Reference Energy          =    -363.0741785435502038 [Eh]
	 Singles Energy            =      -0.0000000000000000 [Eh]
	 Same-Spin Energy          =      -0.3777826292088758 [Eh]
	 Opposite-Spin Energy      =      -1.2478306778686425 [Eh]
	 Correlation Energy        =      -1.6256133070775185 [Eh]
	 Total Energy              =    -364.6997918506277188 [Eh]

	 ================> DF-SCS-MP2 Energies <==================
	-----------------------------------------------------------
	 SCS Same-Spin Scale       =       0.3333333333333333 [-]
	 SCS Opposite-Spin Scale   =       1.2000000000000000 [-]
	 SCS Same-Spin Energy      =      -0.1259275430696253 [Eh]
	 SCS Opposite-Spin Energy  =      -1.4973968134423710 [Eh]
	 SCS Correlation Energy    =      -1.6233243565119961 [Eh]
	 SCS Total Energy          =    -364.6975029000622044 [Eh]
	-----------------------------------------------------------

  Dipole Moment: [D]
     X:     4.0594      Y:    -1.0417      Z:     0.8712     Total:     4.2805

*** Psi4 exiting successfully. Buy a developer a beer!
