                               Psi4 1.3.2 release

  ==> Input File <==

--------------------------------------------------------------------------
#psi4
#
memory 32 gb

molecule  {
0 1
  O       -2.5416370     0.0659770    -0.3927070
  N       -0.6008539    -1.1550701     0.0326609
  C        1.8380290     0.7314390    -0.0343340
  C        1.7187040    -0.7521010    -0.3806110
  C        0.5749500     1.5632640    -0.2598230
  C        0.6466580    -1.4925250     0.4187290
  C       -0.6257670     1.1444980     0.6024810
  C       -1.3868420    -0.0349600     0.0307530
  H        2.6566510     1.1652070    -0.6217190
  H        2.1344690     0.8237010     1.0199600
  H        1.5025340    -0.8781880    -1.4483810
  H        2.6863370    -1.2343500    -0.1898600
  H        0.2863390     1.5300770    -1.3181450
  H        0.8108260     2.6104720    -0.0371320
  H        0.7923570    -2.5718330     0.3164690
  H        0.7525260    -1.2638240     1.4882170
  H       -1.3561390     1.9546950     0.6612310
  H       -0.2921570     0.9237120     1.6255030
  H       -1.2491170    -1.9758090    -0.4428220
units angstrom
no_reorient  #important for SAPT in psi4, default
symmetry c1  #important for SAPT in psi4, default
}

set PROPERTIES_ORIGIN ["COM"]
properties('MP2/aug-cc-pvtz', properties = ['dipole'])
--------------------------------------------------------------------------

    Molecular point group: c1
  Charge       = 0
  Multiplicity = 1
  Basis Set: AUG-CC-PVTZ
    Blend: AUG-CC-PVTZ
  Basis Set: (AUG-CC-PVTZ AUX)
    Blend: AUG-CC-PVTZ-JKFIT

    Orbital Energies [Eh]
    ---------------------

    Doubly Occupied:

       1A    -20.517958     2A    -15.589252     3A    -11.349824
       4A    -11.271401     5A    -11.234894     6A    -11.231702
       7A    -11.231373     8A    -11.230430     9A     -1.367229
      10A     -1.253957    11A     -1.089404    12A     -1.047318
      13A     -0.939253    14A     -0.900204    15A     -0.796148
      16A     -0.742109    17A     -0.703881    18A     -0.679732
      19A     -0.630537    20A     -0.608072    21A     -0.604268
      22A     -0.598407    23A     -0.567654    24A     -0.542324
      25A     -0.519423    26A     -0.507234    27A     -0.478857
      28A     -0.469251    29A     -0.465345    30A     -0.413031
      31A     -0.379469

  @DF-RHF Final Energy:  -363.04228431852960

   => Energetics <=

    Nuclear Repulsion Energy =            396.1701196625488137
    One-Electron Energy =               -1278.5049245475104271
    Two-Electron Energy =                 519.2925205664320174
    Total Energy =                       -363.0422843185295960
  Basis Set: (AUG-CC-PVTZ AUX)
    Blend: AUG-CC-PVTZ-RI
    Molecular point group: c1

    Geometry (in Angstrom), charge = 0, multiplicity = 1:

       Center              X                  Y                   Z               Mass
    ------------   -----------------  -----------------  -----------------  -----------------
         O           -2.478981063279     0.066963119223    -0.390619538189    15.994914619570
         N           -0.538197963279    -1.154083980777     0.034748361811    14.003074004430
         C            1.900684936721     0.732425119223    -0.032246538189    12.000000000000
         C            1.781359936721    -0.751114880777    -0.378523538189    12.000000000000
         C            0.637605936721     1.564250119223    -0.257735538189    12.000000000000
         C            0.709313936721    -1.491538880777     0.420816461811    12.000000000000
         C           -0.563111063279     1.145484119223     0.604568461811    12.000000000000
         C           -1.324186063279    -0.033973880777     0.032840461811    12.000000000000
         H            2.719306936721     1.166193119223    -0.619631538189     1.007825032230
         H            2.197124936721     0.824687119223     1.022047461811     1.007825032230
         H            1.565189936721    -0.877201880777    -1.446293538189     1.007825032230
         H            2.748992936721    -1.233363880777    -0.187772538189     1.007825032230
         H            0.348994936721     1.531063119223    -1.316057538189     1.007825032230
         H            0.873481936721     2.611458119223    -0.035044538189     1.007825032230
         H            0.855012936721    -2.570846880777     0.318556461811     1.007825032230
         H            0.815181936721    -1.262837880777     1.490304461811     1.007825032230
         H           -1.293483063279     1.955681119223     0.663318461811     1.007825032230
         H           -0.229501063279     0.924698119223     1.627590461811     1.007825032230
         H           -1.186461063279    -1.974822880777    -0.440734538189     1.007825032230

  Basis Set: AUG-CC-PVTZ
    Blend: AUG-CC-PVTZ
  Basis Set: (AUG-CC-PVTZ AUX)
    Blend: AUG-CC-PVTZ-JKFIT
	 Reference Energy          =    -363.0422843185295960 [Eh]
	 Singles Energy            =      -0.0000000000000000 [Eh]
	 Same-Spin Energy          =      -0.3806173447312820 [Eh]
	 Opposite-Spin Energy      =      -1.2523627880172239 [Eh]
	 Correlation Energy        =      -1.6329801327485058 [Eh]
	 Total Energy              =    -364.6752644512781103 [Eh]

	 ================> DF-SCS-MP2 Energies <==================
	-----------------------------------------------------------
	 SCS Same-Spin Scale       =       0.3333333333333333 [-]
	 SCS Opposite-Spin Scale   =       1.2000000000000000 [-]
	 SCS Same-Spin Energy      =      -0.1268724482437606 [Eh]
	 SCS Opposite-Spin Energy  =      -1.5028353456206687 [Eh]
	 SCS Correlation Energy    =      -1.6297077938644293 [Eh]
	 SCS Total Energy          =    -364.6719921123940367 [Eh]
	-----------------------------------------------------------

  Dipole Moment: [D]
     X:     3.8508      Y:    -1.1562      Z:     0.8298     Total:     4.1054

*** Psi4 exiting successfully. Buy a developer a beer!
