                               Psi4 1.3.2 release

  ==> Input File <==

--------------------------------------------------------------------------
#psi4
#
memory 32 gb

molecule  {
0 1
  O       -2.5416370     0.0659770    -0.3927070
  N       -0.7122740    -1.2241950    -0.0249760
  C        1.8380290     0.7314390    -0.0343340
  C        1.7081023    -0.7288759    -0.3728712
  C        0.5749500     1.5632640    -0.2598230
  C        0.6466580    -1.4925250     0.4187290
  C       -0.6257670     1.1444980     0.6024810
  C       -1.3868420    -0.0349600     0.0307530
  H        2.6566510     1.1652070    -0.6217190
  H        2.1344690     0.8237010     1.0199600
  H        1.5025340    -0.8781880    -1.4483810
  H        2.6863370    -1.2343500    -0.1898600
  H        0.2863390     1.5300770    -1.3181450
  H        0.8108260     2.6104720    -0.0371320
  H        0.7923570    -2.5718330     0.3164690
  H        0.7525260    -1.2638240     1.4882170
  H       -1.3561390     1.9546950     0.6612310
  H       -0.2921570     0.9237120     1.6255030
  H       -1.2491170    -1.9758090    -0.4428220
units angstrom
no_reorient  #important for SAPT in psi4, default
symmetry c1  #important for SAPT in psi4, default
}

set PROPERTIES_ORIGIN ["COM"]
properties('MP2/aug-cc-pvtz', properties = ['dipole'])
--------------------------------------------------------------------------

    Molecular point group: c1
  Charge       = 0
  Multiplicity = 1
  Basis Set: AUG-CC-PVTZ
    Blend: AUG-CC-PVTZ
  Basis Set: (AUG-CC-PVTZ AUX)
    Blend: AUG-CC-PVTZ-JKFIT

    Orbital Energies [Eh]
    ---------------------

    Doubly Occupied:

       1A    -20.509030     2A    -15.578381     3A    -11.343040
       4A    -11.277660     5A    -11.236665     6A    -11.236055
       7A    -11.235570     8A    -11.232430     9A     -1.363439
      10A     -1.228458    11A     -1.096510    12A     -1.042471
      13A     -0.946223    14A     -0.888855    15A     -0.794189
      16A     -0.764231    17A     -0.687682    18A     -0.677588
      19A     -0.626928    20A     -0.612684    21A     -0.602532
      22A     -0.592090    23A     -0.568303    24A     -0.545238
      25A     -0.520008    26A     -0.514111    27A     -0.482110
      28A     -0.471712    29A     -0.468822    30A     -0.410572
      31A     -0.382212

  @DF-RHF Final Energy:  -363.07442178888664

   => Energetics <=

    Nuclear Repulsion Energy =            394.4525758702499161
    One-Electron Energy =               -1275.1823949642709977
    Two-Electron Energy =                 517.6553973051344428
    Total Energy =                       -363.0744217888866388
  Basis Set: (AUG-CC-PVTZ AUX)
    Blend: AUG-CC-PVTZ-RI
    Molecular point group: c1

    Geometry (in Angstrom), charge = 0, multiplicity = 1:

       Center              X                  Y                   Z               Mass
    ------------   -----------------  -----------------  -----------------  -----------------
         O           -2.464059028763     0.073058229940    -0.384303739561    15.994914619570
         N           -0.634696028763    -1.217113770060    -0.016572739561    14.003074004430
         C            1.915606971237     0.738520229940    -0.025930739561    12.000000000000
         C            1.785680271237    -0.721794670060    -0.364467939561    12.000000000000
         C            0.652527971237     1.570345229940    -0.251419739561    12.000000000000
         C            0.724235971237    -1.485443770060     0.427132260439    12.000000000000
         C           -0.548189028763     1.151579229940     0.610884260439    12.000000000000
         C           -1.309264028763    -0.027878770060     0.039156260439    12.000000000000
         H            2.734228971237     1.172288229940    -0.613315739561     1.007825032230
         H            2.212046971237     0.830782229940     1.028363260439     1.007825032230
         H            1.580111971237    -0.871106770060    -1.439977739561     1.007825032230
         H            2.763914971237    -1.227268770060    -0.181456739561     1.007825032230
         H            0.363916971237     1.537158229940    -1.309741739561     1.007825032230
         H            0.888403971237     2.617553229940    -0.028728739561     1.007825032230
         H            0.869934971237    -2.564751770060     0.324872260439     1.007825032230
         H            0.830103971237    -1.256742770060     1.496620260439     1.007825032230
         H           -1.278561028763     1.961776229940     0.669634260439     1.007825032230
         H           -0.214579028763     0.930793229940     1.633906260439     1.007825032230
         H           -1.171539028763    -1.968727770060    -0.434418739561     1.007825032230

  Basis Set: AUG-CC-PVTZ
    Blend: AUG-CC-PVTZ
  Basis Set: (AUG-CC-PVTZ AUX)
    Blend: AUG-CC-PVTZ-JKFIT
	 Reference Energy          =    -363.0744217888866388 [Eh]
	 Singles Energy            =      -0.0000000000000000 [Eh]
	 Same-Spin Energy          =      -0.3779280553273352 [Eh]
	 Opposite-Spin Energy      =      -1.2478978814937172 [Eh]
	 Correlation Energy        =      -1.6258259368210524 [Eh]
	 Total Energy              =    -364.7002477257076976 [Eh]

	 ================> DF-SCS-MP2 Energies <==================
	-----------------------------------------------------------
	 SCS Same-Spin Scale       =       0.3333333333333333 [-]
	 SCS Opposite-Spin Scale   =       1.2000000000000000 [-]
	 SCS Same-Spin Energy      =      -0.1259760184424450 [Eh]
	 SCS Opposite-Spin Energy  =      -1.4974774577924606 [Eh]
	 SCS Correlation Energy    =      -1.6234534762349055 [Eh]
	 SCS Total Energy          =    -364.6978752651215245 [Eh]
	-----------------------------------------------------------

  Dipole Moment: [D]
     X:     4.0696      Y:    -1.0297      Z:     0.9005     Total:     4.2934

*** Psi4 exiting successfully. Buy a developer a beer!
