                               Psi4 1.3.2 release

  ==> Input File <==

--------------------------------------------------------------------------
#psi4
#
memory 32 gb

molecule  {
0 1
  O       -2.5416370     0.0659770    -0.3927070
  N       -0.7583547    -1.3187413     0.0850977
  C        1.8380290     0.7314390    -0.0343340
  C        1.7187040    -0.7521010    -0.3806110
  C        0.5749500     1.5632640    -0.2598230
  C        0.6466580    -1.4925250     0.4187290
  C       -0.6257670     1.1444980     0.6024810
  C       -1.3868420    -0.0349600     0.0307530
  H        2.6566510     1.1652070    -0.6217190
  H        2.1344690     0.8237010     1.0199600
  H        1.5025340    -0.8781880    -1.4483810
  H        2.6863370    -1.2343500    -0.1898600
  H        0.2863390     1.5300770    -1.3181450
  H        0.8108260     2.6104720    -0.0371320
  H        0.7923570    -2.5718330     0.3164690
  H        0.7525260    -1.2638240     1.4882170
  H       -1.3561390     1.9546950     0.6612310
  H       -0.2921570     0.9237120     1.6255030
  H       -1.2491170    -1.9758090    -0.4428220
units angstrom
no_reorient  #important for SAPT in psi4, default
symmetry c1  #important for SAPT in psi4, default
}

set PROPERTIES_ORIGIN ["COM"]
properties('MP2/aug-cc-pvtz', properties = ['dipole'])
--------------------------------------------------------------------------

    Molecular point group: c1
  Charge       = 0
  Multiplicity = 1
  Basis Set: AUG-CC-PVTZ
    Blend: AUG-CC-PVTZ
  Basis Set: (AUG-CC-PVTZ AUX)
    Blend: AUG-CC-PVTZ-JKFIT

    Orbital Energies [Eh]
    ---------------------

    Doubly Occupied:

       1A    -20.519791     2A    -15.573154     3A    -11.350890
       4A    -11.272488     5A    -11.240484     6A    -11.238625
       7A    -11.235641     8A    -11.233873     9A     -1.366013
      10A     -1.219542    11A     -1.096121    12A     -1.039836
      13A     -0.945445    14A     -0.884614    15A     -0.797639
      16A     -0.762379    17A     -0.681106    18A     -0.676206
      19A     -0.631164    20A     -0.613247    21A     -0.598302
      22A     -0.590765    23A     -0.567664    24A     -0.553919
      25A     -0.520254    26A     -0.515105    27A     -0.482029
      28A     -0.473001    29A     -0.468616    30A     -0.414160
      31A     -0.383739

  @DF-RHF Final Energy:  -363.06824087431983

   => Energetics <=

    Nuclear Repulsion Energy =            392.1774745372012489
    One-Electron Energy =               -1270.5998079662433611
    Two-Electron Energy =                 515.3540925547222287
    Total Energy =                       -363.0682408743198266
  Basis Set: (AUG-CC-PVTZ AUX)
    Blend: AUG-CC-PVTZ-RI
    Molecular point group: c1

    Geometry (in Angstrom), charge = 0, multiplicity = 1:

       Center              X                  Y                   Z               Mass
    ------------   -----------------  -----------------  -----------------  -----------------
         O           -2.459477914200     0.087230342078    -0.397112728875    15.994914619570
         N           -0.676195614200    -1.297487957922     0.080691971125    14.003074004430
         C            1.920188085800     0.752692342078    -0.038739728875    12.000000000000
         C            1.800863085800    -0.730847657922    -0.385016728875    12.000000000000
         C            0.657109085800     1.584517342078    -0.264228728875    12.000000000000
         C            0.728817085800    -1.471271657922     0.414323271125    12.000000000000
         C           -0.543607914200     1.165751342078     0.598075271125    12.000000000000
         C           -1.304682914200    -0.013706657922     0.026347271125    12.000000000000
         H            2.738810085800     1.186460342078    -0.626124728875     1.007825032230
         H            2.216628085800     0.844954342078     1.015554271125     1.007825032230
         H            1.584693085800    -0.856934657922    -1.452786728875     1.007825032230
         H            2.768496085800    -1.213096657922    -0.194265728875     1.007825032230
         H            0.368498085800     1.551330342078    -1.322550728875     1.007825032230
         H            0.892985085800     2.631725342078    -0.041537728875     1.007825032230
         H            0.874516085800    -2.550579657922     0.312063271125     1.007825032230
         H            0.834685085800    -1.242570657922     1.483811271125     1.007825032230
         H           -1.273979914200     1.975948342078     0.656825271125     1.007825032230
         H           -0.209997914200     0.944965342078     1.621097271125     1.007825032230
         H           -1.166957914200    -1.954555657922    -0.447227728875     1.007825032230

  Basis Set: AUG-CC-PVTZ
    Blend: AUG-CC-PVTZ
  Basis Set: (AUG-CC-PVTZ AUX)
    Blend: AUG-CC-PVTZ-JKFIT
	 Reference Energy          =    -363.0682408743198266 [Eh]
	 Singles Energy            =      -0.0000000000000000 [Eh]
	 Same-Spin Energy          =      -0.3775012019699026 [Eh]
	 Opposite-Spin Energy      =      -1.2480907054072761 [Eh]
	 Correlation Energy        =      -1.6255919073771787 [Eh]
	 Total Energy              =    -364.6938327816969831 [Eh]

	 ================> DF-SCS-MP2 Energies <==================
	-----------------------------------------------------------
	 SCS Same-Spin Scale       =       0.3333333333333333 [-]
	 SCS Opposite-Spin Scale   =       1.2000000000000000 [-]
	 SCS Same-Spin Energy      =      -0.1258337339899675 [Eh]
	 SCS Opposite-Spin Energy  =      -1.4977088464887311 [Eh]
	 SCS Correlation Energy    =      -1.6235425804786987 [Eh]
	 SCS Total Energy          =    -364.6917834547985535 [Eh]
	-----------------------------------------------------------

  Dipole Moment: [D]
     X:     3.9532      Y:    -0.6121      Z:     0.6204     Total:     4.0481

*** Psi4 exiting successfully. Buy a developer a beer!
