                               Psi4 1.4a3.dev225

  ==> Input File <==

--------------------------------------------------------------------------
#psi4
#
memory 32 gb

molecule  {
0 1
  O       -2.5416370     0.0659770    -0.3927070
  N       -0.7122740    -1.2241950    -0.0249760
  C        1.8380290     0.7314390    -0.0343340
  C        1.7187040    -0.7521010    -0.3806110
  C        0.5749500     1.5632640    -0.2598230
  C        0.6115905    -1.5167449     0.4448761
  C       -0.6257670     1.1444980     0.6024810
  C       -1.3868420    -0.0349600     0.0307530
  H        2.6566510     1.1652070    -0.6217190
  H        2.1344690     0.8237010     1.0199600
  H        1.5025340    -0.8781880    -1.4483810
  H        2.6863370    -1.2343500    -0.1898600
  H        0.2863390     1.5300770    -1.3181450
  H        0.8108260     2.6104720    -0.0371320
  H        0.7923570    -2.5718330     0.3164690
  H        0.7525260    -1.2638240     1.4882170
  H       -1.3561390     1.9546950     0.6612310
  H       -0.2921570     0.9237120     1.6255030
  H       -1.2491170    -1.9758090    -0.4428220
units angstrom
no_reorient  #important for SAPT in psi4, default
symmetry c1  #important for SAPT in psi4, default
}

set PROPERTIES_ORIGIN ["COM"]
properties('MP2/aug-cc-pvtz', properties = ['dipole'])
--------------------------------------------------------------------------

    Molecular point group: c1
  Charge       = 0
  Multiplicity = 1
  Basis Set: AUG-CC-PVTZ
    Blend: AUG-CC-PVTZ
  Basis Set: (AUG-CC-PVTZ AUX)
    Blend: AUG-CC-PVTZ-JKFIT

    Orbital Energies [Eh]
    ---------------------

    Doubly Occupied:

       1A    -20.510140     2A    -15.579411     3A    -11.344355
       4A    -11.275433     5A    -11.236654     6A    -11.235985
       7A    -11.234772     8A    -11.232391     9A     -1.364700
      10A     -1.232271    11A     -1.092096    12A     -1.037545
      13A     -0.944252    14A     -0.890783    15A     -0.794309
      16A     -0.765852    17A     -0.690601    18A     -0.677970
      19A     -0.625159    20A     -0.611250    21A     -0.603053
      22A     -0.594104    23A     -0.570567    24A     -0.540467
      25A     -0.522043    26A     -0.516458    27A     -0.481143
      28A     -0.470530    29A     -0.466869    30A     -0.411886
      31A     -0.379727

  @DF-RHF Final Energy:  -363.07375055048567

   => Energetics <=

    Nuclear Repulsion Energy =            393.7758320073800746
    One-Electron Energy =               -1273.8336137064309241
    Two-Electron Energy =                 516.9840311485651227
    Total Energy =                       -363.0737505504856699
  Basis Set: (AUG-CC-PVTZ AUX)
    Blend: AUG-CC-PVTZ-RI
    Molecular point group: c1

    Geometry (in Angstrom), charge = 0, multiplicity = 1:

       Center              X                  Y                   Z               Mass
    ------------   -----------------  -----------------  -----------------  -----------------
         O           -2.461462822103     0.078092891589    -0.386257043964    15.994914619570
         N           -0.632099822103    -1.212079108411    -0.018526043964    14.003074004430
         C            1.918203177897     0.743554891589    -0.027884043964    12.000000000000
         C            1.798878177897    -0.739985108411    -0.374161043964    12.000000000000
         C            0.655124177897     1.575379891589    -0.253373043964    12.000000000000
         C            0.691764677897    -1.504629008411     0.451326056036    12.000000000000
         C           -0.545592822103     1.156613891589     0.608930956036    12.000000000000
         C           -1.306667822103    -0.022844108411     0.037202956036    12.000000000000
         H            2.736825177897     1.177322891589    -0.615269043964     1.007825032230
         H            2.214643177897     0.835816891589     1.026409956036     1.007825032230
         H            1.582708177897    -0.866072108411    -1.441931043964     1.007825032230
         H            2.766511177897    -1.222234108411    -0.183410043964     1.007825032230
         H            0.366513177897     1.542192891589    -1.311695043964     1.007825032230
         H            0.891000177897     2.622587891589    -0.030682043964     1.007825032230
         H            0.872531177897    -2.559717108411     0.322918956036     1.007825032230
         H            0.832700177897    -1.251708108411     1.494666956036     1.007825032230
         H           -1.275964822103     1.966810891589     0.667680956036     1.007825032230
         H           -0.211982822103     0.935827891589     1.631952956036     1.007825032230
         H           -1.168942822103    -1.963693108411    -0.436372043964     1.007825032230

  Basis Set: AUG-CC-PVTZ
    Blend: AUG-CC-PVTZ
  Basis Set: (AUG-CC-PVTZ AUX)
    Blend: AUG-CC-PVTZ-JKFIT
	 Reference Energy          =    -363.0737505504856699 [Eh]
	 Singles Energy            =      -0.0000000000000000 [Eh]
	 Same-Spin Energy          =      -0.3775875788925425 [Eh]
	 Opposite-Spin Energy      =      -1.2475232106117509 [Eh]
	 Correlation Energy        =      -1.6251107895042933 [Eh]
	 Total Energy              =    -364.6988613399899464 [Eh]

	 ================> DF-SCS-MP2 Energies <==================
	-----------------------------------------------------------
	 SCS Same-Spin Scale       =       0.3333333333333333 [-]
	 SCS Opposite-Spin Scale   =       1.2000000000000000 [-]
	 SCS Same-Spin Energy      =      -0.1258625262975142 [Eh]
	 SCS Opposite-Spin Energy  =      -1.4970278527341010 [Eh]
	 SCS Correlation Energy    =      -1.6228903790316151 [Eh]
	 SCS Total Energy          =    -364.6966409295172866 [Eh]
	-----------------------------------------------------------

  Dipole Moment: [D]
     X:     3.9842      Y:    -1.0512      Z:     0.9237     Total:     4.2228

*** Psi4 exiting successfully. Buy a developer a beer!
