                               Psi4 1.3.2 release

  ==> Input File <==

--------------------------------------------------------------------------
#psi4
#
memory 32 gb

molecule  {
0 1
  O       -2.5416370     0.0659770    -0.3927070
  N       -0.7122740    -1.2241950    -0.0249760
  C        1.8511179     0.7536294    -0.0273707
  C        1.7187040    -0.7521010    -0.3806110
  C        0.5749500     1.5632640    -0.2598230
  C        0.6466580    -1.4925250     0.4187290
  C       -0.6257670     1.1444980     0.6024810
  C       -1.3868420    -0.0349600     0.0307530
  H        2.6566510     1.1652070    -0.6217190
  H        2.1344690     0.8237010     1.0199600
  H        1.5025340    -0.8781880    -1.4483810
  H        2.6863370    -1.2343500    -0.1898600
  H        0.2863390     1.5300770    -1.3181450
  H        0.8108260     2.6104720    -0.0371320
  H        0.7923570    -2.5718330     0.3164690
  H        0.7525260    -1.2638240     1.4882170
  H       -1.3561390     1.9546950     0.6612310
  H       -0.2921570     0.9237120     1.6255030
  H       -1.2491170    -1.9758090    -0.4428220
units angstrom
no_reorient  #important for SAPT in psi4, default
symmetry c1  #important for SAPT in psi4, default
}

set PROPERTIES_ORIGIN ["COM"]
properties('MP2/aug-cc-pvtz', properties = ['dipole'])
--------------------------------------------------------------------------

    Molecular point group: c1
  Charge       = 0
  Multiplicity = 1
  Basis Set: AUG-CC-PVTZ
    Blend: AUG-CC-PVTZ
  Basis Set: (AUG-CC-PVTZ AUX)
    Blend: AUG-CC-PVTZ-JKFIT

    Orbital Energies [Eh]
    ---------------------

    Doubly Occupied:

       1A    -20.509037     2A    -15.578509     3A    -11.342992
       4A    -11.277307     5A    -11.236628     6A    -11.236030
       7A    -11.234817     8A    -11.232082     9A     -1.363413
      10A     -1.227962    11A     -1.092224    12A     -1.040678
      13A     -0.946291    14A     -0.886976    15A     -0.797231
      16A     -0.763870    17A     -0.687262    18A     -0.677136
      19A     -0.626193    20A     -0.610741    21A     -0.601479
      22A     -0.591292    23A     -0.571015    24A     -0.544960
      25A     -0.520560    26A     -0.515630    27A     -0.483527
      28A     -0.473332    29A     -0.463523    30A     -0.410703
      31A     -0.382723

  @DF-RHF Final Energy:  -363.07512578138136

   => Energetics <=

    Nuclear Repulsion Energy =            393.7275291724113231
    One-Electron Energy =               -1273.7530629522605068
    Two-Electron Energy =                 516.9504079984678810
    Total Energy =                       -363.0751257813813027
  Basis Set: (AUG-CC-PVTZ AUX)
    Blend: AUG-CC-PVTZ-RI
    Molecular point group: c1

    Geometry (in Angstrom), charge = 0, multiplicity = 1:

       Center              X                  Y                   Z               Mass
    ------------   -----------------  -----------------  -----------------  -----------------
         O           -2.466572974495     0.073168027904    -0.384221340683    15.994914619570
         N           -0.637209974495    -1.217003972096    -0.016490340683    14.003074004430
         C            1.926181925505     0.760820427904    -0.018885040683    12.000000000000
         C            1.793768025505    -0.744909972096    -0.372125340683    12.000000000000
         C            0.650014025505     1.570455027904    -0.251337340683    12.000000000000
         C            0.721722025505    -1.485333972096     0.427214659317    12.000000000000
         C           -0.550702974495     1.151689027904     0.610966659317    12.000000000000
         C           -1.311777974495    -0.027768972096     0.039238659317    12.000000000000
         H            2.731715025505     1.172398027904    -0.613233340683     1.007825032230
         H            2.209533025505     0.830892027904     1.028445659317     1.007825032230
         H            1.577598025505    -0.870996972096    -1.439895340683     1.007825032230
         H            2.761401025505    -1.227158972096    -0.181374340683     1.007825032230
         H            0.361403025505     1.537268027904    -1.309659340683     1.007825032230
         H            0.885890025505     2.617663027904    -0.028646340683     1.007825032230
         H            0.867421025505    -2.564641972096     0.324954659317     1.007825032230
         H            0.827590025505    -1.256632972096     1.496702659317     1.007825032230
         H           -1.281074974495     1.961886027904     0.669716659317     1.007825032230
         H           -0.217092974495     0.930903027904     1.633988659317     1.007825032230
         H           -1.174052974495    -1.968617972096    -0.434336340683     1.007825032230

  Basis Set: AUG-CC-PVTZ
    Blend: AUG-CC-PVTZ
  Basis Set: (AUG-CC-PVTZ AUX)
    Blend: AUG-CC-PVTZ-JKFIT
	 Reference Energy          =    -363.0751257813813595 [Eh]
	 Singles Energy            =      -0.0000000000000000 [Eh]
	 Same-Spin Energy          =      -0.3775739683478367 [Eh]
	 Opposite-Spin Energy      =      -1.2475322310859296 [Eh]
	 Correlation Energy        =      -1.6251061994337663 [Eh]
	 Total Energy              =    -364.7002319808151469 [Eh]

	 ================> DF-SCS-MP2 Energies <==================
	-----------------------------------------------------------
	 SCS Same-Spin Scale       =       0.3333333333333333 [-]
	 SCS Opposite-Spin Scale   =       1.2000000000000000 [-]
	 SCS Same-Spin Energy      =      -0.1258579894492789 [Eh]
	 SCS Opposite-Spin Energy  =      -1.4970386773031155 [Eh]
	 SCS Correlation Energy    =      -1.6228966667523943 [Eh]
	 SCS Total Energy          =    -364.6980224481337700 [Eh]
	-----------------------------------------------------------

  Dipole Moment: [D]
     X:     4.0771      Y:    -1.0276      Z:     0.9027     Total:     4.3004

*** Psi4 exiting successfully. Buy a developer a beer!
