                               Psi4 1.3.2 release

  ==> Input File <==

--------------------------------------------------------------------------
#psi4
#
memory 32 gb

molecule  {
0 1
  O       -2.5416370     0.0659770    -0.3927070
  N       -0.7122740    -1.2241950    -0.0249760
  C        1.7818676     0.6452775    -0.0628527
  C        1.7187040    -0.7521010    -0.3806110
  C        0.5749500     1.5632640    -0.2598230
  C        0.6466580    -1.4925250     0.4187290
  C       -0.6257670     1.1444980     0.6024810
  C       -1.3868420    -0.0349600     0.0307530
  H        2.6566510     1.1652070    -0.6217190
  H        2.1344690     0.8237010     1.0199600
  H        1.5025340    -0.8781880    -1.4483810
  H        2.6863370    -1.2343500    -0.1898600
  H        0.2863390     1.5300770    -1.3181450
  H        0.8108260     2.6104720    -0.0371320
  H        0.7923570    -2.5718330     0.3164690
  H        0.7525260    -1.2638240     1.4882170
  H       -1.3561390     1.9546950     0.6612310
  H       -0.2921570     0.9237120     1.6255030
  H       -1.2491170    -1.9758090    -0.4428220
units angstrom
no_reorient  #important for SAPT in psi4, default
symmetry c1  #important for SAPT in psi4, default
}

set PROPERTIES_ORIGIN ["COM"]
properties('MP2/aug-cc-pvtz', properties = ['dipole'])
--------------------------------------------------------------------------

    Molecular point group: c1
  Charge       = 0
  Multiplicity = 1
  Basis Set: AUG-CC-PVTZ
    Blend: AUG-CC-PVTZ
  Basis Set: (AUG-CC-PVTZ AUX)
    Blend: AUG-CC-PVTZ-JKFIT

    Orbital Energies [Eh]
    ---------------------

    Doubly Occupied:

       1A    -20.509355     2A    -15.579518     3A    -11.343429
       4A    -11.277591     5A    -11.239309     6A    -11.238386
       7A    -11.235224     8A    -11.231864     9A     -1.363825
      10A     -1.229896    11A     -1.103729    12A     -1.048547
      13A     -0.942524    14A     -0.895382    15A     -0.788351
      16A     -0.764707    17A     -0.691612    18A     -0.676087
      19A     -0.629316    20A     -0.617710    21A     -0.603264
      22A     -0.594650    23A     -0.567229    24A     -0.546566
      25A     -0.518716    26A     -0.515286    27A     -0.493589
      28A     -0.466633    29A     -0.453542    30A     -0.410174
      31A     -0.382735

  @DF-RHF Final Energy:  -363.06186541183365

   => Energetics <=

    Nuclear Repulsion Energy =            395.5899857950528826
    One-Electron Energy =               -1277.3862097104511122
    Two-Electron Energy =                 518.7343585035646356
    Total Energy =                       -363.0618654118336508
  Basis Set: (AUG-CC-PVTZ AUX)
    Blend: AUG-CC-PVTZ-RI
    Molecular point group: c1

    Geometry (in Angstrom), charge = 0, multiplicity = 1:

       Center              X                  Y                   Z               Mass
    ------------   -----------------  -----------------  -----------------  -----------------
         O           -2.459224427133     0.084665870785    -0.380456141724    15.994914619570
         N           -0.629861427133    -1.205506129215    -0.012725141724    14.003074004430
         C            1.864280172867     0.663966370785    -0.050601841724    12.000000000000
         C            1.801116572867    -0.733412129215    -0.368360141724    12.000000000000
         C            0.657362572867     1.581952870785    -0.247572141724    12.000000000000
         C            0.729070572867    -1.473836129215     0.430979858276    12.000000000000
         C           -0.543354427133     1.163186870785     0.614731858276    12.000000000000
         C           -1.304429427133    -0.016271129215     0.043003858276    12.000000000000
         H            2.739063572867     1.183895870785    -0.609468141724     1.007825032230
         H            2.216881572867     0.842389870785     1.032210858276     1.007825032230
         H            1.584946572867    -0.859499129215    -1.436130141724     1.007825032230
         H            2.768749572867    -1.215661129215    -0.177609141724     1.007825032230
         H            0.368751572867     1.548765870785    -1.305894141724     1.007825032230
         H            0.893238572867     2.629160870785    -0.024881141724     1.007825032230
         H            0.874769572867    -2.553144129215     0.328719858276     1.007825032230
         H            0.834938572867    -1.245135129215     1.500467858276     1.007825032230
         H           -1.273726427133     1.973383870785     0.673481858276     1.007825032230
         H           -0.209744427133     0.942400870785     1.637753858276     1.007825032230
         H           -1.166704427133    -1.957120129215    -0.430571141724     1.007825032230

  Basis Set: AUG-CC-PVTZ
    Blend: AUG-CC-PVTZ
  Basis Set: (AUG-CC-PVTZ AUX)
    Blend: AUG-CC-PVTZ-JKFIT
	 Reference Energy          =    -363.0618654118336508 [Eh]
	 Singles Energy            =      -0.0000000000000000 [Eh]
	 Same-Spin Energy          =      -0.3788395787225588 [Eh]
	 Opposite-Spin Energy      =      -1.2491901483121610 [Eh]
	 Correlation Energy        =      -1.6280297270347197 [Eh]
	 Total Energy              =    -364.6898951388683940 [Eh]

	 ================> DF-SCS-MP2 Energies <==================
	-----------------------------------------------------------
	 SCS Same-Spin Scale       =       0.3333333333333333 [-]
	 SCS Opposite-Spin Scale   =       1.2000000000000000 [-]
	 SCS Same-Spin Energy      =      -0.1262798595741862 [Eh]
	 SCS Opposite-Spin Energy  =      -1.4990281779745931 [Eh]
	 SCS Correlation Energy    =      -1.6253080375487794 [Eh]
	 SCS Total Energy          =    -364.6871734493824420 [Eh]
	-----------------------------------------------------------

  Dipole Moment: [D]
     X:     4.0336      Y:    -1.0768      Z:     0.8653     Total:     4.2636

*** Psi4 exiting successfully. Buy a developer a beer!
