                               Psi4 1.3.2 release

  ==> Input File <==

--------------------------------------------------------------------------
#psi4
#
memory 32 gb

molecule  {
0 1
  O       -2.5416370     0.0659770    -0.3927070
  N       -0.7122740    -1.2241950    -0.0249760
  C        1.8380290     0.7314390    -0.0343340
  C        1.7187040    -0.7521010    -0.3806110
  C        0.5749500     1.5632640    -0.2598230
  C        0.6530054    -1.3951062     0.4465882
  C       -0.6257670     1.1444980     0.6024810
  C       -1.3868420    -0.0349600     0.0307530
  H        2.6566510     1.1652070    -0.6217190
  H        2.1344690     0.8237010     1.0199600
  H        1.5025340    -0.8781880    -1.4483810
  H        2.6863370    -1.2343500    -0.1898600
  H        0.2863390     1.5300770    -1.3181450
  H        0.8108260     2.6104720    -0.0371320
  H        0.7923570    -2.5718330     0.3164690
  H        0.7525260    -1.2638240     1.4882170
  H       -1.3561390     1.9546950     0.6612310
  H       -0.2921570     0.9237120     1.6255030
  H       -1.2491170    -1.9758090    -0.4428220
units angstrom
no_reorient  #important for SAPT in psi4, default
symmetry c1  #important for SAPT in psi4, default
}

set PROPERTIES_ORIGIN ["COM"]
properties('MP2/aug-cc-pvtz', properties = ['dipole'])
--------------------------------------------------------------------------

    Molecular point group: c1
  Charge       = 0
  Multiplicity = 1
  Basis Set: AUG-CC-PVTZ
    Blend: AUG-CC-PVTZ
  Basis Set: (AUG-CC-PVTZ AUX)
    Blend: AUG-CC-PVTZ-JKFIT

    Orbital Energies [Eh]
    ---------------------

    Doubly Occupied:

       1A    -20.508737     2A    -15.579809     3A    -11.341151
       4A    -11.280121     5A    -11.237194     6A    -11.236484
       7A    -11.234043     8A    -11.231995     9A     -1.363439
      10A     -1.229954    11A     -1.096938    12A     -1.044738
      13A     -0.945669    14A     -0.884659    15A     -0.799552
      16A     -0.765572    17A     -0.692977    18A     -0.672931
      19A     -0.632426    20A     -0.615220    21A     -0.601955
      22A     -0.580123    23A     -0.569692    24A     -0.550018
      25A     -0.521563    26A     -0.513895    27A     -0.482063
      28A     -0.473312    29A     -0.456904    30A     -0.409070
      31A     -0.387052

  @DF-RHF Final Energy:  -363.06363504796269

   => Energetics <=

    Nuclear Repulsion Energy =            395.1875883426383780
    One-Electron Energy =               -1276.6239337876913851
    Two-Electron Energy =                 518.3727103970903727
    Total Energy =                       -363.0636350479626344
  Basis Set: (AUG-CC-PVTZ AUX)
    Blend: AUG-CC-PVTZ-RI
    Molecular point group: c1

    Geometry (in Angstrom), charge = 0, multiplicity = 1:

       Center              X                  Y                   Z               Mass
    ------------   -----------------  -----------------  -----------------  -----------------
         O           -2.465857595182     0.065185109991    -0.386438724735    15.994914619570
         N           -0.636494595182    -1.224986890009    -0.018707724735    14.003074004430
         C            1.913808404818     0.730647109991    -0.028065724735    12.000000000000
         C            1.794483404818    -0.752892890009    -0.374342724735    12.000000000000
         C            0.650729404818     1.562472109991    -0.253554724735    12.000000000000
         C            0.728784804818    -1.395898090009     0.452856475265    12.000000000000
         C           -0.549987595182     1.143706109991     0.608749275265    12.000000000000
         C           -1.311062595182    -0.035751890009     0.037021275265    12.000000000000
         H            2.732430404818     1.164415109991    -0.615450724735     1.007825032230
         H            2.210248404818     0.822909109991     1.026228275265     1.007825032230
         H            1.578313404818    -0.878979890009    -1.442112724735     1.007825032230
         H            2.762116404818    -1.235141890009    -0.183591724735     1.007825032230
         H            0.362118404818     1.529285109991    -1.311876724735     1.007825032230
         H            0.886605404818     2.609680109991    -0.030863724735     1.007825032230
         H            0.868136404818    -2.572624890009     0.322737275265     1.007825032230
         H            0.828305404818    -1.264615890009     1.494485275265     1.007825032230
         H           -1.280359595182     1.953903109991     0.667499275265     1.007825032230
         H           -0.216377595182     0.922920109991     1.631771275265     1.007825032230
         H           -1.173337595182    -1.976600890009    -0.436553724735     1.007825032230

  Basis Set: AUG-CC-PVTZ
    Blend: AUG-CC-PVTZ
  Basis Set: (AUG-CC-PVTZ AUX)
    Blend: AUG-CC-PVTZ-JKFIT
	 Reference Energy          =    -363.0636350479626913 [Eh]
	 Singles Energy            =      -0.0000000000000000 [Eh]
	 Same-Spin Energy          =      -0.3784048208899920 [Eh]
	 Opposite-Spin Energy      =      -1.2488438174896006 [Eh]
	 Correlation Energy        =      -1.6272486383795925 [Eh]
	 Total Energy              =    -364.6908836863422607 [Eh]

	 ================> DF-SCS-MP2 Energies <==================
	-----------------------------------------------------------
	 SCS Same-Spin Scale       =       0.3333333333333333 [-]
	 SCS Opposite-Spin Scale   =       1.2000000000000000 [-]
	 SCS Same-Spin Energy      =      -0.1261349402966640 [Eh]
	 SCS Opposite-Spin Energy  =      -1.4986125809875206 [Eh]
	 SCS Correlation Energy    =      -1.6247475212841846 [Eh]
	 SCS Total Energy          =    -364.6883825692468690 [Eh]
	-----------------------------------------------------------

  Dipole Moment: [D]
     X:     4.0793      Y:    -0.9478      Z:     0.9088     Total:     4.2854

*** Psi4 exiting successfully. Buy a developer a beer!
