                               Psi4 1.3.2 release

  ==> Input File <==

--------------------------------------------------------------------------
#psi4
#
memory 32 gb

molecule  {
0 1
  O       -2.5416370     0.0659770    -0.3927070
  N       -0.7446834    -1.2869626     0.0479398
  C        1.8380290     0.7314390    -0.0343340
  C        1.7187040    -0.7521010    -0.3806110
  C        0.5749500     1.5632640    -0.2598230
  C        0.6466580    -1.4925250     0.4187290
  C       -0.6257670     1.1444980     0.6024810
  C       -1.3868420    -0.0349600     0.0307530
  H        2.6566510     1.1652070    -0.6217190
  H        2.1344690     0.8237010     1.0199600
  H        1.5025340    -0.8781880    -1.4483810
  H        2.6863370    -1.2343500    -0.1898600
  H        0.2863390     1.5300770    -1.3181450
  H        0.8108260     2.6104720    -0.0371320
  H        0.7923570    -2.5718330     0.3164690
  H        0.7525260    -1.2638240     1.4882170
  H       -1.3561390     1.9546950     0.6612310
  H       -0.2921570     0.9237120     1.6255030
  H       -1.2491170    -1.9758090    -0.4428220
units angstrom
no_reorient  #important for SAPT in psi4, default
symmetry c1  #important for SAPT in psi4, default
}

set PROPERTIES_ORIGIN ["COM"]
properties('MP2/aug-cc-pvtz', properties = ['dipole'])
--------------------------------------------------------------------------

    Molecular point group: c1
  Charge       = 0
  Multiplicity = 1
  Basis Set: AUG-CC-PVTZ
    Blend: AUG-CC-PVTZ
  Basis Set: (AUG-CC-PVTZ AUX)
    Blend: AUG-CC-PVTZ-JKFIT

    Orbital Energies [Eh]
    ---------------------

    Doubly Occupied:

       1A    -20.515548     2A    -15.574623     3A    -11.348075
       4A    -11.274278     5A    -11.239018     6A    -11.237839
       7A    -11.235249     8A    -11.233606     9A     -1.364769
      10A     -1.222680    11A     -1.095452    12A     -1.040537
      13A     -0.945542    14A     -0.886122    15A     -0.796973
      16A     -0.764073    17A     -0.682209    18A     -0.677485
      19A     -0.629728    20A     -0.612806    21A     -0.599823
      22A     -0.590826    23A     -0.568567    24A     -0.551173
      25A     -0.520045    26A     -0.515490    27A     -0.481804
      28A     -0.472213    29A     -0.468949    30A     -0.412838
      31A     -0.382975

  @DF-RHF Final Energy:  -363.07227267944899

   => Energetics <=

    Nuclear Repulsion Energy =            392.8501838954493905
    One-Electron Energy =               -1271.9622806628465241
    Two-Electron Energy =                 516.0398240879480909
    Total Energy =                       -363.0722726794490427
  Basis Set: (AUG-CC-PVTZ AUX)
    Blend: AUG-CC-PVTZ-RI
    Molecular point group: c1

    Geometry (in Angstrom), charge = 0, multiplicity = 1:

       Center              X                  Y                   Z               Mass
    ------------   -----------------  -----------------  -----------------  -----------------
         O           -2.461170816090     0.083295220964    -0.392511507401    15.994914619570
         N           -0.664217216090    -1.269644379036     0.048135292599    14.003074004430
         C            1.918495183910     0.748757220964    -0.034138507401    12.000000000000
         C            1.799170183910    -0.734782779036    -0.380415507401    12.000000000000
         C            0.655416183910     1.580582220964    -0.259627507401    12.000000000000
         C            0.727124183910    -1.475206779036     0.418924492599    12.000000000000
         C           -0.545300816090     1.161816220964     0.602676492599    12.000000000000
         C           -1.306375816090    -0.017641779036     0.030948492599    12.000000000000
         H            2.737117183910     1.182525220964    -0.621523507401     1.007825032230
         H            2.214935183910     0.841019220964     1.020155492599     1.007825032230
         H            1.583000183910    -0.860869779036    -1.448185507401     1.007825032230
         H            2.766803183910    -1.217031779036    -0.189664507401     1.007825032230
         H            0.366805183910     1.547395220964    -1.317949507401     1.007825032230
         H            0.891292183910     2.627790220964    -0.036936507401     1.007825032230
         H            0.872823183910    -2.554514779036     0.316664492599     1.007825032230
         H            0.832992183910    -1.246505779036     1.488412492599     1.007825032230
         H           -1.275672816090     1.972013220964     0.661426492599     1.007825032230
         H           -0.211690816090     0.941030220964     1.625698492599     1.007825032230
         H           -1.168650816090    -1.958490779036    -0.442626507401     1.007825032230

  Basis Set: AUG-CC-PVTZ
    Blend: AUG-CC-PVTZ
  Basis Set: (AUG-CC-PVTZ AUX)
    Blend: AUG-CC-PVTZ-JKFIT
	 Reference Energy          =    -363.0722726794489859 [Eh]
	 Singles Energy            =      -0.0000000000000000 [Eh]
	 Same-Spin Energy          =      -0.3775150467302782 [Eh]
	 Opposite-Spin Energy      =      -1.2477396468195994 [Eh]
	 Correlation Energy        =      -1.6252546935498775 [Eh]
	 Total Energy              =    -364.6975273729988771 [Eh]

	 ================> DF-SCS-MP2 Energies <==================
	-----------------------------------------------------------
	 SCS Same-Spin Scale       =       0.3333333333333333 [-]
	 SCS Opposite-Spin Scale   =       1.2000000000000000 [-]
	 SCS Same-Spin Energy      =      -0.1258383489100927 [Eh]
	 SCS Opposite-Spin Energy  =      -1.4972875761835192 [Eh]
	 SCS Correlation Energy    =      -1.6231259250936119 [Eh]
	 SCS Total Energy          =    -364.6953986045426177 [Eh]
	-----------------------------------------------------------

  Dipole Moment: [D]
     X:     4.0046      Y:    -0.7705      Z:     0.7174     Total:     4.1407

*** Psi4 exiting successfully. Buy a developer a beer!
