                               Psi4 1.3.2 release

  ==> Input File <==

--------------------------------------------------------------------------
#psi4
#
memory 32 gb

molecule  {
0 1
  O       -2.5416370     0.0659770    -0.3927070
  N       -0.7122740    -1.2241950    -0.0249760
  C        1.8380290     0.7314390    -0.0343340
  C        1.7187040    -0.7521010    -0.3806110
  C        0.6575528     1.5088644    -0.2450765
  C        0.6466580    -1.4925250     0.4187290
  C       -0.6257670     1.1444980     0.6024810
  C       -1.3868420    -0.0349600     0.0307530
  H        2.6566510     1.1652070    -0.6217190
  H        2.1344690     0.8237010     1.0199600
  H        1.5025340    -0.8781880    -1.4483810
  H        2.6863370    -1.2343500    -0.1898600
  H        0.2863390     1.5300770    -1.3181450
  H        0.8108260     2.6104720    -0.0371320
  H        0.7923570    -2.5718330     0.3164690
  H        0.7525260    -1.2638240     1.4882170
  H       -1.3561390     1.9546950     0.6612310
  H       -0.2921570     0.9237120     1.6255030
  H       -1.2491170    -1.9758090    -0.4428220
units angstrom
no_reorient  #important for SAPT in psi4, default
symmetry c1  #important for SAPT in psi4, default
}

set PROPERTIES_ORIGIN ["COM"]
properties('MP2/aug-cc-pvtz', properties = ['dipole'])
--------------------------------------------------------------------------

    Molecular point group: c1
  Charge       = 0
  Multiplicity = 1
  Basis Set: AUG-CC-PVTZ
    Blend: AUG-CC-PVTZ
  Basis Set: (AUG-CC-PVTZ AUX)
    Blend: AUG-CC-PVTZ-JKFIT

    Orbital Energies [Eh]
    ---------------------

    Doubly Occupied:

       1A    -20.508584     2A    -15.578115     3A    -11.342254
       4A    -11.277848     5A    -11.241151     6A    -11.238313
       7A    -11.235098     8A    -11.229652     9A     -1.362946
      10A     -1.228238    11A     -1.105491    12A     -1.038218
      13A     -0.953380    14A     -0.887277    15A     -0.792727
      16A     -0.762873    17A     -0.688416    18A     -0.677498
      19A     -0.630663    20A     -0.612924    21A     -0.606905
      22A     -0.588752    23A     -0.571602    24A     -0.543913
      25A     -0.519711    26A     -0.512923    27A     -0.496394
      28A     -0.465165    29A     -0.457105    30A     -0.409133
      31A     -0.382598

  @DF-RHF Final Energy:  -363.06414955109796

   => Energetics <=

    Nuclear Repulsion Energy =            394.7739898434142560
    One-Electron Energy =               -1275.7845412370329541
    Two-Electron Energy =                 517.9464018425207996
    Total Energy =                       -363.0641495510978984
  Basis Set: (AUG-CC-PVTZ AUX)
    Blend: AUG-CC-PVTZ-RI
    Molecular point group: c1

    Geometry (in Angstrom), charge = 0, multiplicity = 1:

       Center              X                  Y                   Z               Mass
    ------------   -----------------  -----------------  -----------------  -----------------
         O           -2.473949493967     0.081295433019    -0.385047260771    15.994914619570
         N           -0.644586493967    -1.208876566981    -0.017316260771    14.003074004430
         C            1.905716506033     0.746757433019    -0.026674260771    12.000000000000
         C            1.786391506033    -0.736782566981    -0.372951260771    12.000000000000
         C            0.725240306033     1.524182833019    -0.237416760771    12.000000000000
         C            0.714345506033    -1.477206566981     0.426388739229    12.000000000000
         C           -0.558079493967     1.159816433019     0.610140739229    12.000000000000
         C           -1.319154493967    -0.019641566981     0.038412739229    12.000000000000
         H            2.724338506033     1.180525433019    -0.614059260771     1.007825032230
         H            2.202156506033     0.839019433019     1.027619739229     1.007825032230
         H            1.570221506033    -0.862869566981    -1.440721260771     1.007825032230
         H            2.754024506033    -1.219031566981    -0.182200260771     1.007825032230
         H            0.354026506033     1.545395433019    -1.310485260771     1.007825032230
         H            0.878513506033     2.625790433019    -0.029472260771     1.007825032230
         H            0.860044506033    -2.556514566981     0.324128739229     1.007825032230
         H            0.820213506033    -1.248505566981     1.495876739229     1.007825032230
         H           -1.288451493967     1.970013433019     0.668890739229     1.007825032230
         H           -0.224469493967     0.939030433019     1.633162739229     1.007825032230
         H           -1.181429493967    -1.960490566981    -0.435162260771     1.007825032230

  Basis Set: AUG-CC-PVTZ
    Blend: AUG-CC-PVTZ
  Basis Set: (AUG-CC-PVTZ AUX)
    Blend: AUG-CC-PVTZ-JKFIT
	 Reference Energy          =    -363.0641495510979553 [Eh]
	 Singles Energy            =      -0.0000000000000000 [Eh]
	 Same-Spin Energy          =      -0.3785858915407064 [Eh]
	 Opposite-Spin Energy      =      -1.2487423252490086 [Eh]
	 Correlation Energy        =      -1.6273282167897150 [Eh]
	 Total Energy              =    -364.6914777678876476 [Eh]

	 ================> DF-SCS-MP2 Energies <==================
	-----------------------------------------------------------
	 SCS Same-Spin Scale       =       0.3333333333333333 [-]
	 SCS Opposite-Spin Scale   =       1.2000000000000000 [-]
	 SCS Same-Spin Energy      =      -0.1261952971802355 [Eh]
	 SCS Opposite-Spin Energy  =      -1.4984907902988103 [Eh]
	 SCS Correlation Energy    =      -1.6246860874790459 [Eh]
	 SCS Total Energy          =    -364.6888356385770180 [Eh]
	-----------------------------------------------------------

  Dipole Moment: [D]
     X:     4.1268      Y:    -1.0458      Z:     0.9108     Total:     4.3536

*** Psi4 exiting successfully. Buy a developer a beer!
