                               Psi4 1.3.2 release

  ==> Input File <==

--------------------------------------------------------------------------
#psi4
#
memory 32 gb

molecule  {
0 1
  O       -2.5416370     0.0659770    -0.3927070
  N       -0.7122740    -1.2241950    -0.0249760
  C        1.8380290     0.7314390    -0.0343340
  C        1.7187040    -0.7521010    -0.3806110
  C        0.5628391     1.5238774    -0.2941467
  C        0.6466580    -1.4925250     0.4187290
  C       -0.6257670     1.1444980     0.6024810
  C       -1.3868420    -0.0349600     0.0307530
  H        2.6566510     1.1652070    -0.6217190
  H        2.1344690     0.8237010     1.0199600
  H        1.5025340    -0.8781880    -1.4483810
  H        2.6863370    -1.2343500    -0.1898600
  H        0.2863390     1.5300770    -1.3181450
  H        0.8108260     2.6104720    -0.0371320
  H        0.7923570    -2.5718330     0.3164690
  H        0.7525260    -1.2638240     1.4882170
  H       -1.3561390     1.9546950     0.6612310
  H       -0.2921570     0.9237120     1.6255030
  H       -1.2491170    -1.9758090    -0.4428220
units angstrom
no_reorient  #important for SAPT in psi4, default
symmetry c1  #important for SAPT in psi4, default
}

set PROPERTIES_ORIGIN ["COM"]
properties('MP2/aug-cc-pvtz', properties = ['dipole'])
--------------------------------------------------------------------------

    Molecular point group: c1
  Charge       = 0
  Multiplicity = 1
  Basis Set: AUG-CC-PVTZ
    Blend: AUG-CC-PVTZ
  Basis Set: (AUG-CC-PVTZ AUX)
    Blend: AUG-CC-PVTZ-JKFIT

    Orbital Energies [Eh]
    ---------------------

    Doubly Occupied:

       1A    -20.508534     2A    -15.578441     3A    -11.342110
       4A    -11.277267     5A    -11.237379     6A    -11.236514
       7A    -11.233743     8A    -11.233129     9A     -1.363130
      10A     -1.228237    11A     -1.095124    12A     -1.042259
      13A     -0.945730    14A     -0.886987    15A     -0.796741
      16A     -0.764991    17A     -0.687191    18A     -0.677405
      19A     -0.625358    20A     -0.612955    21A     -0.601263
      22A     -0.590395    23A     -0.569278    24A     -0.544056
      25A     -0.520930    26A     -0.518310    27A     -0.487968
      28A     -0.472486    29A     -0.460363    30A     -0.408844
      31A     -0.382636

  @DF-RHF Final Energy:  -363.07222448013420

   => Energetics <=

    Nuclear Repulsion Energy =            394.5152773721721360
    One-Electron Energy =               -1275.3154945414994472
    Two-Electron Energy =                 517.7279926891931154
    Total Energy =                       -363.0722244801341958
  Basis Set: (AUG-CC-PVTZ AUX)
    Blend: AUG-CC-PVTZ-RI
    Molecular point group: c1

    Geometry (in Angstrom), charge = 0, multiplicity = 1:

       Center              X                  Y                   Z               Mass
    ------------   -----------------  -----------------  -----------------  -----------------
         O           -2.463898878876     0.079702317299    -0.379840139809    15.994914619570
         N           -0.634535878876    -1.210469682701    -0.012109139809    14.003074004430
         C            1.915767121124     0.745164317299    -0.021467139809    12.000000000000
         C            1.796442121124    -0.738375682701    -0.367744139809    12.000000000000
         C            0.640577221124     1.537602717299    -0.281279839809    12.000000000000
         C            0.724396121124    -1.478799682701     0.431595860191    12.000000000000
         C           -0.548028878876     1.158223317299     0.615347860191    12.000000000000
         C           -1.309103878876    -0.021234682701     0.043619860191    12.000000000000
         H            2.734389121124     1.178932317299    -0.608852139809     1.007825032230
         H            2.212207121124     0.837426317299     1.032826860191     1.007825032230
         H            1.580272121124    -0.864462682701    -1.435514139809     1.007825032230
         H            2.764075121124    -1.220624682701    -0.176993139809     1.007825032230
         H            0.364077121124     1.543802317299    -1.305278139809     1.007825032230
         H            0.888564121124     2.624197317299    -0.024265139809     1.007825032230
         H            0.870095121124    -2.558107682701     0.329335860191     1.007825032230
         H            0.830264121124    -1.250098682701     1.501083860191     1.007825032230
         H           -1.278400878876     1.968420317299     0.674097860191     1.007825032230
         H           -0.214418878876     0.937437317299     1.638369860191     1.007825032230
         H           -1.171378878876    -1.962083682701    -0.429955139809     1.007825032230

  Basis Set: AUG-CC-PVTZ
    Blend: AUG-CC-PVTZ
  Basis Set: (AUG-CC-PVTZ AUX)
    Blend: AUG-CC-PVTZ-JKFIT
	 Reference Energy          =    -363.0722244801341958 [Eh]
	 Singles Energy            =      -0.0000000000000000 [Eh]
	 Same-Spin Energy          =      -0.3778556675194623 [Eh]
	 Opposite-Spin Energy      =      -1.2478945484191473 [Eh]
	 Correlation Energy        =      -1.6257502159386097 [Eh]
	 Total Energy              =    -364.6979746960728335 [Eh]

	 ================> DF-SCS-MP2 Energies <==================
	-----------------------------------------------------------
	 SCS Same-Spin Scale       =       0.3333333333333333 [-]
	 SCS Opposite-Spin Scale   =       1.2000000000000000 [-]
	 SCS Same-Spin Energy      =      -0.1259518891731541 [Eh]
	 SCS Opposite-Spin Energy  =      -1.4974734581029767 [Eh]
	 SCS Correlation Energy    =      -1.6234253472761309 [Eh]
	 SCS Total Energy          =    -364.6956498274103069 [Eh]
	-----------------------------------------------------------

  Dipole Moment: [D]
     X:     4.0712      Y:    -1.0457      Z:     0.8921     Total:     4.2970

*** Psi4 exiting successfully. Buy a developer a beer!
