                               Psi4 1.3.2 release

  ==> Input File <==

--------------------------------------------------------------------------
#psi4
#
memory 32 gb

molecule  {
0 1
  O       -2.5416370     0.0659770    -0.3927070
  N       -0.7122740    -1.2241950    -0.0249760
  C        1.8380290     0.7314390    -0.0343340
  C        1.7187040    -0.7521010    -0.3806110
  C        0.5860666     1.5392296    -0.2555987
  C        0.6466580    -1.4925250     0.4187290
  C       -0.6257670     1.1444980     0.6024810
  C       -1.3868420    -0.0349600     0.0307530
  H        2.6566510     1.1652070    -0.6217190
  H        2.1344690     0.8237010     1.0199600
  H        1.5025340    -0.8781880    -1.4483810
  H        2.6863370    -1.2343500    -0.1898600
  H        0.2863390     1.5300770    -1.3181450
  H        0.8108260     2.6104720    -0.0371320
  H        0.7923570    -2.5718330     0.3164690
  H        0.7525260    -1.2638240     1.4882170
  H       -1.3561390     1.9546950     0.6612310
  H       -0.2921570     0.9237120     1.6255030
  H       -1.2491170    -1.9758090    -0.4428220
units angstrom
no_reorient  #important for SAPT in psi4, default
symmetry c1  #important for SAPT in psi4, default
}

set PROPERTIES_ORIGIN ["COM"]
properties('MP2/aug-cc-pvtz', properties = ['dipole'])
--------------------------------------------------------------------------

    Molecular point group: c1
  Charge       = 0
  Multiplicity = 1
  Basis Set: AUG-CC-PVTZ
    Blend: AUG-CC-PVTZ
  Basis Set: (AUG-CC-PVTZ AUX)
    Blend: AUG-CC-PVTZ-JKFIT

    Orbital Energies [Eh]
    ---------------------

    Doubly Occupied:

       1A    -20.508990     2A    -15.578602     3A    -11.342796
       4A    -11.277466     5A    -11.237770     6A    -11.236432
       7A    -11.234237     8A    -11.232494     9A     -1.363413
      10A     -1.228373    11A     -1.096771    12A     -1.042094
      13A     -0.947237    14A     -0.887585    15A     -0.794827
      16A     -0.763973    17A     -0.687916    18A     -0.677469
      19A     -0.626876    20A     -0.611901    21A     -0.602459
      22A     -0.591247    23A     -0.570396    24A     -0.545479
      25A     -0.519333    26A     -0.514666    27A     -0.483162
      28A     -0.472129    29A     -0.466615    30A     -0.410166
      31A     -0.382793

  @DF-RHF Final Energy:  -363.07444956507413

   => Energetics <=

    Nuclear Repulsion Energy =            394.4406287977553802
    One-Electron Energy =               -1275.1588259222494344
    Two-Electron Energy =                 517.6437475594199213
    Total Energy =                       -363.0744495650741328
  Basis Set: (AUG-CC-PVTZ AUX)
    Blend: AUG-CC-PVTZ-RI
    Molecular point group: c1

    Geometry (in Angstrom), charge = 0, multiplicity = 1:

       Center              X                  Y                   Z               Mass
    ------------   -----------------  -----------------  -----------------  -----------------
         O           -2.466363682406     0.078073207117    -0.383930689650    15.994914619570
         N           -0.637000682406    -1.212098792883    -0.016199689650    14.003074004430
         C            1.913302317594     0.743535207117    -0.025557689650    12.000000000000
         C            1.793977317594    -0.740004792883    -0.371834689650    12.000000000000
         C            0.661339917594     1.551325807117    -0.246822389650    12.000000000000
         C            0.721931317594    -1.480428792883     0.427505310350    12.000000000000
         C           -0.550493682406     1.156594207117     0.611257310350    12.000000000000
         C           -1.311568682406    -0.022863792883     0.039529310350    12.000000000000
         H            2.731924317594     1.177303207117    -0.612942689650     1.007825032230
         H            2.209742317594     0.835797207117     1.028736310350     1.007825032230
         H            1.577807317594    -0.866091792883    -1.439604689650     1.007825032230
         H            2.761610317594    -1.222253792883    -0.181083689650     1.007825032230
         H            0.361612317594     1.542173207117    -1.309368689650     1.007825032230
         H            0.886099317594     2.622568207117    -0.028355689650     1.007825032230
         H            0.867630317594    -2.559736792883     0.325245310350     1.007825032230
         H            0.827799317594    -1.251727792883     1.496993310350     1.007825032230
         H           -1.280865682406     1.966791207117     0.670007310350     1.007825032230
         H           -0.216883682406     0.935808207117     1.634279310350     1.007825032230
         H           -1.173843682406    -1.963712792883    -0.434045689650     1.007825032230

  Basis Set: AUG-CC-PVTZ
    Blend: AUG-CC-PVTZ
  Basis Set: (AUG-CC-PVTZ AUX)
    Blend: AUG-CC-PVTZ-JKFIT
	 Reference Energy          =    -363.0744495650741328 [Eh]
	 Singles Energy            =      -0.0000000000000000 [Eh]
	 Same-Spin Energy          =      -0.3779230576410450 [Eh]
	 Opposite-Spin Energy      =      -1.2478713951963367 [Eh]
	 Correlation Energy        =      -1.6257944528373818 [Eh]
	 Total Energy              =    -364.7002440179115297 [Eh]

	 ================> DF-SCS-MP2 Energies <==================
	-----------------------------------------------------------
	 SCS Same-Spin Scale       =       0.3333333333333333 [-]
	 SCS Opposite-Spin Scale   =       1.2000000000000000 [-]
	 SCS Same-Spin Energy      =      -0.1259743525470150 [Eh]
	 SCS Opposite-Spin Energy  =      -1.4974456742356039 [Eh]
	 SCS Correlation Energy    =      -1.6234200267826189 [Eh]
	 SCS Total Energy          =    -364.6978695918567723 [Eh]
	-----------------------------------------------------------

  Dipole Moment: [D]
     X:     4.0787      Y:    -1.0424      Z:     0.9011     Total:     4.3051

*** Psi4 exiting successfully. Buy a developer a beer!
