                               Psi4 1.3.2 release

  ==> Input File <==

--------------------------------------------------------------------------
#psi4
#
memory 32 gb

molecule  {
0 1
  O       -2.5416370     0.0659770    -0.3927070
  N       -0.7122740    -1.2241950    -0.0249760
  C        1.8107011     0.6878250    -0.0484646
  C        1.7187040    -0.7521010    -0.3806110
  C        0.5749500     1.5632640    -0.2598230
  C        0.6466580    -1.4925250     0.4187290
  C       -0.6257670     1.1444980     0.6024810
  C       -1.3868420    -0.0349600     0.0307530
  H        2.6566510     1.1652070    -0.6217190
  H        2.1344690     0.8237010     1.0199600
  H        1.5025340    -0.8781880    -1.4483810
  H        2.6863370    -1.2343500    -0.1898600
  H        0.2863390     1.5300770    -1.3181450
  H        0.8108260     2.6104720    -0.0371320
  H        0.7923570    -2.5718330     0.3164690
  H        0.7525260    -1.2638240     1.4882170
  H       -1.3561390     1.9546950     0.6612310
  H       -0.2921570     0.9237120     1.6255030
  H       -1.2491170    -1.9758090    -0.4428220
units angstrom
no_reorient  #important for SAPT in psi4, default
symmetry c1  #important for SAPT in psi4, default
}

set PROPERTIES_ORIGIN ["COM"]
properties('MP2/aug-cc-pvtz', properties = ['dipole'])
--------------------------------------------------------------------------

    Molecular point group: c1
  Charge       = 0
  Multiplicity = 1
  Basis Set: AUG-CC-PVTZ
    Blend: AUG-CC-PVTZ
  Basis Set: (AUG-CC-PVTZ AUX)
    Blend: AUG-CC-PVTZ-JKFIT

    Orbital Energies [Eh]
    ---------------------

    Doubly Occupied:

       1A    -20.509172     2A    -15.579055     3A    -11.343194
       4A    -11.277435     5A    -11.237371     6A    -11.235803
       7A    -11.235574     8A    -11.233103     9A     -1.363603
      10A     -1.228995    11A     -1.098269    12A     -1.045329
      13A     -0.943825    14A     -0.891877    15A     -0.791856
      16A     -0.764380    17A     -0.689534    18A     -0.676390
      19A     -0.627261    20A     -0.614509    21A     -0.602591
      22A     -0.593115    23A     -0.568406    24A     -0.545796
      25A     -0.518136    26A     -0.515796    27A     -0.483863
      28A     -0.472850    29A     -0.462975    30A     -0.410382
      31A     -0.382798

  @DF-RHF Final Energy:  -363.07181774633762

   => Energetics <=

    Nuclear Repulsion Energy =            394.8250383341726319
    One-Electron Energy =               -1275.9072259821414264
    Two-Electron Energy =                 518.0103699016311793
    Total Energy =                       -363.0718177463376151
  Basis Set: (AUG-CC-PVTZ AUX)
    Blend: AUG-CC-PVTZ-RI
    Molecular point group: c1

    Geometry (in Angstrom), charge = 0, multiplicity = 1:

       Center              X                  Y                   Z               Mass
    ------------   -----------------  -----------------  -----------------  -----------------
         O           -2.462284115544     0.080150911011    -0.381982945713    15.994914619570
         N           -0.632921115544    -1.210021088989    -0.014251945713    14.003074004430
         C            1.890053984456     0.701998911011    -0.037740545713    12.000000000000
         C            1.798056884456    -0.737927088989    -0.369886945713    12.000000000000
         C            0.654302884456     1.577437911011    -0.249098945713    12.000000000000
         C            0.726010884456    -1.478351088989     0.429453054287    12.000000000000
         C           -0.546414115544     1.158671911011     0.613205054287    12.000000000000
         C           -1.307489115544    -0.020786088989     0.041477054287    12.000000000000
         H            2.736003884456     1.179380911011    -0.610994945713     1.007825032230
         H            2.213821884456     0.837874911011     1.030684054287     1.007825032230
         H            1.581886884456    -0.864014088989    -1.437656945713     1.007825032230
         H            2.765689884456    -1.220176088989    -0.179135945713     1.007825032230
         H            0.365691884456     1.544250911011    -1.307420945713     1.007825032230
         H            0.890178884456     2.624645911011    -0.026407945713     1.007825032230
         H            0.871709884456    -2.557659088989     0.327193054287     1.007825032230
         H            0.831878884456    -1.249650088989     1.498941054287     1.007825032230
         H           -1.276786115544     1.968868911011     0.671955054287     1.007825032230
         H           -0.212804115544     0.937885911011     1.636227054287     1.007825032230
         H           -1.169764115544    -1.961635088989    -0.432097945713     1.007825032230

  Basis Set: AUG-CC-PVTZ
    Blend: AUG-CC-PVTZ
  Basis Set: (AUG-CC-PVTZ AUX)
    Blend: AUG-CC-PVTZ-JKFIT
	 Reference Energy          =    -363.0718177463376151 [Eh]
	 Singles Energy            =      -0.0000000000000000 [Eh]
	 Same-Spin Energy          =      -0.3781787652081248 [Eh]
	 Opposite-Spin Energy      =      -1.2482243870223821 [Eh]
	 Correlation Energy        =      -1.6264031522305069 [Eh]
	 Total Energy              =    -364.6982208985681382 [Eh]

	 ================> DF-SCS-MP2 Energies <==================
	-----------------------------------------------------------
	 SCS Same-Spin Scale       =       0.3333333333333333 [-]
	 SCS Opposite-Spin Scale   =       1.2000000000000000 [-]
	 SCS Same-Spin Energy      =      -0.1260595884027083 [Eh]
	 SCS Opposite-Spin Energy  =      -1.4978692644268585 [Eh]
	 SCS Correlation Energy    =      -1.6239288528295668 [Eh]
	 SCS Total Energy          =    -364.6957465991671938 [Eh]
	-----------------------------------------------------------

  Dipole Moment: [D]
     X:     4.0572      Y:    -1.0552      Z:     0.8815     Total:     4.2838

*** Psi4 exiting successfully. Buy a developer a beer!
