                               Psi4 1.3.2 release

  ==> Input File <==

--------------------------------------------------------------------------
#psi4
#
memory 32 gb

molecule  {
0 1
  O       -2.5416370     0.0659770    -0.3927070
  N       -0.7122740    -1.2241950    -0.0249760
  C        1.8380290     0.7314390    -0.0343340
  C        1.7187040    -0.7521010    -0.3806110
  C        0.5968141     1.5150749    -0.2511130
  C        0.6466580    -1.4925250     0.4187290
  C       -0.6257670     1.1444980     0.6024810
  C       -1.3868420    -0.0349600     0.0307530
  H        2.6566510     1.1652070    -0.6217190
  H        2.1344690     0.8237010     1.0199600
  H        1.5025340    -0.8781880    -1.4483810
  H        2.6863370    -1.2343500    -0.1898600
  H        0.2863390     1.5300770    -1.3181450
  H        0.8108260     2.6104720    -0.0371320
  H        0.7923570    -2.5718330     0.3164690
  H        0.7525260    -1.2638240     1.4882170
  H       -1.3561390     1.9546950     0.6612310
  H       -0.2921570     0.9237120     1.6255030
  H       -1.2491170    -1.9758090    -0.4428220
units angstrom
no_reorient  #important for SAPT in psi4, default
symmetry c1  #important for SAPT in psi4, default
}

set PROPERTIES_ORIGIN ["COM"]
properties('MP2/aug-cc-pvtz', properties = ['dipole'])
--------------------------------------------------------------------------

    Molecular point group: c1
  Charge       = 0
  Multiplicity = 1
  Basis Set: AUG-CC-PVTZ
    Blend: AUG-CC-PVTZ
  Basis Set: (AUG-CC-PVTZ AUX)
    Blend: AUG-CC-PVTZ-JKFIT

    Orbital Energies [Eh]
    ---------------------

    Doubly Occupied:

       1A    -20.508934     2A    -15.578549     3A    -11.342577
       4A    -11.277609     5A    -11.239123     6A    -11.236937
       7A    -11.234132     8A    -11.231901     9A     -1.363387
      10A     -1.228508    11A     -1.099795    12A     -1.042031
      13A     -0.949154    14A     -0.886705    15A     -0.794142
      16A     -0.763942    17A     -0.687991    18A     -0.678157
      19A     -0.627796    20A     -0.612193    21A     -0.603197
      22A     -0.590541    23A     -0.570778    24A     -0.545964
      25A     -0.519366    26A     -0.513676    27A     -0.486926
      28A     -0.471483    29A     -0.463078    30A     -0.409628
      31A     -0.382830

  @DF-RHF Final Energy:  -363.07191435698985

   => Energetics <=

    Nuclear Repulsion Energy =            394.8006937727269019
    One-Electron Energy =               -1275.8631543416115619
    Two-Electron Energy =                 517.9905462118948662
    Total Energy =                       -363.0719143569898506
  Basis Set: (AUG-CC-PVTZ AUX)
    Blend: AUG-CC-PVTZ-RI
    Molecular point group: c1

    Geometry (in Angstrom), charge = 0, multiplicity = 1:

       Center              X                  Y                   Z               Mass
    ------------   -----------------  -----------------  -----------------  -----------------
         O           -2.467504161404     0.080636401168    -0.384406693060    15.994914619570
         N           -0.638141161404    -1.209535598832    -0.016675693060    14.003074004430
         C            1.912161838596     0.746098401168    -0.026033693060    12.000000000000
         C            1.792836838596    -0.737441598832    -0.372310693060    12.000000000000
         C            0.670946938596     1.529734301168    -0.242812693060    12.000000000000
         C            0.720790838596    -1.477865598832     0.427029306940    12.000000000000
         C           -0.551634161404     1.159157401168     0.610781306940    12.000000000000
         C           -1.312709161404    -0.020300598832     0.039053306940    12.000000000000
         H            2.730783838596     1.179866401168    -0.613418693060     1.007825032230
         H            2.208601838596     0.838360401168     1.028260306940     1.007825032230
         H            1.576666838596    -0.863528598832    -1.440080693060     1.007825032230
         H            2.760469838596    -1.219690598832    -0.181559693060     1.007825032230
         H            0.360471838596     1.544736401168    -1.309844693060     1.007825032230
         H            0.884958838596     2.625131401168    -0.028831693060     1.007825032230
         H            0.866489838596    -2.557173598832     0.324769306940     1.007825032230
         H            0.826658838596    -1.249164598832     1.496517306940     1.007825032230
         H           -1.282006161404     1.969354401168     0.669531306940     1.007825032230
         H           -0.218024161404     0.938371401168     1.633803306940     1.007825032230
         H           -1.174984161404    -1.961149598832    -0.434521693060     1.007825032230

  Basis Set: AUG-CC-PVTZ
    Blend: AUG-CC-PVTZ
  Basis Set: (AUG-CC-PVTZ AUX)
    Blend: AUG-CC-PVTZ-JKFIT
	 Reference Energy          =    -363.0719143569898506 [Eh]
	 Singles Energy            =      -0.0000000000000000 [Eh]
	 Same-Spin Energy          =      -0.3781721715850199 [Eh]
	 Opposite-Spin Energy      =      -1.2481810414176184 [Eh]
	 Correlation Energy        =      -1.6263532130026384 [Eh]
	 Total Energy              =    -364.6982675699924812 [Eh]

	 ================> DF-SCS-MP2 Energies <==================
	-----------------------------------------------------------
	 SCS Same-Spin Scale       =       0.3333333333333333 [-]
	 SCS Opposite-Spin Scale   =       1.2000000000000000 [-]
	 SCS Same-Spin Energy      =      -0.1260573905283399 [Eh]
	 SCS Opposite-Spin Energy  =      -1.4978172497011422 [Eh]
	 SCS Correlation Energy    =      -1.6238746402294821 [Eh]
	 SCS Total Energy          =    -364.6957889972193243 [Eh]
	-----------------------------------------------------------

  Dipole Moment: [D]
     X:     4.0845      Y:    -1.0505      Z:     0.9067     Total:     4.3138

*** Psi4 exiting successfully. Buy a developer a beer!
