                               Psi4 1.4a3.dev225

  ==> Input File <==

--------------------------------------------------------------------------
#psi4
#
memory 32 gb

molecule  {
0 1
  O       -2.5416370     0.0659770    -0.3927070
  N       -0.7122740    -1.2241950    -0.0249760
  C        1.8380290     0.7314390    -0.0343340
  C        1.7187040    -0.7521010    -0.3806110
  C        0.5749500     1.5632640    -0.2598230
  C        0.6466580    -1.4925250     0.4187290
  C       -0.6257670     1.1444980     0.6024810
  C       -1.3769825    -0.0523418     0.0299385
  H        2.6566510     1.1652070    -0.6217190
  H        2.1344690     0.8237010     1.0199600
  H        1.5025340    -0.8781880    -1.4483810
  H        2.6863370    -1.2343500    -0.1898600
  H        0.2863390     1.5300770    -1.3181450
  H        0.8108260     2.6104720    -0.0371320
  H        0.7923570    -2.5718330     0.3164690
  H        0.7525260    -1.2638240     1.4882170
  H       -1.3561390     1.9546950     0.6612310
  H       -0.2921570     0.9237120     1.6255030
  H       -1.2491170    -1.9758090    -0.4428220
units angstrom
no_reorient  #important for SAPT in psi4, default
symmetry c1  #important for SAPT in psi4, default
}

set PROPERTIES_ORIGIN ["COM"]
properties('MP2/aug-cc-pvtz', properties = ['dipole'])
--------------------------------------------------------------------------

    Molecular point group: c1
  Charge       = 0
  Multiplicity = 1
  Basis Set: AUG-CC-PVTZ
    Blend: AUG-CC-PVTZ
  Basis Set: (AUG-CC-PVTZ AUX)
    Blend: AUG-CC-PVTZ-JKFIT

    Orbital Energies [Eh]
    ---------------------

    Doubly Occupied:

       1A    -20.505213     2A    -15.582340     3A    -11.341905
       4A    -11.279522     5A    -11.236209     6A    -11.235695
       7A    -11.235609     8A    -11.233426     9A     -1.357289
      10A     -1.233298    11A     -1.094687    12A     -1.042314
      13A     -0.946507    14A     -0.889981    15A     -0.796344
      16A     -0.767494    17A     -0.690374    18A     -0.674838
      19A     -0.627479    20A     -0.612439    21A     -0.602302
      22A     -0.589390    23A     -0.570905    24A     -0.542794
      25A     -0.520098    26A     -0.515065    27A     -0.481716
      28A     -0.470372    29A     -0.469452    30A     -0.407532
      31A     -0.383805

  @DF-RHF Final Energy:  -363.07472697644431

   => Energetics <=

    Nuclear Repulsion Energy =            394.1739271628654251
    One-Electron Energy =               -1274.6245174026753375
    Two-Electron Energy =                 517.3758632633656589
    Total Energy =                       -363.0747269764442535
  Basis Set: (AUG-CC-PVTZ AUX)
    Blend: AUG-CC-PVTZ-RI
    Molecular point group: c1

    Geometry (in Angstrom), charge = 0, multiplicity = 1:

       Center              X                  Y                   Z               Mass
    ------------   -----------------  -----------------  -----------------  -----------------
         O           -2.466230284299     0.077367261494    -0.383395993621    15.994914619570
         N           -0.636867284299    -1.212804738506    -0.015664993621    14.003074004430
         C            1.913435715701     0.742829261494    -0.025022993621    12.000000000000
         C            1.794110715701    -0.740710738506    -0.371299993621    12.000000000000
         C            0.650356715701     1.574654261494    -0.250511993621    12.000000000000
         C            0.722064715701    -1.481134738506     0.428040006379    12.000000000000
         C           -0.550360284299     1.155888261494     0.611792006379    12.000000000000
         C           -1.301575784299    -0.040951538506     0.039249506379    12.000000000000
         H            2.732057715701     1.176597261494    -0.612407993621     1.007825032230
         H            2.209875715701     0.835091261494     1.029271006379     1.007825032230
         H            1.577940715701    -0.866797738506    -1.439069993621     1.007825032230
         H            2.761743715701    -1.222959738506    -0.180548993621     1.007825032230
         H            0.361745715701     1.541467261494    -1.308833993621     1.007825032230
         H            0.886232715701     2.621862261494    -0.027820993621     1.007825032230
         H            0.867763715701    -2.560442738506     0.325780006379     1.007825032230
         H            0.827932715701    -1.252433738506     1.497528006379     1.007825032230
         H           -1.280732284299     1.966085261494     0.670542006379     1.007825032230
         H           -0.216750284299     0.935102261494     1.634814006379     1.007825032230
         H           -1.173710284299    -1.964418738506    -0.433510993621     1.007825032230

  Basis Set: AUG-CC-PVTZ
    Blend: AUG-CC-PVTZ
  Basis Set: (AUG-CC-PVTZ AUX)
    Blend: AUG-CC-PVTZ-JKFIT
	 Reference Energy          =    -363.0747269764443104 [Eh]
	 Singles Energy            =      -0.0000000000000000 [Eh]
	 Same-Spin Energy          =      -0.3778223728509907 [Eh]
	 Opposite-Spin Energy      =      -1.2478516214517825 [Eh]
	 Correlation Energy        =      -1.6256739943027734 [Eh]
	 Total Energy              =    -364.7004009707470686 [Eh]

	 ================> DF-SCS-MP2 Energies <==================
	-----------------------------------------------------------
	 SCS Same-Spin Scale       =       0.3333333333333333 [-]
	 SCS Opposite-Spin Scale   =       1.2000000000000000 [-]
	 SCS Same-Spin Energy      =      -0.1259407909503302 [Eh]
	 SCS Opposite-Spin Energy  =      -1.4974219457421389 [Eh]
	 SCS Correlation Energy    =      -1.6233627366924692 [Eh]
	 SCS Total Energy          =    -364.6980897131367669 [Eh]
	-----------------------------------------------------------

  Dipole Moment: [D]
     X:     4.1971      Y:    -1.1589      Z:     0.9089     Total:     4.4480

*** Psi4 exiting successfully. Buy a developer a beer!
