                               Psi4 1.4a3.dev225

  ==> Input File <==

--------------------------------------------------------------------------
#psi4
#
memory 32 gb

molecule  {
0 1
  O       -2.5416370     0.0659770    -0.3927070
  N       -0.7122740    -1.2241950    -0.0249760
  C        1.8380290     0.7314390    -0.0343340
  C        1.7187040    -0.7521010    -0.3806110
  C        0.5584294     1.5741439    -0.2627723
  C        0.6466580    -1.4925250     0.4187290
  C       -0.6257670     1.1444980     0.6024810
  C       -1.3868420    -0.0349600     0.0307530
  H        2.6566510     1.1652070    -0.6217190
  H        2.1344690     0.8237010     1.0199600
  H        1.5025340    -0.8781880    -1.4483810
  H        2.6863370    -1.2343500    -0.1898600
  H        0.2863390     1.5300770    -1.3181450
  H        0.8108260     2.6104720    -0.0371320
  H        0.7923570    -2.5718330     0.3164690
  H        0.7525260    -1.2638240     1.4882170
  H       -1.3561390     1.9546950     0.6612310
  H       -0.2921570     0.9237120     1.6255030
  H       -1.2491170    -1.9758090    -0.4428220
units angstrom
no_reorient  #important for SAPT in psi4, default
symmetry c1  #important for SAPT in psi4, default
}

set PROPERTIES_ORIGIN ["COM"]
properties('MP2/aug-cc-pvtz', properties = ['dipole'])
--------------------------------------------------------------------------

    Molecular point group: c1
  Charge       = 0
  Multiplicity = 1
  Basis Set: AUG-CC-PVTZ
    Blend: AUG-CC-PVTZ
  Basis Set: (AUG-CC-PVTZ AUX)
    Blend: AUG-CC-PVTZ-JKFIT

    Orbital Energies [Eh]
    ---------------------

    Doubly Occupied:

       1A    -20.509168     2A    -15.578791     3A    -11.343213
       4A    -11.277255     5A    -11.236128     6A    -11.235518
       7A    -11.234310     8A    -11.233521     9A     -1.363570
      10A     -1.228293    11A     -1.092339    12A     -1.042972
      13A     -0.943992    14A     -0.888817    15A     -0.795850
      16A     -0.764299    17A     -0.687867    18A     -0.676830
      19A     -0.625752    20A     -0.611889    21A     -0.601109
      22A     -0.592304    23A     -0.569826    24A     -0.545925
      25A     -0.519477    26A     -0.516687    27A     -0.481617
      28A     -0.471653    29A     -0.466381    30A     -0.410766
      31A     -0.382790

  @DF-RHF Final Energy:  -363.07524707348671

   => Energetics <=

    Nuclear Repulsion Energy =            393.9572239641606757
    One-Electron Energy =               -1274.2071220763091333
    Two-Electron Energy =                 517.1746510386617501
    Total Energy =                       -363.0752470734867074
  Basis Set: (AUG-CC-PVTZ AUX)
    Blend: AUG-CC-PVTZ-RI
    Molecular point group: c1

    Geometry (in Angstrom), charge = 0, multiplicity = 1:

       Center              X                  Y                   Z               Mass
    ------------   -----------------  -----------------  -----------------  -----------------
         O           -2.463430940264     0.074368250068    -0.383169457723    15.994914619570
         N           -0.634067940264    -1.215803749932    -0.015438457723    14.003074004430
         C            1.916235059736     0.739830250068    -0.024796457723    12.000000000000
         C            1.796910059736    -0.743709749932    -0.371073457723    12.000000000000
         C            0.636635459736     1.582535150068    -0.253234757723    12.000000000000
         C            0.724864059736    -1.484133749932     0.428266542277    12.000000000000
         C           -0.547560940264     1.152889250068     0.612018542277    12.000000000000
         C           -1.308635940264    -0.026568749932     0.040290542277    12.000000000000
         H            2.734857059736     1.173598250068    -0.612181457723     1.007825032230
         H            2.212675059736     0.832092250068     1.029497542277     1.007825032230
         H            1.580740059736    -0.869796749932    -1.438843457723     1.007825032230
         H            2.764543059736    -1.225958749932    -0.180322457723     1.007825032230
         H            0.364545059736     1.538468250068    -1.308607457723     1.007825032230
         H            0.889032059736     2.618863250068    -0.027594457723     1.007825032230
         H            0.870563059736    -2.563441749932     0.326006542277     1.007825032230
         H            0.830732059736    -1.255432749932     1.497754542277     1.007825032230
         H           -1.277932940264     1.963086250068     0.670768542277     1.007825032230
         H           -0.213950940264     0.932103250068     1.635040542277     1.007825032230
         H           -1.170910940264    -1.967417749932    -0.433284457723     1.007825032230

  Basis Set: AUG-CC-PVTZ
    Blend: AUG-CC-PVTZ
  Basis Set: (AUG-CC-PVTZ AUX)
    Blend: AUG-CC-PVTZ-JKFIT
	 Reference Energy          =    -363.0752470734867074 [Eh]
	 Singles Energy            =      -0.0000000000000000 [Eh]
	 Same-Spin Energy          =      -0.3776555418130819 [Eh]
	 Opposite-Spin Energy      =      -1.2476256163229635 [Eh]
	 Correlation Energy        =      -1.6252811581360453 [Eh]
	 Total Energy              =    -364.7005282316227408 [Eh]

	 ================> DF-SCS-MP2 Energies <==================
	-----------------------------------------------------------
	 SCS Same-Spin Scale       =       0.3333333333333333 [-]
	 SCS Opposite-Spin Scale   =       1.2000000000000000 [-]
	 SCS Same-Spin Energy      =      -0.1258851806043606 [Eh]
	 SCS Opposite-Spin Energy  =      -1.4971507395875563 [Eh]
	 SCS Correlation Energy    =      -1.6230359201919169 [Eh]
	 SCS Total Energy          =    -364.6982829936786175 [Eh]
	-----------------------------------------------------------

  Dipole Moment: [D]
     X:     4.0622      Y:    -1.0360      Z:     0.8939     Total:     4.2865

*** Psi4 exiting successfully. Buy a developer a beer!
