                               Psi4 1.3.2 release

  ==> Input File <==

--------------------------------------------------------------------------
#psi4
#
memory 32 gb

molecule  {
0 1
  O       -2.5416370     0.0659770    -0.3927070
  N       -0.7122740    -1.2241950    -0.0249760
  C        1.8380290     0.7314390    -0.0343340
  C        1.7187040    -0.7521010    -0.3806110
  C        0.5749500     1.5632640    -0.2598230
  C        0.6466580    -1.4925250     0.4187290
  C       -0.6257670     1.1444980     0.6024810
  C       -1.3868420    -0.0349600     0.0307530
  H        2.6566510     1.1652070    -0.6217190
  H        2.1344690     0.8237010     1.0199600
  H        1.4860795    -0.8687041    -1.4459981
  H        2.6863370    -1.2343500    -0.1898600
  H        0.2863390     1.5300770    -1.3181450
  H        0.8108260     2.6104720    -0.0371320
  H        0.7923570    -2.5718330     0.3164690
  H        0.7525260    -1.2638240     1.4882170
  H       -1.3561390     1.9546950     0.6612310
  H       -0.2921570     0.9237120     1.6255030
  H       -1.2491170    -1.9758090    -0.4428220
units angstrom
no_reorient  #important for SAPT in psi4, default
symmetry c1  #important for SAPT in psi4, default
}

set PROPERTIES_ORIGIN ["COM"]
properties('MP2/aug-cc-pvtz', properties = ['dipole'])
--------------------------------------------------------------------------

    Molecular point group: c1
  Charge       = 0
  Multiplicity = 1
  Basis Set: AUG-CC-PVTZ
    Blend: AUG-CC-PVTZ
  Basis Set: (AUG-CC-PVTZ AUX)
    Blend: AUG-CC-PVTZ-JKFIT

    Orbital Energies [Eh]
    ---------------------

    Doubly Occupied:

       1A    -20.509109     2A    -15.578728     3A    -11.343081
       4A    -11.277231     5A    -11.236699     6A    -11.235990
       7A    -11.234393     8A    -11.232947     9A     -1.363504
      10A     -1.228332    11A     -1.094049    12A     -1.042237
      13A     -0.945411    14A     -0.888474    15A     -0.795269
      16A     -0.764027    17A     -0.688254    18A     -0.676869
      19A     -0.625940    20A     -0.611983    21A     -0.602096
      22A     -0.591962    23A     -0.570162    24A     -0.545071
      25A     -0.519491    26A     -0.515778    27A     -0.481262
      28A     -0.470435    29A     -0.469443    30A     -0.410634
      31A     -0.382788

  @DF-RHF Final Energy:  -363.07542579992548

   => Energetics <=

    Nuclear Repulsion Energy =            394.1229161588055376
    One-Electron Energy =               -1274.5333917707037017
    Two-Electron Energy =                 517.3350498119726808
    Total Energy =                       -363.0754257999254833
  Basis Set: (AUG-CC-PVTZ AUX)
    Blend: AUG-CC-PVTZ-RI
    Molecular point group: c1

    Geometry (in Angstrom), charge = 0, multiplicity = 1:

       Center              X                  Y                   Z               Mass
    ------------   -----------------  -----------------  -----------------  -----------------
         O           -2.465037390692     0.075438256609    -0.383503661721    15.994914619570
         N           -0.635674390692    -1.214733743391    -0.015772661721    14.003074004430
         C            1.914628609308     0.740900256609    -0.025130661721    12.000000000000
         C            1.795303609308    -0.742639743391    -0.371407661721    12.000000000000
         C            0.651549609308     1.572725256609    -0.250619661721    12.000000000000
         C            0.723257609308    -1.483063743391     0.427932338279    12.000000000000
         C           -0.549167390692     1.153959256609     0.611684338279    12.000000000000
         C           -1.310242390692    -0.025498743391     0.039956338279    12.000000000000
         H            2.733250609308     1.174668256609    -0.612515661721     1.007825032230
         H            2.211068609308     0.833162256609     1.029163338279     1.007825032230
         H            1.562679109308    -0.859242843391    -1.436794761721     1.007825032230
         H            2.762936609308    -1.224888743391    -0.180656661721     1.007825032230
         H            0.362938609308     1.539538256609    -1.308941661721     1.007825032230
         H            0.887425609308     2.619933256609    -0.027928661721     1.007825032230
         H            0.868956609308    -2.562371743391     0.325672338279     1.007825032230
         H            0.829125609308    -1.254362743391     1.497420338279     1.007825032230
         H           -1.279539390692     1.964156256609     0.670434338279     1.007825032230
         H           -0.215557390692     0.933173256609     1.634706338279     1.007825032230
         H           -1.172517390692    -1.966347743391    -0.433618661721     1.007825032230

  Basis Set: AUG-CC-PVTZ
    Blend: AUG-CC-PVTZ
  Basis Set: (AUG-CC-PVTZ AUX)
    Blend: AUG-CC-PVTZ-JKFIT
	 Reference Energy          =    -363.0754257999254833 [Eh]
	 Singles Energy            =      -0.0000000000000000 [Eh]
	 Same-Spin Energy          =      -0.3777434663155842 [Eh]
	 Opposite-Spin Energy      =      -1.2476983903961929 [Eh]
	 Correlation Energy        =      -1.6254418567117770 [Eh]
	 Total Energy              =    -364.7008676566372856 [Eh]

	 ================> DF-SCS-MP2 Energies <==================
	-----------------------------------------------------------
	 SCS Same-Spin Scale       =       0.3333333333333333 [-]
	 SCS Opposite-Spin Scale   =       1.2000000000000000 [-]
	 SCS Same-Spin Energy      =      -0.1259144887718614 [Eh]
	 SCS Opposite-Spin Energy  =      -1.4972380684754314 [Eh]
	 SCS Correlation Energy    =      -1.6231525572472929 [Eh]
	 SCS Total Energy          =    -364.6985783571727779 [Eh]
	-----------------------------------------------------------

  Dipole Moment: [D]
     X:     4.0675      Y:    -1.0334      Z:     0.8988     Total:     4.2919

*** Psi4 exiting successfully. Buy a developer a beer!
