                               Psi4 1.3.2 release

  ==> Input File <==

--------------------------------------------------------------------------
#psi4
#
memory 32 gb

molecule  {
0 1
  O       -2.5416370     0.0659770    -0.3927070
  N       -0.7122740    -1.2241950    -0.0249760
  C        1.8380290     0.7314390    -0.0343340
  C        1.7187040    -0.7521010    -0.3806110
  C        0.5749500     1.5632640    -0.2598230
  C        0.6466580    -1.4925250     0.4187290
  C       -0.6257670     1.1444980     0.6024810
  C       -1.3868420    -0.0349600     0.0307530
  H        2.6566510     1.1652070    -0.6217190
  H        2.1344690     0.8237010     1.0199600
  H        1.5025340    -0.8781880    -1.4483810
  H        2.6863370    -1.2343500    -0.1898600
  H        0.2863390     1.5300770    -1.3181450
  H        0.8108260     2.6104720    -0.0371320
  H        0.7923570    -2.5718330     0.3164690
  H        0.7525260    -1.2638240     1.4882170
  H       -1.3399491     1.9530143     0.7744090
  H       -0.2921570     0.9237120     1.6255030
  H       -1.2491170    -1.9758090    -0.4428220
units angstrom
no_reorient  #important for SAPT in psi4, default
symmetry c1  #important for SAPT in psi4, default
}

set PROPERTIES_ORIGIN ["COM"]
properties('MP2/aug-cc-pvtz', properties = ['dipole'])
--------------------------------------------------------------------------

    Molecular point group: c1
  Charge       = 0
  Multiplicity = 1
  Basis Set: AUG-CC-PVTZ
    Blend: AUG-CC-PVTZ
  Basis Set: (AUG-CC-PVTZ AUX)
    Blend: AUG-CC-PVTZ-JKFIT

    Orbital Energies [Eh]
    ---------------------

    Doubly Occupied:

       1A    -20.508834     2A    -15.578950     3A    -11.343562
       4A    -11.277181     5A    -11.237147     6A    -11.236052
       7A    -11.234406     8A    -11.233346     9A     -1.363204
      10A     -1.228332    11A     -1.093886    12A     -1.041932
      13A     -0.945476    14A     -0.888676    15A     -0.795545
      16A     -0.766160    17A     -0.688110    18A     -0.675881
      19A     -0.627287    20A     -0.611351    21A     -0.599588
      22A     -0.592722    23A     -0.570371    24A     -0.545506
      25A     -0.518198    26A     -0.514042    27A     -0.480966
      28A     -0.473273    29A     -0.468134    30A     -0.410263
      31A     -0.382731

  @DF-RHF Final Energy:  -363.07423090658688

   => Energetics <=

    Nuclear Repulsion Energy =            393.9908897629948683
    One-Electron Energy =               -1274.2680163952411476
    Two-Electron Energy =                 517.2028957256594595
    Total Energy =                       -363.0742309065868767
  Basis Set: (AUG-CC-PVTZ AUX)
    Blend: AUG-CC-PVTZ-RI
    Molecular point group: c1

    Geometry (in Angstrom), charge = 0, multiplicity = 1:

       Center              X                  Y                   Z               Mass
    ------------   -----------------  -----------------  -----------------  -----------------
         O           -2.465328323316     0.075537757485    -0.384491087104    15.994914619570
         N           -0.635965323316    -1.214634242515    -0.016760087104    14.003074004430
         C            1.914337676684     0.740999757485    -0.026118087104    12.000000000000
         C            1.795012676684    -0.742540242515    -0.372395087104    12.000000000000
         C            0.651258676684     1.572824757485    -0.251607087104    12.000000000000
         C            0.722966676684    -1.482964242515     0.426944912896    12.000000000000
         C           -0.549458323316     1.154058757485     0.610696912896    12.000000000000
         C           -1.310533323316    -0.025399242515     0.038968912896    12.000000000000
         H            2.732959676684     1.174767757485    -0.613503087104     1.007825032230
         H            2.210777676684     0.833261757485     1.028175912896     1.007825032230
         H            1.578842676684    -0.868627242515    -1.440165087104     1.007825032230
         H            2.762645676684    -1.224789242515    -0.181644087104     1.007825032230
         H            0.362647676684     1.539637757485    -1.309929087104     1.007825032230
         H            0.887134676684     2.620032757485    -0.028916087104     1.007825032230
         H            0.868665676684    -2.562272242515     0.324684912896     1.007825032230
         H            0.828834676684    -1.254263242515     1.496432912896     1.007825032230
         H           -1.263640423316     1.962575057485     0.782624912896     1.007825032230
         H           -0.215848323316     0.933272757485     1.633718912896     1.007825032230
         H           -1.172808323316    -1.966248242515    -0.434606087104     1.007825032230

  Basis Set: AUG-CC-PVTZ
    Blend: AUG-CC-PVTZ
  Basis Set: (AUG-CC-PVTZ AUX)
    Blend: AUG-CC-PVTZ-JKFIT
	 Reference Energy          =    -363.0742309065868767 [Eh]
	 Singles Energy            =      -0.0000000000000000 [Eh]
	 Same-Spin Energy          =      -0.3777403099371084 [Eh]
	 Opposite-Spin Energy      =      -1.2477030971301233 [Eh]
	 Correlation Energy        =      -1.6254434070672317 [Eh]
	 Total Energy              =    -364.6996743136540999 [Eh]

	 ================> DF-SCS-MP2 Energies <==================
	-----------------------------------------------------------
	 SCS Same-Spin Scale       =       0.3333333333333333 [-]
	 SCS Opposite-Spin Scale   =       1.2000000000000000 [-]
	 SCS Same-Spin Energy      =      -0.1259134366457028 [Eh]
	 SCS Opposite-Spin Energy  =      -1.4972437165561479 [Eh]
	 SCS Correlation Energy    =      -1.6231571532018507 [Eh]
	 SCS Total Energy          =    -364.6973880597887501 [Eh]
	-----------------------------------------------------------

  Dipole Moment: [D]
     X:     4.0773      Y:    -1.0281      Z:     0.9385     Total:     4.3084

*** Psi4 exiting successfully. Buy a developer a beer!
