                               Psi4 1.3.2 release

  ==> Input File <==

--------------------------------------------------------------------------
#psi4
#
memory 32 gb

molecule  {
0 1
  O       -2.5416370     0.0659770    -0.3927070
  N       -0.7122740    -1.2241950    -0.0249760
  C        1.8380290     0.7314390    -0.0343340
  C        1.7187040    -0.7521010    -0.3806110
  C        0.5749500     1.5632640    -0.2598230
  C        0.6466580    -1.4925250     0.4187290
  C       -0.7039162     1.1172424     0.6586044
  C       -1.3868420    -0.0349600     0.0307530
  H        2.6566510     1.1652070    -0.6217190
  H        2.1344690     0.8237010     1.0199600
  H        1.5025340    -0.8781880    -1.4483810
  H        2.6863370    -1.2343500    -0.1898600
  H        0.2863390     1.5300770    -1.3181450
  H        0.8108260     2.6104720    -0.0371320
  H        0.7923570    -2.5718330     0.3164690
  H        0.7525260    -1.2638240     1.4882170
  H       -1.3561390     1.9546950     0.6612310
  H       -0.2921570     0.9237120     1.6255030
  H       -1.2491170    -1.9758090    -0.4428220
units angstrom
no_reorient  #important for SAPT in psi4, default
symmetry c1  #important for SAPT in psi4, default
}

set PROPERTIES_ORIGIN ["COM"]
properties('MP2/aug-cc-pvtz', properties = ['dipole'])
--------------------------------------------------------------------------

    Molecular point group: c1
  Charge       = 0
  Multiplicity = 1
  Basis Set: AUG-CC-PVTZ
    Blend: AUG-CC-PVTZ
  Basis Set: (AUG-CC-PVTZ AUX)
    Blend: AUG-CC-PVTZ-JKFIT

    Orbital Energies [Eh]
    ---------------------

    Doubly Occupied:

       1A    -20.506678     2A    -15.578442     3A    -11.341111
       4A    -11.277401     5A    -11.242101     6A    -11.234320
       7A    -11.233546     8A    -11.233351     9A     -1.363425
      10A     -1.227868    11A     -1.087878    12A     -1.039505
      13A     -0.949816    14A     -0.887816    15A     -0.793515
      16A     -0.767890    17A     -0.687914    18A     -0.679717
      19A     -0.623598    20A     -0.610753    21A     -0.604305
      22A     -0.590632    23A     -0.578339    24A     -0.540203
      25A     -0.521304    26A     -0.517510    27A     -0.482461
      28A     -0.474343    29A     -0.454723    30A     -0.410809
      31A     -0.382386

  @DF-RHF Final Energy:  -363.06901339768206

   => Energetics <=

    Nuclear Repulsion Energy =            393.5067101089067592
    One-Electron Energy =               -1273.3041284215451014
    Two-Electron Energy =                 516.7284049149562861
    Total Energy =                       -363.0690133976820562
  Basis Set: (AUG-CC-PVTZ AUX)
    Blend: AUG-CC-PVTZ-RI
    Molecular point group: c1

    Geometry (in Angstrom), charge = 0, multiplicity = 1:

       Center              X                  Y                   Z               Mass
    ------------   -----------------  -----------------  -----------------  -----------------
         O           -2.456891175296     0.078415027164    -0.389438001451    15.994914619570
         N           -0.627528175296    -1.211756972836    -0.021707001451    14.003074004430
         C            1.922774824704     0.743877027164    -0.031065001451    12.000000000000
         C            1.803449824704    -0.739662972836    -0.377342001451    12.000000000000
         C            0.659695824704     1.575702027164    -0.256554001451    12.000000000000
         C            0.731403824704    -1.480086972836     0.421997998549    12.000000000000
         C           -0.619170375296     1.129680427164     0.661873398549    12.000000000000
         C           -1.302096175296    -0.022521972836     0.034021998549    12.000000000000
         H            2.741396824704     1.177645027164    -0.618450001451     1.007825032230
         H            2.219214824704     0.836139027164     1.023228998549     1.007825032230
         H            1.587279824704    -0.865749972836    -1.445112001451     1.007825032230
         H            2.771082824704    -1.221911972836    -0.186591001451     1.007825032230
         H            0.371084824704     1.542515027164    -1.314876001451     1.007825032230
         H            0.895571824704     2.622910027164    -0.033863001451     1.007825032230
         H            0.877102824704    -2.559394972836     0.319737998549     1.007825032230
         H            0.837271824704    -1.251385972836     1.491485998549     1.007825032230
         H           -1.271393175296     1.967133027164     0.664499998549     1.007825032230
         H           -0.207411175296     0.936150027164     1.628771998549     1.007825032230
         H           -1.164371175296    -1.963370972836    -0.439553001451     1.007825032230

  Basis Set: AUG-CC-PVTZ
    Blend: AUG-CC-PVTZ
  Basis Set: (AUG-CC-PVTZ AUX)
    Blend: AUG-CC-PVTZ-JKFIT
	 Reference Energy          =    -363.0690133976820562 [Eh]
	 Singles Energy            =      -0.0000000000000000 [Eh]
	 Same-Spin Energy          =      -0.3775143202550028 [Eh]
	 Opposite-Spin Energy      =      -1.2475974473699605 [Eh]
	 Correlation Energy        =      -1.6251117676249633 [Eh]
	 Total Energy              =    -364.6941251653070140 [Eh]

	 ================> DF-SCS-MP2 Energies <==================
	-----------------------------------------------------------
	 SCS Same-Spin Scale       =       0.3333333333333333 [-]
	 SCS Opposite-Spin Scale   =       1.2000000000000000 [-]
	 SCS Same-Spin Energy      =      -0.1258381067516676 [Eh]
	 SCS Opposite-Spin Energy  =      -1.4971169368439525 [Eh]
	 SCS Correlation Energy    =      -1.6229550435956202 [Eh]
	 SCS Total Energy          =    -364.6919684412776519 [Eh]
	-----------------------------------------------------------

  Dipole Moment: [D]
     X:     4.1269      Y:    -0.9875      Z:     0.9374     Total:     4.3457

*** Psi4 exiting successfully. Buy a developer a beer!
