                               Psi4 1.3.2 release

  ==> Input File <==

--------------------------------------------------------------------------
#psi4
#
memory 32 gb

molecule  {
0 1
  O       -2.5416370     0.0659770    -0.3927070
  N       -0.7122740    -1.2241950    -0.0249760
  C        1.8380290     0.7314390    -0.0343340
  C        1.7187040    -0.7521010    -0.3806110
  C        0.5749500     1.5632640    -0.2598230
  C        0.6466580    -1.4925250     0.4187290
  C       -0.6257670     1.1444980     0.6024810
  C       -1.3868420    -0.0349600     0.0307530
  H        2.6566510     1.1652070    -0.6217190
  H        2.1344690     0.8237010     1.0199600
  H        1.5025340    -0.8781880    -1.4483810
  H        2.6863370    -1.2343500    -0.1898600
  H        0.2863390     1.5300770    -1.3181450
  H        0.8108260     2.6104720    -0.0371320
  H        0.7923570    -2.5718330     0.3164690
  H        0.7525260    -1.2638240     1.4882170
  H       -1.4229991     2.0288624     0.6666091
  H       -0.2921570     0.9237120     1.6255030
  H       -1.2491170    -1.9758090    -0.4428220
units angstrom
no_reorient  #important for SAPT in psi4, default
symmetry c1  #important for SAPT in psi4, default
}

set PROPERTIES_ORIGIN ["COM"]
properties('MP2/aug-cc-pvtz', properties = ['dipole'])
--------------------------------------------------------------------------

    Molecular point group: c1
  Charge       = 0
  Multiplicity = 1
  Basis Set: AUG-CC-PVTZ
    Blend: AUG-CC-PVTZ
  Basis Set: (AUG-CC-PVTZ AUX)
    Blend: AUG-CC-PVTZ-JKFIT

    Orbital Energies [Eh]
    ---------------------

    Doubly Occupied:

       1A    -20.508918     2A    -15.579372     3A    -11.343750
       4A    -11.277827     5A    -11.247126     6A    -11.237101
       7A    -11.234789     8A    -11.233600     9A     -1.363386
      10A     -1.228812    11A     -1.093567    12A     -1.040304
      13A     -0.942549    14A     -0.888859    15A     -0.795889
      16A     -0.759164    17A     -0.688299    18A     -0.676895
      19A     -0.626050    20A     -0.612121    21A     -0.600894
      22A     -0.591323    23A     -0.561759    24A     -0.544674
      25A     -0.516479    26A     -0.516178    27A     -0.481336
      28A     -0.470202    29A     -0.465009    30A     -0.410846
      31A     -0.383053

  @DF-RHF Final Energy:  -363.06859091912617

   => Energetics <=

    Nuclear Repulsion Energy =            393.5974881302165045
    One-Electron Energy =               -1273.4918958103742170
    Two-Electron Energy =                 516.8258167610315468
    Total Energy =                       -363.0685909191261089
  Basis Set: (AUG-CC-PVTZ AUX)
    Blend: AUG-CC-PVTZ-RI
    Molecular point group: c1

    Geometry (in Angstrom), charge = 0, multiplicity = 1:

       Center              X                  Y                   Z               Mass
    ------------   -----------------  -----------------  -----------------  -----------------
         O           -2.464588167135     0.074861785901    -0.383530355469    15.994914619570
         N           -0.635225167135    -1.215310214099    -0.015799355469    14.003074004430
         C            1.915077832865     0.740323785901    -0.025157355469    12.000000000000
         C            1.795752832865    -0.743216214099    -0.371434355469    12.000000000000
         C            0.651998832865     1.572148785901    -0.250646355469    12.000000000000
         C            0.723706832865    -1.483640214099     0.427905644531    12.000000000000
         C           -0.548718167135     1.153382785901     0.611657644531    12.000000000000
         C           -1.309793167135    -0.026075214099     0.039929644531    12.000000000000
         H            2.733699832865     1.174091785901    -0.612542355469     1.007825032230
         H            2.211517832865     0.832585785901     1.029136644531     1.007825032230
         H            1.579582832865    -0.869303214099    -1.439204355469     1.007825032230
         H            2.763385832865    -1.225465214099    -0.180683355469     1.007825032230
         H            0.363387832865     1.538961785901    -1.308968355469     1.007825032230
         H            0.887874832865     2.619356785901    -0.027955355469     1.007825032230
         H            0.869405832865    -2.562948214099     0.325645644531     1.007825032230
         H            0.829574832865    -1.254939214099     1.497393644531     1.007825032230
         H           -1.345950267135     2.037747185901     0.675785744531     1.007825032230
         H           -0.215108167135     0.932596785901     1.634679644531     1.007825032230
         H           -1.172068167135    -1.966924214099    -0.433645355469     1.007825032230

  Basis Set: AUG-CC-PVTZ
    Blend: AUG-CC-PVTZ
  Basis Set: (AUG-CC-PVTZ AUX)
    Blend: AUG-CC-PVTZ-JKFIT
	 Reference Energy          =    -363.0685909191261658 [Eh]
	 Singles Energy            =      -0.0000000000000000 [Eh]
	 Same-Spin Energy          =      -0.3778513913375054 [Eh]
	 Opposite-Spin Energy      =      -1.2485870141522404 [Eh]
	 Correlation Energy        =      -1.6264384054897458 [Eh]
	 Total Energy              =    -364.6950293246159163 [Eh]

	 ================> DF-SCS-MP2 Energies <==================
	-----------------------------------------------------------
	 SCS Same-Spin Scale       =       0.3333333333333333 [-]
	 SCS Opposite-Spin Scale   =       1.2000000000000000 [-]
	 SCS Same-Spin Energy      =      -0.1259504637791685 [Eh]
	 SCS Opposite-Spin Energy  =      -1.4983044169826885 [Eh]
	 SCS Correlation Energy    =      -1.6242548807618569 [Eh]
	 SCS Total Energy          =    -364.6928457998880049 [Eh]
	-----------------------------------------------------------

  Dipole Moment: [D]
     X:     4.0968      Y:    -1.0666      Z:     0.8789     Total:     4.3236

*** Psi4 exiting successfully. Buy a developer a beer!
