                               Psi4 1.3.2 release

  ==> Input File <==

--------------------------------------------------------------------------
#psi4
#
memory 32 gb

molecule  {
0 1
  O       -2.5416370     0.0659770    -0.3927070
  N       -0.7122740    -1.2241950    -0.0249760
  C        1.8380290     0.7314390    -0.0343340
  C        1.7187040    -0.7521010    -0.3806110
  C        0.5749500     1.5632640    -0.2598230
  C        0.6466580    -1.4925250     0.4187290
  C       -0.6264489     1.1691234     0.6130735
  C       -1.3868420    -0.0349600     0.0307530
  H        2.6566510     1.1652070    -0.6217190
  H        2.1344690     0.8237010     1.0199600
  H        1.5025340    -0.8781880    -1.4483810
  H        2.6863370    -1.2343500    -0.1898600
  H        0.2863390     1.5300770    -1.3181450
  H        0.8108260     2.6104720    -0.0371320
  H        0.7923570    -2.5718330     0.3164690
  H        0.7525260    -1.2638240     1.4882170
  H       -1.3561390     1.9546950     0.6612310
  H       -0.2921570     0.9237120     1.6255030
  H       -1.2491170    -1.9758090    -0.4428220
units angstrom
no_reorient  #important for SAPT in psi4, default
symmetry c1  #important for SAPT in psi4, default
}

set PROPERTIES_ORIGIN ["COM"]
properties('MP2/aug-cc-pvtz', properties = ['dipole'])
--------------------------------------------------------------------------

    Molecular point group: c1
  Charge       = 0
  Multiplicity = 1
  Basis Set: AUG-CC-PVTZ
    Blend: AUG-CC-PVTZ
  Basis Set: (AUG-CC-PVTZ AUX)
    Blend: AUG-CC-PVTZ-JKFIT

    Orbital Energies [Eh]
    ---------------------

    Doubly Occupied:

       1A    -20.508860     2A    -15.578962     3A    -11.343496
       4A    -11.277385     5A    -11.236217     6A    -11.235563
       7A    -11.234371     8A    -11.233264     9A     -1.362783
      10A     -1.227881    11A     -1.093722    12A     -1.041078
      13A     -0.945096    14A     -0.886953    15A     -0.795049
      16A     -0.765277    17A     -0.687390    18A     -0.675161
      19A     -0.625907    20A     -0.611974    21A     -0.602927
      22A     -0.590624    23A     -0.572289    24A     -0.544178
      25A     -0.521176    26A     -0.515532    27A     -0.481504
      28A     -0.472927    29A     -0.468986    30A     -0.407909
      31A     -0.382774

  @DF-RHF Final Energy:  -363.07517249334211

   => Energetics <=

    Nuclear Repulsion Energy =            393.6717351263324076
    One-Electron Energy =               -1273.6393862332358822
    Two-Electron Energy =                 516.8924786135613658
    Total Energy =                       -363.0751724933421656
  Basis Set: (AUG-CC-PVTZ AUX)
    Blend: AUG-CC-PVTZ-RI
    Molecular point group: c1

    Geometry (in Angstrom), charge = 0, multiplicity = 1:

       Center              X                  Y                   Z               Mass
    ------------   -----------------  -----------------  -----------------  -----------------
         O           -2.465111675757     0.072909636058    -0.384606455955    15.994914619570
         N           -0.635748675757    -1.217262363942    -0.016875455955    14.003074004430
         C            1.914554324243     0.738371636058    -0.026233455955    12.000000000000
         C            1.795229324243    -0.745168363942    -0.372510455955    12.000000000000
         C            0.651475324243     1.570196636058    -0.251722455955    12.000000000000
         C            0.723183324243    -1.485592363942     0.426829544045    12.000000000000
         C           -0.549923575757     1.176056036058     0.621174044045    12.000000000000
         C           -1.310316675757    -0.028027363942     0.038853544045    12.000000000000
         H            2.733176324243     1.172139636058    -0.613618455955     1.007825032230
         H            2.210994324243     0.830633636058     1.028060544045     1.007825032230
         H            1.579059324243    -0.871255363942    -1.440280455955     1.007825032230
         H            2.762862324243    -1.227417363942    -0.181759455955     1.007825032230
         H            0.362864324243     1.537009636058    -1.310044455955     1.007825032230
         H            0.887351324243     2.617404636058    -0.029031455955     1.007825032230
         H            0.868882324243    -2.564900363942     0.324569544045     1.007825032230
         H            0.829051324243    -1.256891363942     1.496317544045     1.007825032230
         H           -1.279613675757     1.961627636058     0.669331544045     1.007825032230
         H           -0.215631675757     0.930644636058     1.633603544045     1.007825032230
         H           -1.172591675757    -1.968876363942    -0.434721455955     1.007825032230

  Basis Set: AUG-CC-PVTZ
    Blend: AUG-CC-PVTZ
  Basis Set: (AUG-CC-PVTZ AUX)
    Blend: AUG-CC-PVTZ-JKFIT
	 Reference Energy          =    -363.0751724933421087 [Eh]
	 Singles Energy            =      -0.0000000000000000 [Eh]
	 Same-Spin Energy          =      -0.3775332684809701 [Eh]
	 Opposite-Spin Energy      =      -1.2474475277027794 [Eh]
	 Correlation Energy        =      -1.6249807961837495 [Eh]
	 Total Energy              =    -364.7001532895258720 [Eh]

	 ================> DF-SCS-MP2 Energies <==================
	-----------------------------------------------------------
	 SCS Same-Spin Scale       =       0.3333333333333333 [-]
	 SCS Opposite-Spin Scale   =       1.2000000000000000 [-]
	 SCS Same-Spin Energy      =      -0.1258444228269900 [Eh]
	 SCS Opposite-Spin Energy  =      -1.4969370332433354 [Eh]
	 SCS Correlation Energy    =      -1.6227814560703253 [Eh]
	 SCS Total Energy          =    -364.6979539494124083 [Eh]
	-----------------------------------------------------------

  Dipole Moment: [D]
     X:     4.0619      Y:    -1.0490      Z:     0.8928     Total:     4.2891

*** Psi4 exiting successfully. Buy a developer a beer!
