                               Psi4 1.3.2 release

  ==> Input File <==

--------------------------------------------------------------------------
#psi4
#
memory 32 gb

molecule  {
0 1
  O       -2.5416370     0.0659770    -0.3927070
  N       -0.7122740    -1.2241950    -0.0249760
  C        1.8380290     0.7314390    -0.0343340
  C        1.7187040    -0.7521010    -0.3806110
  C        0.5749500     1.5632640    -0.2598230
  C        0.6466580    -1.4925250     0.4187290
  C       -0.6257670     1.1444980     0.6024810
  C       -1.3868420    -0.0349600     0.0307530
  H        2.6566510     1.1652070    -0.6217190
  H        2.1344690     0.8237010     1.0199600
  H        1.4371612    -0.8400509    -1.4369058
  H        2.6863370    -1.2343500    -0.1898600
  H        0.2863390     1.5300770    -1.3181450
  H        0.8108260     2.6104720    -0.0371320
  H        0.7923570    -2.5718330     0.3164690
  H        0.7525260    -1.2638240     1.4882170
  H       -1.3561390     1.9546950     0.6612310
  H       -0.2921570     0.9237120     1.6255030
  H       -1.2491170    -1.9758090    -0.4428220
units angstrom
no_reorient  #important for SAPT in psi4, default
symmetry c1  #important for SAPT in psi4, default
}

set PROPERTIES_ORIGIN ["COM"]
properties('MP2/aug-cc-pvtz', properties = ['dipole'])
--------------------------------------------------------------------------

    Molecular point group: c1
  Charge       = 0
  Multiplicity = 1
  Basis Set: AUG-CC-PVTZ
    Blend: AUG-CC-PVTZ
  Basis Set: (AUG-CC-PVTZ AUX)
    Blend: AUG-CC-PVTZ-JKFIT

    Orbital Energies [Eh]
    ---------------------

    Doubly Occupied:

       1A    -20.509245     2A    -15.578891     3A    -11.343207
       4A    -11.276913     5A    -11.236812     6A    -11.236071
       7A    -11.234485     8A    -11.232645     9A     -1.363643
      10A     -1.228534    11A     -1.094292    12A     -1.042391
      13A     -0.945415    14A     -0.888279    15A     -0.794755
      16A     -0.764003    17A     -0.689388    18A     -0.676923
      19A     -0.625230    20A     -0.612309    21A     -0.602737
      22A     -0.592326    23A     -0.570571    24A     -0.544786
      25A     -0.519835    26A     -0.515475    27A     -0.481362
      28A     -0.470049    29A     -0.469191    30A     -0.410759
      31A     -0.382874

  @DF-RHF Final Energy:  -363.07480034486832

   => Energetics <=

    Nuclear Repulsion Energy =            394.2349490852967051
    One-Electron Energy =               -1274.7527049514199007
    Two-Electron Energy =                 517.4429555212549303
    Total Energy =                       -363.0748003448683221
  Basis Set: (AUG-CC-PVTZ AUX)
    Blend: AUG-CC-PVTZ-RI
    Molecular point group: c1

    Geometry (in Angstrom), charge = 0, multiplicity = 1:

       Center              X                  Y                   Z               Mass
    ------------   -----------------  -----------------  -----------------  -----------------
         O           -2.464601422214     0.075182894260    -0.383584693895    15.994914619570
         N           -0.635238422214    -1.214989105740    -0.015853693895    14.003074004430
         C            1.915064577786     0.740644894260    -0.025211693895    12.000000000000
         C            1.795739577786    -0.742895105740    -0.371488693895    12.000000000000
         C            0.651985577786     1.572469894260    -0.250700693895    12.000000000000
         C            0.723693577786    -1.483319105740     0.427851306105    12.000000000000
         C           -0.548731422214     1.153703894260     0.611603306105    12.000000000000
         C           -1.309806422214    -0.025754105740     0.039875306105    12.000000000000
         H            2.733686577786     1.174412894260    -0.612596693895     1.007825032230
         H            2.211504577786     0.832906894260     1.029082306105     1.007825032230
         H            1.514196777786    -0.830845005740    -1.427783493895     1.007825032230
         H            2.763372577786    -1.225144105740    -0.180737693895     1.007825032230
         H            0.363374577786     1.539282894260    -1.309022693895     1.007825032230
         H            0.887861577786     2.619677894260    -0.028009693895     1.007825032230
         H            0.869392577786    -2.562627105740     0.325591306105     1.007825032230
         H            0.829561577786    -1.254618105740     1.497339306105     1.007825032230
         H           -1.279103422214     1.963900894260     0.670353306105     1.007825032230
         H           -0.215121422214     0.932917894260     1.634625306105     1.007825032230
         H           -1.172081422214    -1.966603105740    -0.433699693895     1.007825032230

  Basis Set: AUG-CC-PVTZ
    Blend: AUG-CC-PVTZ
  Basis Set: (AUG-CC-PVTZ AUX)
    Blend: AUG-CC-PVTZ-JKFIT
	 Reference Energy          =    -363.0748003448683221 [Eh]
	 Singles Energy            =      -0.0000000000000000 [Eh]
	 Same-Spin Energy          =      -0.3778237609523408 [Eh]
	 Opposite-Spin Energy      =      -1.2478397944973008 [Eh]
	 Correlation Energy        =      -1.6256635554496417 [Eh]
	 Total Energy              =    -364.7004639003179705 [Eh]

	 ================> DF-SCS-MP2 Energies <==================
	-----------------------------------------------------------
	 SCS Same-Spin Scale       =       0.3333333333333333 [-]
	 SCS Opposite-Spin Scale   =       1.2000000000000000 [-]
	 SCS Same-Spin Energy      =      -0.1259412536507803 [Eh]
	 SCS Opposite-Spin Energy  =      -1.4974077533967609 [Eh]
	 SCS Correlation Energy    =      -1.6233490070475411 [Eh]
	 SCS Total Energy          =    -364.6981493519158448 [Eh]
	-----------------------------------------------------------

  Dipole Moment: [D]
     X:     4.0537      Y:    -1.0248      Z:     0.9082     Total:     4.2787

*** Psi4 exiting successfully. Buy a developer a beer!
