                               Psi4 1.3.2 release

  ==> Input File <==

--------------------------------------------------------------------------
#psi4
#
memory 32 gb

molecule  {
0 1
  O       -2.5416370     0.0659770    -0.3927070
  N       -0.7122740    -1.2241950    -0.0249760
  C        1.8380290     0.7314390    -0.0343340
  C        1.7753507    -0.8959357    -0.4218593
  C        0.5749500     1.5632640    -0.2598230
  C        0.6466580    -1.4925250     0.4187290
  C       -0.6257670     1.1444980     0.6024810
  C       -1.3868420    -0.0349600     0.0307530
  H        2.6566510     1.1652070    -0.6217190
  H        2.1344690     0.8237010     1.0199600
  H        1.5025340    -0.8781880    -1.4483810
  H        2.6863370    -1.2343500    -0.1898600
  H        0.2863390     1.5300770    -1.3181450
  H        0.8108260     2.6104720    -0.0371320
  H        0.7923570    -2.5718330     0.3164690
  H        0.7525260    -1.2638240     1.4882170
  H       -1.3561390     1.9546950     0.6612310
  H       -0.2921570     0.9237120     1.6255030
  H       -1.2491170    -1.9758090    -0.4428220
units angstrom
no_reorient  #important for SAPT in psi4, default
symmetry c1  #important for SAPT in psi4, default
}

set PROPERTIES_ORIGIN ["COM"]
properties('MP2/aug-cc-pvtz', properties = ['dipole'])
--------------------------------------------------------------------------

    Molecular point group: c1
  Charge       = 0
  Multiplicity = 1
  Basis Set: AUG-CC-PVTZ
    Blend: AUG-CC-PVTZ
  Basis Set: (AUG-CC-PVTZ AUX)
    Blend: AUG-CC-PVTZ-JKFIT

    Orbital Energies [Eh]
    ---------------------

    Doubly Occupied:

       1A    -20.509660     2A    -15.580881     3A    -11.343444
       4A    -11.277407     5A    -11.237217     6A    -11.236280
       7A    -11.235524     8A    -11.231049     9A     -1.363968
      10A     -1.227969    11A     -1.083291    12A     -1.041595
      13A     -0.942154    14A     -0.888277    15A     -0.801695
      16A     -0.763112    17A     -0.691203    18A     -0.674163
      19A     -0.630640    20A     -0.611769    21A     -0.598179
      22A     -0.589330    23A     -0.580038    24A     -0.544899
      25A     -0.528698    26A     -0.516160    27A     -0.486736
      28A     -0.473845    29A     -0.432469    30A     -0.411007
      31A     -0.385492

  @DF-RHF Final Energy:  -363.05371012962871

   => Energetics <=

    Nuclear Repulsion Energy =            392.0225003777921984
    One-Electron Energy =               -1270.3161185664775985
    Two-Electron Energy =                 515.2399080590566882
    Total Energy =                       -363.0537101296287119
  Basis Set: (AUG-CC-PVTZ AUX)
    Blend: AUG-CC-PVTZ-RI
    Molecular point group: c1

    Geometry (in Angstrom), charge = 0, multiplicity = 1:

       Center              X                  Y                   Z               Mass
    ------------   -----------------  -----------------  -----------------  -----------------
         O           -2.471195143009     0.090785905524    -0.379105330702    15.994914619570
         N           -0.641832143009    -1.199386094476    -0.011374330702    14.003074004430
         C            1.908470856991     0.756247905524    -0.020732330702    12.000000000000
         C            1.845792556991    -0.871126794476    -0.408257630702    12.000000000000
         C            0.645391856991     1.588072905524    -0.246221330702    12.000000000000
         C            0.717099856991    -1.467716094476     0.432330669298    12.000000000000
         C           -0.555325143009     1.169306905524     0.616082669298    12.000000000000
         C           -1.316400143009    -0.010151094476     0.044354669298    12.000000000000
         H            2.727092856991     1.190015905524    -0.608117330702     1.007825032230
         H            2.204910856991     0.848509905524     1.033561669298     1.007825032230
         H            1.572975856991    -0.853379094476    -1.434779330702     1.007825032230
         H            2.756778856991    -1.209541094476    -0.176258330702     1.007825032230
         H            0.356780856991     1.554885905524    -1.304543330702     1.007825032230
         H            0.881267856991     2.635280905524    -0.023530330702     1.007825032230
         H            0.862798856991    -2.547024094476     0.330070669298     1.007825032230
         H            0.822967856991    -1.239015094476     1.501818669298     1.007825032230
         H           -1.285697143009     1.979503905524     0.674832669298     1.007825032230
         H           -0.221715143009     0.948520905524     1.639104669298     1.007825032230
         H           -1.178675143009    -1.951000094476    -0.429220330702     1.007825032230

  Basis Set: AUG-CC-PVTZ
    Blend: AUG-CC-PVTZ
  Basis Set: (AUG-CC-PVTZ AUX)
    Blend: AUG-CC-PVTZ-JKFIT
	 Reference Energy          =    -363.0537101296287119 [Eh]
	 Singles Energy            =      -0.0000000000000000 [Eh]
	 Same-Spin Energy          =      -0.3775450635049460 [Eh]
	 Opposite-Spin Energy      =      -1.2483236448867223 [Eh]
	 Correlation Energy        =      -1.6258687083916683 [Eh]
	 Total Energy              =    -364.6795788380204044 [Eh]

	 ================> DF-SCS-MP2 Energies <==================
	-----------------------------------------------------------
	 SCS Same-Spin Scale       =       0.3333333333333333 [-]
	 SCS Opposite-Spin Scale   =       1.2000000000000000 [-]
	 SCS Same-Spin Energy      =      -0.1258483545016487 [Eh]
	 SCS Opposite-Spin Energy  =      -1.4979883738640667 [Eh]
	 SCS Correlation Energy    =      -1.6238367283657154 [Eh]
	 SCS Total Energy          =    -364.6775468579944004 [Eh]
	-----------------------------------------------------------

  Dipole Moment: [D]
     X:     4.0533      Y:    -1.0442      Z:     0.8818     Total:     4.2775

*** Psi4 exiting successfully. Buy a developer a beer!
