                               Psi4 1.3.2 release

  ==> Input File <==

--------------------------------------------------------------------------
#psi4
#
memory 32 gb

molecule  {
0 1
  O       -2.5416370     0.0659770    -0.3927070
  N       -0.7122740    -1.2241950    -0.0249760
  C        1.8380290     0.7314390    -0.0343340
  C        1.7187040    -0.7521010    -0.3806110
  C        0.5342893     1.4437662    -0.3594765
  C        0.6466580    -1.4925250     0.4187290
  C       -0.6257670     1.1444980     0.6024810
  C       -1.3868420    -0.0349600     0.0307530
  H        2.6566510     1.1652070    -0.6217190
  H        2.1344690     0.8237010     1.0199600
  H        1.5025340    -0.8781880    -1.4483810
  H        2.6863370    -1.2343500    -0.1898600
  H        0.2863390     1.5300770    -1.3181450
  H        0.8108260     2.6104720    -0.0371320
  H        0.7923570    -2.5718330     0.3164690
  H        0.7525260    -1.2638240     1.4882170
  H       -1.3561390     1.9546950     0.6612310
  H       -0.2921570     0.9237120     1.6255030
  H       -1.2491170    -1.9758090    -0.4428220
units angstrom
no_reorient  #important for SAPT in psi4, default
symmetry c1  #important for SAPT in psi4, default
}

set PROPERTIES_ORIGIN ["COM"]
properties('MP2/aug-cc-pvtz', properties = ['dipole'])
--------------------------------------------------------------------------

    Molecular point group: c1
  Charge       = 0
  Multiplicity = 1
  Basis Set: AUG-CC-PVTZ
    Blend: AUG-CC-PVTZ
  Basis Set: (AUG-CC-PVTZ AUX)
    Blend: AUG-CC-PVTZ-JKFIT

    Orbital Energies [Eh]
    ---------------------

    Doubly Occupied:

       1A    -20.507790     2A    -15.578321     3A    -11.340778
       4A    -11.277444     5A    -11.241146     6A    -11.238863
       7A    -11.235633     8A    -11.232104     9A     -1.362842
      10A     -1.228595    11A     -1.097628    12A     -1.043255
      13A     -0.946440    14A     -0.885763    15A     -0.802536
      16A     -0.766834    17A     -0.685903    18A     -0.679326
      19A     -0.628235    20A     -0.614761    21A     -0.602201
      22A     -0.586445    23A     -0.567928    24A     -0.545581
      25A     -0.529638    26A     -0.516778    27A     -0.496580
      28A     -0.475819    29A     -0.439514    30A     -0.403683
      31A     -0.382551

  @DF-RHF Final Energy:  -363.04817529249192

   => Energetics <=

    Nuclear Repulsion Energy =            395.3594733377544230
    One-Electron Energy =               -1276.9334695072093382
    Two-Electron Energy =                 518.5258208769629391
    Total Energy =                       -363.0481752924919192
  Basis Set: (AUG-CC-PVTZ AUX)
    Blend: AUG-CC-PVTZ-RI
    Molecular point group: c1

    Geometry (in Angstrom), charge = 0, multiplicity = 1:

       Center              X                  Y                   Z               Mass
    ------------   -----------------  -----------------  -----------------  -----------------
         O           -2.460869295503     0.088203377185    -0.372907619236    15.994914619570
         N           -0.631506295503    -1.201968622815    -0.005176619236    14.003074004430
         C            1.918796704497     0.753665377185    -0.014534619236    12.000000000000
         C            1.799471704497    -0.729874622815    -0.360811619236    12.000000000000
         C            0.615057004497     1.465992577185    -0.339677119236    12.000000000000
         C            0.727425704497    -1.470298622815     0.438528380764    12.000000000000
         C           -0.544999295503     1.166724377185     0.622280380764    12.000000000000
         C           -1.306074295503    -0.012733622815     0.050552380764    12.000000000000
         H            2.737418704497     1.187433377185    -0.601919619236     1.007825032230
         H            2.215236704497     0.845927377185     1.039759380764     1.007825032230
         H            1.583301704497    -0.855961622815    -1.428581619236     1.007825032230
         H            2.767104704497    -1.212123622815    -0.170060619236     1.007825032230
         H            0.367106704497     1.552303377185    -1.298345619236     1.007825032230
         H            0.891593704497     2.632698377185    -0.017332619236     1.007825032230
         H            0.873124704497    -2.549606622815     0.336268380764     1.007825032230
         H            0.833293704497    -1.241597622815     1.508016380764     1.007825032230
         H           -1.275371295503     1.976921377185     0.681030380764     1.007825032230
         H           -0.211389295503     0.945938377185     1.645302380764     1.007825032230
         H           -1.168349295503    -1.953582622815    -0.423022619236     1.007825032230

  Basis Set: AUG-CC-PVTZ
    Blend: AUG-CC-PVTZ
  Basis Set: (AUG-CC-PVTZ AUX)
    Blend: AUG-CC-PVTZ-JKFIT
	 Reference Energy          =    -363.0481752924919192 [Eh]
	 Singles Energy            =      -0.0000000000000000 [Eh]
	 Same-Spin Energy          =      -0.3784442304479279 [Eh]
	 Opposite-Spin Energy      =      -1.2493860462964794 [Eh]
	 Correlation Energy        =      -1.6278302767444073 [Eh]
	 Total Energy              =    -364.6760055692363380 [Eh]

	 ================> DF-SCS-MP2 Energies <==================
	-----------------------------------------------------------
	 SCS Same-Spin Scale       =       0.3333333333333333 [-]
	 SCS Opposite-Spin Scale   =       1.2000000000000000 [-]
	 SCS Same-Spin Energy      =      -0.1261480768159760 [Eh]
	 SCS Opposite-Spin Energy  =      -1.4992632555557752 [Eh]
	 SCS Correlation Energy    =      -1.6254113323717512 [Eh]
	 SCS Total Energy          =    -364.6735866248636739 [Eh]
	-----------------------------------------------------------

  Dipole Moment: [D]
     X:     4.0644      Y:    -1.0953      Z:     0.9026     Total:     4.3050

*** Psi4 exiting successfully. Buy a developer a beer!
