                               Psi4 1.4a3.dev225

  ==> Input File <==

--------------------------------------------------------------------------
#psi4
#
memory 32 gb

molecule  {
0 1
  O       -2.5416370     0.0659770    -0.3927070
  N       -0.7122740    -1.2241950    -0.0249760
  C        1.8380290     0.7314390    -0.0343340
  C        1.7187040    -0.7521010    -0.3806110
  C        0.5749500     1.5632640    -0.2598230
  C        0.6466580    -1.4925250     0.4187290
  C       -0.6257670     1.1444980     0.6024810
  C       -1.3617350     0.0039490     0.0496137
  H        2.6566510     1.1652070    -0.6217190
  H        2.1344690     0.8237010     1.0199600
  H        1.5025340    -0.8781880    -1.4483810
  H        2.6863370    -1.2343500    -0.1898600
  H        0.2863390     1.5300770    -1.3181450
  H        0.8108260     2.6104720    -0.0371320
  H        0.7923570    -2.5718330     0.3164690
  H        0.7525260    -1.2638240     1.4882170
  H       -1.3561390     1.9546950     0.6612310
  H       -0.2921570     0.9237120     1.6255030
  H       -1.2491170    -1.9758090    -0.4428220
units angstrom
no_reorient  #important for SAPT in psi4, default
symmetry c1  #important for SAPT in psi4, default
}

set PROPERTIES_ORIGIN ["COM"]
properties('MP2/aug-cc-pvtz', properties = ['dipole'])
--------------------------------------------------------------------------

    Molecular point group: c1
  Charge       = 0
  Multiplicity = 1
  Basis Set: AUG-CC-PVTZ
    Blend: AUG-CC-PVTZ
  Basis Set: (AUG-CC-PVTZ AUX)
    Blend: AUG-CC-PVTZ-JKFIT

    Orbital Energies [Eh]
    ---------------------

    Doubly Occupied:

       1A    -20.508199     2A    -15.577625     3A    -11.347231
       4A    -11.275026     5A    -11.240023     6A    -11.238342
       7A    -11.234675     8A    -11.233851     9A     -1.348266
      10A     -1.219914    11A     -1.097076    12A     -1.047468
      13A     -0.948895    14A     -0.890051    15A     -0.796694
      16A     -0.764532    17A     -0.685681    18A     -0.679362
      19A     -0.626341    20A     -0.611998    21A     -0.603647
      22A     -0.590062    23A     -0.568750    24A     -0.545048
      25A     -0.516708    26A     -0.514354    27A     -0.482421
      28A     -0.472699    29A     -0.467056    30A     -0.413485
      31A     -0.377983

  @DF-RHF Final Energy:  -363.06878163276878

   => Energetics <=

    Nuclear Repulsion Energy =            394.0793444528370628
    One-Electron Energy =               -1274.4493285184826163
    Two-Electron Energy =                 517.3012024328768348
    Total Energy =                       -363.0687816327687187
  Basis Set: (AUG-CC-PVTZ AUX)
    Blend: AUG-CC-PVTZ-RI
    Molecular point group: c1

    Geometry (in Angstrom), charge = 0, multiplicity = 1:

       Center              X                  Y                   Z               Mass
    ------------   -----------------  -----------------  -----------------  -----------------
         O           -2.467848284162     0.071393921165    -0.385483842180    15.994914619570
         N           -0.638485284162    -1.218778078835    -0.017752842180    14.003074004430
         C            1.911817715838     0.736855921165    -0.027110842180    12.000000000000
         C            1.792492715838    -0.746684078835    -0.373387842180    12.000000000000
         C            0.648738715838     1.568680921165    -0.252599842180    12.000000000000
         C            0.720446715838    -1.487108078835     0.425952157820    12.000000000000
         C           -0.551978284162     1.149914921165     0.609704157820    12.000000000000
         C           -1.287946284162     0.009365921165     0.056836857820    12.000000000000
         H            2.730439715838     1.170623921165    -0.614495842180     1.007825032230
         H            2.208257715838     0.829117921165     1.027183157820     1.007825032230
         H            1.576322715838    -0.872771078835    -1.441157842180     1.007825032230
         H            2.760125715838    -1.228933078835    -0.182636842180     1.007825032230
         H            0.360127715838     1.535493921165    -1.310921842180     1.007825032230
         H            0.884614715838     2.615888921165    -0.029908842180     1.007825032230
         H            0.866145715838    -2.566416078835     0.323692157820     1.007825032230
         H            0.826314715838    -1.258407078835     1.495440157820     1.007825032230
         H           -1.282350284162     1.960111921165     0.668454157820     1.007825032230
         H           -0.218368284162     0.929128921165     1.632726157820     1.007825032230
         H           -1.175328284162    -1.970392078835    -0.435598842180     1.007825032230

  Basis Set: AUG-CC-PVTZ
    Blend: AUG-CC-PVTZ
  Basis Set: (AUG-CC-PVTZ AUX)
    Blend: AUG-CC-PVTZ-JKFIT
	 Reference Energy          =    -363.0687816327687756 [Eh]
	 Singles Energy            =      -0.0000000000000000 [Eh]
	 Same-Spin Energy          =      -0.3787928166911845 [Eh]
	 Opposite-Spin Energy      =      -1.2496474369880790 [Eh]
	 Correlation Energy        =      -1.6284402536792635 [Eh]
	 Total Energy              =    -364.6972218864480624 [Eh]

	 ================> DF-SCS-MP2 Energies <==================
	-----------------------------------------------------------
	 SCS Same-Spin Scale       =       0.3333333333333333 [-]
	 SCS Opposite-Spin Scale   =       1.2000000000000000 [-]
	 SCS Same-Spin Energy      =      -0.1262642722303948 [Eh]
	 SCS Opposite-Spin Energy  =      -1.4995769243856947 [Eh]
	 SCS Correlation Energy    =      -1.6258411966160895 [Eh]
	 SCS Total Energy          =    -364.6946228293848549 [Eh]
	-----------------------------------------------------------

  Dipole Moment: [D]
     X:     4.1656      Y:    -0.8464      Z:     0.9584     Total:     4.3574

*** Psi4 exiting successfully. Buy a developer a beer!
