                               Psi4 1.3.2 release

  ==> Input File <==

--------------------------------------------------------------------------
#psi4
#
memory 32 gb

molecule  {
0 1
  O       -2.5416370     0.0659770    -0.3927070
  N       -0.7122740    -1.2241950    -0.0249760
  C        1.8380290     0.7314390    -0.0343340
  C        1.7187040    -0.7521010    -0.3806110
  C        0.5749500     1.5632640    -0.2598230
  C        0.7167930    -1.4440853     0.3664349
  C       -0.6257670     1.1444980     0.6024810
  C       -1.3868420    -0.0349600     0.0307530
  H        2.6566510     1.1652070    -0.6217190
  H        2.1344690     0.8237010     1.0199600
  H        1.5025340    -0.8781880    -1.4483810
  H        2.6863370    -1.2343500    -0.1898600
  H        0.2863390     1.5300770    -1.3181450
  H        0.8108260     2.6104720    -0.0371320
  H        0.7923570    -2.5718330     0.3164690
  H        0.7525260    -1.2638240     1.4882170
  H       -1.3561390     1.9546950     0.6612310
  H       -0.2921570     0.9237120     1.6255030
  H       -1.2491170    -1.9758090    -0.4428220
units angstrom
no_reorient  #important for SAPT in psi4, default
symmetry c1  #important for SAPT in psi4, default
}

set PROPERTIES_ORIGIN ["COM"]
properties('MP2/aug-cc-pvtz', properties = ['dipole'])
--------------------------------------------------------------------------

    Molecular point group: c1
  Charge       = 0
  Multiplicity = 1
  Basis Set: AUG-CC-PVTZ
    Blend: AUG-CC-PVTZ
  Basis Set: (AUG-CC-PVTZ AUX)
    Blend: AUG-CC-PVTZ-JKFIT

    Orbital Energies [Eh]
    ---------------------

    Doubly Occupied:

       1A    -20.507042     2A    -15.577305     3A    -11.340392
       4A    -11.282974     5A    -11.237343     6A    -11.235358
       7A    -11.234799     8A    -11.232350     9A     -1.361085
      10A     -1.220940    11A     -1.100480    12A     -1.052754
      13A     -0.948691    14A     -0.882658    15A     -0.797650
      16A     -0.760784    17A     -0.685148    18A     -0.675248
      19A     -0.630661    20A     -0.615261    21A     -0.599073
      22A     -0.587620    23A     -0.567838    24A     -0.556690
      25A     -0.517113    26A     -0.508282    27A     -0.480836
      28A     -0.475387    29A     -0.465500    30A     -0.407945
      31A     -0.385539

  @DF-RHF Final Energy:  -363.06367644092143

   => Energetics <=

    Nuclear Repulsion Energy =            394.7428180296195137
    One-Electron Energy =               -1275.7514960426981361
    Two-Electron Energy =                 517.9450015721572527
    Total Energy =                       -363.0636764409214265
  Basis Set: (AUG-CC-PVTZ AUX)
    Blend: AUG-CC-PVTZ-RI
    Molecular point group: c1

    Geometry (in Angstrom), charge = 0, multiplicity = 1:

       Center              X                  Y                   Z               Mass
    ------------   -----------------  -----------------  -----------------  -----------------
         O           -2.472626464049     0.070382563808    -0.377933197377    15.994914619570
         N           -0.643263464049    -1.219789436192    -0.010202197377    14.003074004430
         C            1.907039535951     0.735844563808    -0.019560197377    12.000000000000
         C            1.787714535951    -0.747695436192    -0.365837197377    12.000000000000
         C            0.643960535951     1.567669563808    -0.245049197377    12.000000000000
         C            0.785803535951    -1.439679736192     0.381208702623    12.000000000000
         C           -0.556756464049     1.148903563808     0.617254802623    12.000000000000
         C           -1.317831464049    -0.030554436192     0.045526802623    12.000000000000
         H            2.725661535951     1.169612563808    -0.606945197377     1.007825032230
         H            2.203479535951     0.828106563808     1.034733802623     1.007825032230
         H            1.571544535951    -0.873782436192    -1.433607197377     1.007825032230
         H            2.755347535951    -1.229944436192    -0.175086197377     1.007825032230
         H            0.355349535951     1.534482563808    -1.303371197377     1.007825032230
         H            0.879836535951     2.614877563808    -0.022358197377     1.007825032230
         H            0.861367535951    -2.567427436192     0.331242802623     1.007825032230
         H            0.821536535951    -1.259418436192     1.502990802623     1.007825032230
         H           -1.287128464049     1.959100563808     0.676004802623     1.007825032230
         H           -0.223146464049     0.928117563808     1.640276802623     1.007825032230
         H           -1.180106464049    -1.971403436192    -0.428048197377     1.007825032230

  Basis Set: AUG-CC-PVTZ
    Blend: AUG-CC-PVTZ
  Basis Set: (AUG-CC-PVTZ AUX)
    Blend: AUG-CC-PVTZ-JKFIT
	 Reference Energy          =    -363.0636764409214265 [Eh]
	 Singles Energy            =      -0.0000000000000000 [Eh]
	 Same-Spin Energy          =      -0.3786671026109827 [Eh]
	 Opposite-Spin Energy      =      -1.2490714677316110 [Eh]
	 Correlation Energy        =      -1.6277385703425937 [Eh]
	 Total Energy              =    -364.6914150112640414 [Eh]

	 ================> DF-SCS-MP2 Energies <==================
	-----------------------------------------------------------
	 SCS Same-Spin Scale       =       0.3333333333333333 [-]
	 SCS Opposite-Spin Scale   =       1.2000000000000000 [-]
	 SCS Same-Spin Energy      =      -0.1262223675369942 [Eh]
	 SCS Opposite-Spin Energy  =      -1.4988857612779332 [Eh]
	 SCS Correlation Energy    =      -1.6251081288149274 [Eh]
	 SCS Total Energy          =    -364.6887845697363559 [Eh]
	-----------------------------------------------------------

  Dipole Moment: [D]
     X:     4.2531      Y:    -0.9909      Z:     0.8279     Total:     4.4448

*** Psi4 exiting successfully. Buy a developer a beer!
