                               Psi4 1.3.2 release

  ==> Input File <==

--------------------------------------------------------------------------
#psi4
#
memory 32 gb

molecule  {
0 1
  O       -2.5416370     0.0659770    -0.3927070
  N       -0.7122740    -1.2241950    -0.0249760
  C        1.8380290     0.7314390    -0.0343340
  C        1.7187040    -0.7521010    -0.3806110
  C        0.5749500     1.5632640    -0.2598230
  C        0.6343498    -1.5881645     0.3869730
  C       -0.6257670     1.1444980     0.6024810
  C       -1.3868420    -0.0349600     0.0307530
  H        2.6566510     1.1652070    -0.6217190
  H        2.1344690     0.8237010     1.0199600
  H        1.5025340    -0.8781880    -1.4483810
  H        2.6863370    -1.2343500    -0.1898600
  H        0.2863390     1.5300770    -1.3181450
  H        0.8108260     2.6104720    -0.0371320
  H        0.7923570    -2.5718330     0.3164690
  H        0.7525260    -1.2638240     1.4882170
  H       -1.3561390     1.9546950     0.6612310
  H       -0.2921570     0.9237120     1.6255030
  H       -1.2491170    -1.9758090    -0.4428220
units angstrom
no_reorient  #important for SAPT in psi4, default
symmetry c1  #important for SAPT in psi4, default
}

set PROPERTIES_ORIGIN ["COM"]
properties('MP2/aug-cc-pvtz', properties = ['dipole'])
--------------------------------------------------------------------------

    Molecular point group: c1
  Charge       = 0
  Multiplicity = 1
  Basis Set: AUG-CC-PVTZ
    Blend: AUG-CC-PVTZ
  Basis Set: (AUG-CC-PVTZ AUX)
    Blend: AUG-CC-PVTZ-JKFIT

    Orbital Energies [Eh]
    ---------------------

    Doubly Occupied:

       1A    -20.509880     2A    -15.578965     3A    -11.345628
       4A    -11.277476     5A    -11.236575     6A    -11.236039
       7A    -11.235896     8A    -11.234544     9A     -1.364058
      10A     -1.227697    11A     -1.092155    12A     -1.040187
      13A     -0.946905    14A     -0.893522    15A     -0.793047
      16A     -0.762133    17A     -0.694036    18A     -0.679648
      19A     -0.622329    20A     -0.615489    21A     -0.603185
      22A     -0.595836    23A     -0.569241    24A     -0.539989
      25A     -0.523369    26A     -0.508470    27A     -0.482248
      28A     -0.474343    29A     -0.467252    30A     -0.412182
      31A     -0.377206

  @DF-RHF Final Energy:  -363.06280033260305

   => Energetics <=

    Nuclear Repulsion Energy =            393.0283744819155345
    One-Electron Energy =               -1272.3032915044682341
    Two-Electron Energy =                 516.2121166899496529
    Total Energy =                       -363.0628003326030466
  Basis Set: (AUG-CC-PVTZ AUX)
    Blend: AUG-CC-PVTZ-RI
    Molecular point group: c1

    Geometry (in Angstrom), charge = 0, multiplicity = 1:

       Center              X                  Y                   Z               Mass
    ------------   -----------------  -----------------  -----------------  -----------------
         O           -2.463877942239     0.085671635842    -0.380112613214    15.994914619570
         N           -0.634514942239    -1.204500364158    -0.012381613214    14.003074004430
         C            1.915788057761     0.751133635842    -0.021739613214    12.000000000000
         C            1.796463057761    -0.732406364158    -0.368016613214    12.000000000000
         C            0.652709057761     1.582958635842    -0.247228613214    12.000000000000
         C            0.712108857761    -1.568469864158     0.399567386786    12.000000000000
         C           -0.548007942239     1.164192635842     0.615075386786    12.000000000000
         C           -1.309082942239    -0.015265364158     0.043347386786    12.000000000000
         H            2.734410057761     1.184901635842    -0.609124613214     1.007825032230
         H            2.212228057761     0.843395635842     1.032554386786     1.007825032230
         H            1.580293057761    -0.858493364158    -1.435786613214     1.007825032230
         H            2.764096057761    -1.214655364158    -0.177265613214     1.007825032230
         H            0.364098057761     1.549771635842    -1.305550613214     1.007825032230
         H            0.888585057761     2.630166635842    -0.024537613214     1.007825032230
         H            0.870116057761    -2.552138364158     0.329063386786     1.007825032230
         H            0.830285057761    -1.244129364158     1.500811386786     1.007825032230
         H           -1.278379942239     1.974389635842     0.673825386786     1.007825032230
         H           -0.214397942239     0.943406635842     1.638097386786     1.007825032230
         H           -1.171357942239    -1.956114364158    -0.430227613214     1.007825032230

  Basis Set: AUG-CC-PVTZ
    Blend: AUG-CC-PVTZ
  Basis Set: (AUG-CC-PVTZ AUX)
    Blend: AUG-CC-PVTZ-JKFIT
	 Reference Energy          =    -363.0628003326030466 [Eh]
	 Singles Energy            =      -0.0000000000000000 [Eh]
	 Same-Spin Energy          =      -0.3776296117699623 [Eh]
	 Opposite-Spin Energy      =      -1.2479762728874690 [Eh]
	 Correlation Energy        =      -1.6256058846574315 [Eh]
	 Total Energy              =    -364.6884062172604786 [Eh]

	 ================> DF-SCS-MP2 Energies <==================
	-----------------------------------------------------------
	 SCS Same-Spin Scale       =       0.3333333333333333 [-]
	 SCS Opposite-Spin Scale   =       1.2000000000000000 [-]
	 SCS Same-Spin Energy      =      -0.1258765372566541 [Eh]
	 SCS Opposite-Spin Energy  =      -1.4975715274649628 [Eh]
	 SCS Correlation Energy    =      -1.6234480647216170 [Eh]
	 SCS Total Energy          =    -364.6862483973246754 [Eh]
	-----------------------------------------------------------

  Dipole Moment: [D]
     X:     4.0425      Y:    -1.0821      Z:     0.8575     Total:     4.2718

*** Psi4 exiting successfully. Buy a developer a beer!
