                               Psi4 1.3.2 release

  ==> Input File <==

--------------------------------------------------------------------------
#psi4
#
memory 32 gb

molecule  {
0 1
  O       -2.5416370     0.0659770    -0.3927070
  N       -0.7122740    -1.2241950    -0.0249760
  C        1.8380290     0.7314390    -0.0343340
  C        1.6679936    -0.7437349    -0.3948711
  C        0.5749500     1.5632640    -0.2598230
  C        0.6466580    -1.4925250     0.4187290
  C       -0.6257670     1.1444980     0.6024810
  C       -1.3868420    -0.0349600     0.0307530
  H        2.6566510     1.1652070    -0.6217190
  H        2.1344690     0.8237010     1.0199600
  H        1.5025340    -0.8781880    -1.4483810
  H        2.6863370    -1.2343500    -0.1898600
  H        0.2863390     1.5300770    -1.3181450
  H        0.8108260     2.6104720    -0.0371320
  H        0.7923570    -2.5718330     0.3164690
  H        0.7525260    -1.2638240     1.4882170
  H       -1.3561390     1.9546950     0.6612310
  H       -0.2921570     0.9237120     1.6255030
  H       -1.2491170    -1.9758090    -0.4428220
units angstrom
no_reorient  #important for SAPT in psi4, default
symmetry c1  #important for SAPT in psi4, default
}

set PROPERTIES_ORIGIN ["COM"]
properties('MP2/aug-cc-pvtz', properties = ['dipole'])
--------------------------------------------------------------------------

    Molecular point group: c1
  Charge       = 0
  Multiplicity = 1
  Basis Set: AUG-CC-PVTZ
    Blend: AUG-CC-PVTZ
  Basis Set: (AUG-CC-PVTZ AUX)
    Blend: AUG-CC-PVTZ-JKFIT

    Orbital Energies [Eh]
    ---------------------

    Doubly Occupied:

       1A    -20.508819     2A    -15.577674     3A    -11.342900
       4A    -11.277103     5A    -11.236230     6A    -11.235689
       7A    -11.235452     8A    -11.233680     9A     -1.363315
      10A     -1.229393    11A     -1.094717    12A     -1.043435
      13A     -0.946928    14A     -0.886831    15A     -0.796248
      16A     -0.763967    17A     -0.688064    18A     -0.677753
      19A     -0.626697    20A     -0.614037    21A     -0.602128
      22A     -0.592033    23A     -0.565070    24A     -0.546861
      25A     -0.518837    26A     -0.517567    27A     -0.484986
      28A     -0.472640    29A     -0.461316    30A     -0.410345
      31A     -0.382953

  @DF-RHF Final Energy:  -363.07212169094134

   => Energetics <=

    Nuclear Repulsion Energy =            394.7335532364788264
    One-Electron Energy =               -1275.7440188493073947
    Two-Electron Energy =                 517.9383439218871672
    Total Energy =                       -363.0721216909413442
  Basis Set: (AUG-CC-PVTZ AUX)
    Blend: AUG-CC-PVTZ-RI
    Molecular point group: c1

    Geometry (in Angstrom), charge = 0, multiplicity = 1:

       Center              X                  Y                   Z               Mass
    ------------   -----------------  -----------------  -----------------  -----------------
         O           -2.459802864074     0.074635003835    -0.381969203724    15.994914619570
         N           -0.630439864074    -1.215536996165    -0.014238203724    14.003074004430
         C            1.919863135926     0.740097003835    -0.023596203724    12.000000000000
         C            1.749827735926    -0.735076896165    -0.384133303724    12.000000000000
         C            0.656784135926     1.571922003835    -0.249085203724    12.000000000000
         C            0.728492135926    -1.483866996165     0.429466796276    12.000000000000
         C           -0.543932864074     1.153156003835     0.613218796276    12.000000000000
         C           -1.305007864074    -0.026301996165     0.041490796276    12.000000000000
         H            2.738485135926     1.173865003835    -0.610981203724     1.007825032230
         H            2.216303135926     0.832359003835     1.030697796276     1.007825032230
         H            1.584368135926    -0.869529996165    -1.437643203724     1.007825032230
         H            2.768171135926    -1.225691996165    -0.179122203724     1.007825032230
         H            0.368173135926     1.538735003835    -1.307407203724     1.007825032230
         H            0.892660135926     2.619130003835    -0.026394203724     1.007825032230
         H            0.874191135926    -2.563174996165     0.327206796276     1.007825032230
         H            0.834360135926    -1.255165996165     1.498954796276     1.007825032230
         H           -1.274304864074     1.963353003835     0.671968796276     1.007825032230
         H           -0.210322864074     0.932370003835     1.636240796276     1.007825032230
         H           -1.167282864074    -1.967150996165    -0.432084203724     1.007825032230

  Basis Set: AUG-CC-PVTZ
    Blend: AUG-CC-PVTZ
  Basis Set: (AUG-CC-PVTZ AUX)
    Blend: AUG-CC-PVTZ-JKFIT
	 Reference Energy          =    -363.0721216909413442 [Eh]
	 Singles Energy            =      -0.0000000000000000 [Eh]
	 Same-Spin Energy          =      -0.3779699173900485 [Eh]
	 Opposite-Spin Energy      =      -1.2480513954580279 [Eh]
	 Correlation Energy        =      -1.6260213128480765 [Eh]
	 Total Energy              =    -364.6981430037894256 [Eh]

	 ================> DF-SCS-MP2 Energies <==================
	-----------------------------------------------------------
	 SCS Same-Spin Scale       =       0.3333333333333333 [-]
	 SCS Opposite-Spin Scale   =       1.2000000000000000 [-]
	 SCS Same-Spin Energy      =      -0.1259899724633495 [Eh]
	 SCS Opposite-Spin Energy  =      -1.4976616745496334 [Eh]
	 SCS Correlation Energy    =      -1.6236516470129829 [Eh]
	 SCS Total Energy          =    -364.6957733379543356 [Eh]
	-----------------------------------------------------------

  Dipole Moment: [D]
     X:     4.0629      Y:    -1.0367      Z:     0.8920     Total:     4.2869

*** Psi4 exiting successfully. Buy a developer a beer!
