                               Psi4 1.3.2 release

  ==> Input File <==

--------------------------------------------------------------------------
#psi4
#
memory 32 gb

molecule  {
0 1
  O       -2.5416370     0.0659770    -0.3927070
  N       -0.7122740    -1.2241950    -0.0249760
  C        1.7834861     0.6750908     0.0380619
  C        1.7187040    -0.7521010    -0.3806110
  C        0.5749500     1.5632640    -0.2598230
  C        0.6466580    -1.4925250     0.4187290
  C       -0.6257670     1.1444980     0.6024810
  C       -1.3868420    -0.0349600     0.0307530
  H        2.6566510     1.1652070    -0.6217190
  H        2.1344690     0.8237010     1.0199600
  H        1.5025340    -0.8781880    -1.4483810
  H        2.6863370    -1.2343500    -0.1898600
  H        0.2863390     1.5300770    -1.3181450
  H        0.8108260     2.6104720    -0.0371320
  H        0.7923570    -2.5718330     0.3164690
  H        0.7525260    -1.2638240     1.4882170
  H       -1.3561390     1.9546950     0.6612310
  H       -0.2921570     0.9237120     1.6255030
  H       -1.2491170    -1.9758090    -0.4428220
units angstrom
no_reorient  #important for SAPT in psi4, default
symmetry c1  #important for SAPT in psi4, default
}

set PROPERTIES_ORIGIN ["COM"]
properties('MP2/aug-cc-pvtz', properties = ['dipole'])
--------------------------------------------------------------------------

    Molecular point group: c1
  Charge       = 0
  Multiplicity = 1
  Basis Set: AUG-CC-PVTZ
    Blend: AUG-CC-PVTZ
  Basis Set: (AUG-CC-PVTZ AUX)
    Blend: AUG-CC-PVTZ-JKFIT

    Orbital Energies [Eh]
    ---------------------

    Doubly Occupied:

       1A    -20.508999     2A    -15.578940     3A    -11.342992
       4A    -11.276083     5A    -11.238028     6A    -11.236328
       7A    -11.234346     8A    -11.234161     9A     -1.363459
      10A     -1.229012    11A     -1.098975    12A     -1.045401
      13A     -0.941753    14A     -0.890604    15A     -0.798429
      16A     -0.763891    17A     -0.689698    18A     -0.673936
      19A     -0.624441    20A     -0.617260    21A     -0.607902
      22A     -0.593057    23A     -0.564591    24A     -0.543373
      25A     -0.518763    26A     -0.514655    27A     -0.497128
      28A     -0.476907    29A     -0.447641    30A     -0.409437
      31A     -0.381811

  @DF-RHF Final Energy:  -363.06311608789446

   => Energetics <=

    Nuclear Repulsion Energy =            395.1950966251836235
    One-Electron Energy =               -1276.6324276315838233
    Two-Electron Energy =                 518.3742149185057997
    Total Energy =                       -363.0631160878944002
  Basis Set: (AUG-CC-PVTZ AUX)
    Blend: AUG-CC-PVTZ-RI
    Molecular point group: c1

    Geometry (in Angstrom), charge = 0, multiplicity = 1:

       Center              X                  Y                   Z               Mass
    ------------   -----------------  -----------------  -----------------  -----------------
         O           -2.459396175471     0.081502210165    -0.391164769955    15.994914619570
         N           -0.630033175471    -1.208669789835    -0.023433769955    14.003074004430
         C            1.865726924529     0.690616010165     0.039604130045    12.000000000000
         C            1.800944824529    -0.736575789835    -0.379068769955    12.000000000000
         C            0.657190824529     1.578789210165    -0.258280769955    12.000000000000
         C            0.728898824529    -1.476999789835     0.420271230045    12.000000000000
         C           -0.543526175471     1.160023210165     0.604023230045    12.000000000000
         C           -1.304601175471    -0.019434789835     0.032295230045    12.000000000000
         H            2.738891824529     1.180732210165    -0.620176769955     1.007825032230
         H            2.216709824529     0.839226210165     1.021502230045     1.007825032230
         H            1.584774824529    -0.862662789835    -1.446838769955     1.007825032230
         H            2.768577824529    -1.218824789835    -0.188317769955     1.007825032230
         H            0.368579824529     1.545602210165    -1.316602769955     1.007825032230
         H            0.893066824529     2.625997210165    -0.035589769955     1.007825032230
         H            0.874597824529    -2.556307789835     0.318011230045     1.007825032230
         H            0.834766824529    -1.248298789835     1.489759230045     1.007825032230
         H           -1.273898175471     1.970220210165     0.662773230045     1.007825032230
         H           -0.209916175471     0.939237210165     1.627045230045     1.007825032230
         H           -1.166876175471    -1.960283789835    -0.441279769955     1.007825032230

  Basis Set: AUG-CC-PVTZ
    Blend: AUG-CC-PVTZ
  Basis Set: (AUG-CC-PVTZ AUX)
    Blend: AUG-CC-PVTZ-JKFIT
	 Reference Energy          =    -363.0631160878944570 [Eh]
	 Singles Energy            =      -0.0000000000000000 [Eh]
	 Same-Spin Energy          =      -0.3783530753442115 [Eh]
	 Opposite-Spin Energy      =      -1.2487858518226469 [Eh]
	 Correlation Energy        =      -1.6271389271668584 [Eh]
	 Total Energy              =    -364.6902550150613251 [Eh]

	 ================> DF-SCS-MP2 Energies <==================
	-----------------------------------------------------------
	 SCS Same-Spin Scale       =       0.3333333333333333 [-]
	 SCS Opposite-Spin Scale   =       1.2000000000000000 [-]
	 SCS Same-Spin Energy      =      -0.1261176917814038 [Eh]
	 SCS Opposite-Spin Energy  =      -1.4985430221871763 [Eh]
	 SCS Correlation Energy    =      -1.6246607139685800 [Eh]
	 SCS Total Energy          =    -364.6877768018630377 [Eh]
	-----------------------------------------------------------

  Dipole Moment: [D]
     X:     4.0403      Y:    -1.0649      Z:     0.9260     Total:     4.2797

*** Psi4 exiting successfully. Buy a developer a beer!
