                               Psi4 1.3.2 release

  ==> Input File <==

--------------------------------------------------------------------------
#psi4
#
memory 32 gb

molecule  {
0 1
  O       -2.5416370     0.0659770    -0.3927070
  N       -0.7122740    -1.2241950    -0.0249760
  C        1.8380290     0.7314390    -0.0343340
  C        1.7187040    -0.7521010    -0.3806110
  C        0.5749500     1.5632640    -0.2598230
  C        0.6466580    -1.4925250     0.4187290
  C       -0.6257670     1.1444980     0.6024810
  C       -1.3868420    -0.0349600     0.0307530
  H        2.6165607     1.1486636    -0.6848183
  H        2.1344690     0.8237010     1.0199600
  H        1.5025340    -0.8781880    -1.4483810
  H        2.6863370    -1.2343500    -0.1898600
  H        0.2863390     1.5300770    -1.3181450
  H        0.8108260     2.6104720    -0.0371320
  H        0.7923570    -2.5718330     0.3164690
  H        0.7525260    -1.2638240     1.4882170
  H       -1.3561390     1.9546950     0.6612310
  H       -0.2921570     0.9237120     1.6255030
  H       -1.2491170    -1.9758090    -0.4428220
units angstrom
no_reorient  #important for SAPT in psi4, default
symmetry c1  #important for SAPT in psi4, default
}

set PROPERTIES_ORIGIN ["COM"]
properties('MP2/aug-cc-pvtz', properties = ['dipole'])
--------------------------------------------------------------------------

    Molecular point group: c1
  Charge       = 0
  Multiplicity = 1
  Basis Set: AUG-CC-PVTZ
    Blend: AUG-CC-PVTZ
  Basis Set: (AUG-CC-PVTZ AUX)
    Blend: AUG-CC-PVTZ-JKFIT

    Orbital Energies [Eh]
    ---------------------

    Doubly Occupied:

       1A    -20.508983     2A    -15.578579     3A    -11.342951
       4A    -11.277055     5A    -11.236371     6A    -11.235686
       7A    -11.234093     8A    -11.233195     9A     -1.363372
      10A     -1.228161    11A     -1.094337    12A     -1.042112
      13A     -0.945466    14A     -0.888550    15A     -0.794033
      16A     -0.763823    17A     -0.688286    18A     -0.677046
      19A     -0.626987    20A     -0.611665    21A     -0.602411
      22A     -0.591201    23A     -0.570959    24A     -0.545156
      25A     -0.520000    26A     -0.515781    27A     -0.482002
      28A     -0.470048    29A     -0.467902    30A     -0.410452
      31A     -0.382572

  @DF-RHF Final Energy:  -363.07490932760936

   => Energetics <=

    Nuclear Repulsion Energy =            394.1504295999847614
    One-Electron Energy =               -1274.5922044273956999
    Two-Electron Energy =                 517.3668654998015199
    Total Energy =                       -363.0749093276093618
  Basis Set: (AUG-CC-PVTZ AUX)
    Blend: AUG-CC-PVTZ-RI
    Molecular point group: c1

    Geometry (in Angstrom), charge = 0, multiplicity = 1:

       Center              X                  Y                   Z               Mass
    ------------   -----------------  -----------------  -----------------  -----------------
         O           -2.464826744293     0.075670216477    -0.382920072858    15.994914619570
         N           -0.635463744293    -1.214501783523    -0.015189072858    14.003074004430
         C            1.914839255707     0.741132216477    -0.024547072858    12.000000000000
         C            1.795514255707    -0.742407783523    -0.370824072858    12.000000000000
         C            0.651760255707     1.572957216477    -0.250036072858    12.000000000000
         C            0.723468255707    -1.482831783523     0.428515927142    12.000000000000
         C           -0.548956744293     1.154191216477     0.612267927142    12.000000000000
         C           -1.310031744293    -0.025266783523     0.040539927142    12.000000000000
         H            2.693370955707     1.158356816477    -0.675031372858     1.007825032230
         H            2.211279255707     0.833394216477     1.029746927142     1.007825032230
         H            1.579344255707    -0.868494783523    -1.438594072858     1.007825032230
         H            2.763147255707    -1.224656783523    -0.180073072858     1.007825032230
         H            0.363149255707     1.539770216477    -1.308358072858     1.007825032230
         H            0.887636255707     2.620165216477    -0.027345072858     1.007825032230
         H            0.869167255707    -2.562139783523     0.326255927142     1.007825032230
         H            0.829336255707    -1.254130783523     1.498003927142     1.007825032230
         H           -1.279328744293     1.964388216477     0.671017927142     1.007825032230
         H           -0.215346744293     0.933405216477     1.635289927142     1.007825032230
         H           -1.172306744293    -1.966115783523    -0.433035072858     1.007825032230

  Basis Set: AUG-CC-PVTZ
    Blend: AUG-CC-PVTZ
  Basis Set: (AUG-CC-PVTZ AUX)
    Blend: AUG-CC-PVTZ-JKFIT
	 Reference Energy          =    -363.0749093276093618 [Eh]
	 Singles Energy            =      -0.0000000000000000 [Eh]
	 Same-Spin Energy          =      -0.3777491930633444 [Eh]
	 Opposite-Spin Energy      =      -1.2477520060253173 [Eh]
	 Correlation Energy        =      -1.6255011990886616 [Eh]
	 Total Energy              =    -364.7004105266980218 [Eh]

	 ================> DF-SCS-MP2 Energies <==================
	-----------------------------------------------------------
	 SCS Same-Spin Scale       =       0.3333333333333333 [-]
	 SCS Opposite-Spin Scale   =       1.2000000000000000 [-]
	 SCS Same-Spin Energy      =      -0.1259163976877815 [Eh]
	 SCS Opposite-Spin Energy  =      -1.4973024072303807 [Eh]
	 SCS Correlation Energy    =      -1.6232188049181622 [Eh]
	 SCS Total Energy          =    -364.6981281325275290 [Eh]
	-----------------------------------------------------------

  Dipole Moment: [D]
     X:     4.0638      Y:    -1.0398      Z:     0.8787     Total:     4.2858

*** Psi4 exiting successfully. Buy a developer a beer!
