                               Psi4 1.3.2 release

  ==> Input File <==

--------------------------------------------------------------------------
#psi4
#
memory 32 gb

molecule  {
0 1
  O       -2.5416370     0.0659770    -0.3927070
  N       -0.7122740    -1.2241950    -0.0249760
  C        1.8380290     0.7314390    -0.0343340
  C        1.5672559    -0.7216233    -0.4220567
  C        0.5749500     1.5632640    -0.2598230
  C        0.6466580    -1.4925250     0.4187290
  C       -0.6257670     1.1444980     0.6024810
  C       -1.3868420    -0.0349600     0.0307530
  H        2.6566510     1.1652070    -0.6217190
  H        2.1344690     0.8237010     1.0199600
  H        1.5025340    -0.8781880    -1.4483810
  H        2.6863370    -1.2343500    -0.1898600
  H        0.2863390     1.5300770    -1.3181450
  H        0.8108260     2.6104720    -0.0371320
  H        0.7923570    -2.5718330     0.3164690
  H        0.7525260    -1.2638240     1.4882170
  H       -1.3561390     1.9546950     0.6612310
  H       -0.2921570     0.9237120     1.6255030
  H       -1.2491170    -1.9758090    -0.4428220
units angstrom
no_reorient  #important for SAPT in psi4, default
symmetry c1  #important for SAPT in psi4, default
}

set PROPERTIES_ORIGIN ["COM"]
properties('MP2/aug-cc-pvtz', properties = ['dipole'])
--------------------------------------------------------------------------

    Molecular point group: c1
  Charge       = 0
  Multiplicity = 1
  Basis Set: AUG-CC-PVTZ
    Blend: AUG-CC-PVTZ
  Basis Set: (AUG-CC-PVTZ AUX)
    Blend: AUG-CC-PVTZ-JKFIT

    Orbital Energies [Eh]
    ---------------------

    Doubly Occupied:

       1A    -20.508737     2A    -15.576155     3A    -11.343035
       4A    -11.277634     5A    -11.240788     6A    -11.236514
       7A    -11.236205     8A    -11.234188     9A     -1.363468
      10A     -1.232613    11A     -1.096984    12A     -1.046292
      13A     -0.950141    14A     -0.884649    15A     -0.799806
      16A     -0.764500    17A     -0.688150    18A     -0.680433
      19A     -0.631312    20A     -0.620260    21A     -0.602721
      22A     -0.592809    23A     -0.558479    24A     -0.552684
      25A     -0.520669    26A     -0.514089    27A     -0.491324
      28A     -0.476668    29A     -0.440247    30A     -0.410056
      31A     -0.381607

  @DF-RHF Final Energy:  -363.05004529500036

   => Energetics <=

    Nuclear Repulsion Energy =            396.0335036276968026
    One-Electron Energy =               -1278.2606592878360061
    Two-Electron Energy =                 519.1771103651389012
    Total Energy =                       -363.0500452950003591
  Basis Set: (AUG-CC-PVTZ AUX)
    Blend: AUG-CC-PVTZ-RI
    Molecular point group: c1

    Geometry (in Angstrom), charge = 0, multiplicity = 1:

       Center              X                  Y                   Z               Mass
    ------------   -----------------  -----------------  -----------------  -----------------
         O           -2.449113007718     0.072288614868    -0.379084383454    15.994914619570
         N           -0.619750007718    -1.217883385132    -0.011353383454    14.003074004430
         C            1.930552992282     0.737750614868    -0.020711383454    12.000000000000
         C            1.659779892282    -0.715311685132    -0.408434083454    12.000000000000
         C            0.667473992282     1.569575614868    -0.246200383454    12.000000000000
         C            0.739181992282    -1.486213385132     0.432351616546    12.000000000000
         C           -0.533243007718     1.150809614868     0.616103616546    12.000000000000
         C           -1.294318007718    -0.028648385132     0.044375616546    12.000000000000
         H            2.749174992282     1.171518614868    -0.608096383454     1.007825032230
         H            2.226992992282     0.830012614868     1.033582616546     1.007825032230
         H            1.595057992282    -0.871876385132    -1.434758383454     1.007825032230
         H            2.778860992282    -1.228038385132    -0.176237383454     1.007825032230
         H            0.378862992282     1.536388614868    -1.304522383454     1.007825032230
         H            0.903349992282     2.616783614868    -0.023509383454     1.007825032230
         H            0.884880992282    -2.565521385132     0.330091616546     1.007825032230
         H            0.845049992282    -1.257512385132     1.501839616546     1.007825032230
         H           -1.263615007718     1.961006614868     0.674853616546     1.007825032230
         H           -0.199633007718     0.930023614868     1.639125616546     1.007825032230
         H           -1.156593007718    -1.969497385132    -0.429199383454     1.007825032230

  Basis Set: AUG-CC-PVTZ
    Blend: AUG-CC-PVTZ
  Basis Set: (AUG-CC-PVTZ AUX)
    Blend: AUG-CC-PVTZ-JKFIT
	 Reference Energy          =    -363.0500452950003591 [Eh]
	 Singles Energy            =      -0.0000000000000000 [Eh]
	 Same-Spin Energy          =      -0.3788595593411154 [Eh]
	 Opposite-Spin Energy      =      -1.2498615353567892 [Eh]
	 Correlation Energy        =      -1.6287210946979047 [Eh]
	 Total Energy              =    -364.6787663896982394 [Eh]

	 ================> DF-SCS-MP2 Energies <==================
	-----------------------------------------------------------
	 SCS Same-Spin Scale       =       0.3333333333333333 [-]
	 SCS Opposite-Spin Scale   =       1.2000000000000000 [-]
	 SCS Same-Spin Energy      =      -0.1262865197803718 [Eh]
	 SCS Opposite-Spin Energy  =      -1.4998338424281470 [Eh]
	 SCS Correlation Energy    =      -1.6261203622085187 [Eh]
	 SCS Total Energy          =    -364.6761656572088555 [Eh]
	-----------------------------------------------------------

  Dipole Moment: [D]
     X:     4.0032      Y:    -1.0155      Z:     0.8943     Total:     4.2257

*** Psi4 exiting successfully. Buy a developer a beer!
