                               Psi4 1.4a3.dev225

  ==> Input File <==

--------------------------------------------------------------------------
#psi4
#
memory 32 gb

molecule  {
0 1
  O       -2.5416370     0.0659770    -0.3927070
  N       -0.7122740    -1.2241950    -0.0249760
  C        1.8380290     0.7314390    -0.0343340
  C        1.7187040    -0.7521010    -0.3806110
  C        0.5749500     1.5632640    -0.2598230
  C        0.6466580    -1.4925250     0.4187290
  C       -0.6257670     1.1444980     0.6024810
  C       -1.4055564    -0.0333242     0.0238905
  H        2.6566510     1.1652070    -0.6217190
  H        2.1344690     0.8237010     1.0199600
  H        1.5025340    -0.8781880    -1.4483810
  H        2.6863370    -1.2343500    -0.1898600
  H        0.2863390     1.5300770    -1.3181450
  H        0.8108260     2.6104720    -0.0371320
  H        0.7923570    -2.5718330     0.3164690
  H        0.7525260    -1.2638240     1.4882170
  H       -1.3561390     1.9546950     0.6612310
  H       -0.2921570     0.9237120     1.6255030
  H       -1.2491170    -1.9758090    -0.4428220
units angstrom
no_reorient  #important for SAPT in psi4, default
symmetry c1  #important for SAPT in psi4, default
}

set PROPERTIES_ORIGIN ["COM"]
properties('MP2/aug-cc-pvtz', properties = ['dipole'])
--------------------------------------------------------------------------

    Molecular point group: c1
  Charge       = 0
  Multiplicity = 1
  Basis Set: AUG-CC-PVTZ
    Blend: AUG-CC-PVTZ
  Basis Set: (AUG-CC-PVTZ AUX)
    Blend: AUG-CC-PVTZ-JKFIT

    Orbital Energies [Eh]
    ---------------------

    Doubly Occupied:

       1A    -20.513065     2A    -15.575609     3A    -11.342561
       4A    -11.276165     5A    -11.235885     6A    -11.235186
       7A    -11.233229     8A    -11.232166     9A     -1.376118
      10A     -1.226247    11A     -1.092415    12A     -1.040212
      13A     -0.943241    14A     -0.886428    15A     -0.794135
      16A     -0.760615    17A     -0.687069    18A     -0.677700
      19A     -0.625598    20A     -0.611530    21A     -0.601009
      22A     -0.594828    23A     -0.569812    24A     -0.547345
      25A     -0.521067    26A     -0.515884    27A     -0.480323
      28A     -0.471204    29A     -0.468660    30A     -0.411312
      31A     -0.383226

  @DF-RHF Final Energy:  -363.07627834970845

   => Energetics <=

    Nuclear Repulsion Energy =            394.0213002612617288
    One-Electron Energy =               -1274.3354737519591708
    Two-Electron Energy =                 517.2378951409889396
    Total Energy =                       -363.0762783497084456
  Basis Set: (AUG-CC-PVTZ AUX)
    Blend: AUG-CC-PVTZ-RI
    Molecular point group: c1

    Geometry (in Angstrom), charge = 0, multiplicity = 1:

       Center              X                  Y                   Z               Mass
    ------------   -----------------  -----------------  -----------------  -----------------
         O           -2.463198143536     0.075349194651    -0.382754205579    15.994914619570
         N           -0.633835143536    -1.214822805349    -0.015023205579    14.003074004430
         C            1.916467856464     0.740811194651    -0.024381205579    12.000000000000
         C            1.797142856464    -0.742728805349    -0.370658205579    12.000000000000
         C            0.653388856464     1.572636194651    -0.249870205579    12.000000000000
         C            0.725096856464    -1.483152805349     0.428681794421    12.000000000000
         C           -0.547328143536     1.153870194651     0.612433794421    12.000000000000
         C           -1.327117543536    -0.023952005349     0.033843294421    12.000000000000
         H            2.735089856464     1.174579194651    -0.611766205579     1.007825032230
         H            2.212907856464     0.833073194651     1.029912794421     1.007825032230
         H            1.580972856464    -0.868815805349    -1.438428205579     1.007825032230
         H            2.764775856464    -1.224977805349    -0.179907205579     1.007825032230
         H            0.364777856464     1.539449194651    -1.308192205579     1.007825032230
         H            0.889264856464     2.619844194651    -0.027179205579     1.007825032230
         H            0.870795856464    -2.562460805349     0.326421794421     1.007825032230
         H            0.830964856464    -1.254451805349     1.498169794421     1.007825032230
         H           -1.277700143536     1.964067194651     0.671183794421     1.007825032230
         H           -0.213718143536     0.933084194651     1.635455794421     1.007825032230
         H           -1.170678143536    -1.966436805349    -0.432869205579     1.007825032230

  Basis Set: AUG-CC-PVTZ
    Blend: AUG-CC-PVTZ
  Basis Set: (AUG-CC-PVTZ AUX)
    Blend: AUG-CC-PVTZ-JKFIT
	 Reference Energy          =    -363.0762783497084456 [Eh]
	 Singles Energy            =      -0.0000000000000000 [Eh]
	 Same-Spin Energy          =      -0.3772969714213436 [Eh]
	 Opposite-Spin Energy      =      -1.2468593157961880 [Eh]
	 Correlation Energy        =      -1.6241562872175317 [Eh]
	 Total Energy              =    -364.7004346369259906 [Eh]

	 ================> DF-SCS-MP2 Energies <==================
	-----------------------------------------------------------
	 SCS Same-Spin Scale       =       0.3333333333333333 [-]
	 SCS Opposite-Spin Scale   =       1.2000000000000000 [-]
	 SCS Same-Spin Energy      =      -0.1257656571404479 [Eh]
	 SCS Opposite-Spin Energy  =      -1.4962311789554257 [Eh]
	 SCS Correlation Energy    =      -1.6219968360958734 [Eh]
	 SCS Total Energy          =    -364.6982751858043343 [Eh]
	-----------------------------------------------------------

  Dipole Moment: [D]
     X:     3.9152      Y:    -0.9919      Z:     0.8583     Total:     4.1291

*** Psi4 exiting successfully. Buy a developer a beer!
