                               Psi4 1.3.2 release

  ==> Input File <==

--------------------------------------------------------------------------
#psi4
#
memory 32 gb

molecule  {
0 1
  O       -2.5380285    -0.0174928    -0.4136822
  N       -0.7122740    -1.2241950    -0.0249760
  C        1.8380290     0.7314390    -0.0343340
  C        1.7187040    -0.7521010    -0.3806110
  C        0.5749500     1.5632640    -0.2598230
  C        0.6466580    -1.4925250     0.4187290
  C       -0.6257670     1.1444980     0.6024810
  C       -1.3868420    -0.0349600     0.0307530
  H        2.6566510     1.1652070    -0.6217190
  H        2.1344690     0.8237010     1.0199600
  H        1.5025340    -0.8781880    -1.4483810
  H        2.6863370    -1.2343500    -0.1898600
  H        0.2863390     1.5300770    -1.3181450
  H        0.8108260     2.6104720    -0.0371320
  H        0.7923570    -2.5718330     0.3164690
  H        0.7525260    -1.2638240     1.4882170
  H       -1.3561390     1.9546950     0.6612310
  H       -0.2921570     0.9237120     1.6255030
  H       -1.2491170    -1.9758090    -0.4428220
units angstrom
no_reorient  #important for SAPT in psi4, default
symmetry c1  #important for SAPT in psi4, default
}

set PROPERTIES_ORIGIN ["COM"]
properties('MP2/aug-cc-pvtz', properties = ['dipole'])
--------------------------------------------------------------------------

    Molecular point group: c1
  Charge       = 0
  Multiplicity = 1
  Basis Set: AUG-CC-PVTZ
    Blend: AUG-CC-PVTZ
  Basis Set: (AUG-CC-PVTZ AUX)
    Blend: AUG-CC-PVTZ-JKFIT

    Orbital Energies [Eh]
    ---------------------

    Doubly Occupied:

       1A    -20.507898     2A    -15.574104     3A    -11.343057
       4A    -11.274823     5A    -11.240563     6A    -11.238441
       7A    -11.233928     8A    -11.233293     9A     -1.364724
      10A     -1.223352    11A     -1.094755    12A     -1.043007
      13A     -0.945680    14A     -0.888364    15A     -0.795548
      16A     -0.763238    17A     -0.687024    18A     -0.676695
      19A     -0.625641    20A     -0.611739    21A     -0.602438
      22A     -0.591632    23A     -0.571037    24A     -0.544781
      25A     -0.519844    26A     -0.515588    27A     -0.481629
      28A     -0.471721    29A     -0.470093    30A     -0.411962
      31A     -0.378954

  @DF-RHF Final Energy:  -363.07401930364620

   => Energetics <=

    Nuclear Repulsion Energy =            394.1583865279486645
    One-Electron Energy =               -1274.6137007961622203
    Two-Electron Energy =                 517.3812949645673598
    Total Energy =                       -363.0740193036461960
  Basis Set: (AUG-CC-PVTZ AUX)
    Blend: AUG-CC-PVTZ-RI
    Molecular point group: c1

    Geometry (in Angstrom), charge = 0, multiplicity = 1:

       Center              X                  Y                   Z               Mass
    ------------   -----------------  -----------------  -----------------  -----------------
         O           -2.462085932045     0.003859172143    -0.401490836109    15.994914619570
         N           -0.636331432045    -1.202843027857    -0.012784636109    14.003074004430
         C            1.913971567955     0.752790972143    -0.022142636109    12.000000000000
         C            1.794646567955    -0.730749027857    -0.368419636109    12.000000000000
         C            0.650892567955     1.584615972143    -0.247631636109    12.000000000000
         C            0.722600567955    -1.471173027857     0.430920363891    12.000000000000
         C           -0.549824432045     1.165849972143     0.614672363891    12.000000000000
         C           -1.310899432045    -0.013608027857     0.042944363891    12.000000000000
         H            2.732593567955     1.186558972143    -0.609527636109     1.007825032230
         H            2.210411567955     0.845052972143     1.032151363891     1.007825032230
         H            1.578476567955    -0.856836027857    -1.436189636109     1.007825032230
         H            2.762279567955    -1.212998027857    -0.177668636109     1.007825032230
         H            0.362281567955     1.551428972143    -1.305953636109     1.007825032230
         H            0.886768567955     2.631823972143    -0.024940636109     1.007825032230
         H            0.868299567955    -2.550481027857     0.328660363891     1.007825032230
         H            0.828468567955    -1.242472027857     1.500408363891     1.007825032230
         H           -1.280196432045     1.976046972143     0.673422363891     1.007825032230
         H           -0.216214432045     0.945063972143     1.637694363891     1.007825032230
         H           -1.173174432045    -1.954457027857    -0.430630636109     1.007825032230

  Basis Set: AUG-CC-PVTZ
    Blend: AUG-CC-PVTZ
  Basis Set: (AUG-CC-PVTZ AUX)
    Blend: AUG-CC-PVTZ-JKFIT
	 Reference Energy          =    -363.0740193036461960 [Eh]
	 Singles Energy            =      -0.0000000000000000 [Eh]
	 Same-Spin Energy          =      -0.3777950631479546 [Eh]
	 Opposite-Spin Energy      =      -1.2477259522272310 [Eh]
	 Correlation Energy        =      -1.6255210153751856 [Eh]
	 Total Energy              =    -364.6995403190213665 [Eh]

	 ================> DF-SCS-MP2 Energies <==================
	-----------------------------------------------------------
	 SCS Same-Spin Scale       =       0.3333333333333333 [-]
	 SCS Opposite-Spin Scale   =       1.2000000000000000 [-]
	 SCS Same-Spin Energy      =      -0.1259316877159849 [Eh]
	 SCS Opposite-Spin Energy  =      -1.4972711426726772 [Eh]
	 SCS Correlation Energy    =      -1.6232028303886621 [Eh]
	 SCS Total Energy          =    -364.6972221340348597 [Eh]
	-----------------------------------------------------------

  Dipole Moment: [D]
     X:     4.0718      Y:    -0.7991      Z:     0.9489     Total:     4.2566

*** Psi4 exiting successfully. Buy a developer a beer!
