                               Psi4 1.3.2 release

  ==> Input File <==

--------------------------------------------------------------------------
#psi4
#
memory 32 gb

molecule  {
0 1
  O       -2.5416370     0.0659770    -0.3927070
  N       -0.7122740    -1.2241950    -0.0249760
  C        1.8380290     0.7314390    -0.0343340
  C        1.7187040    -0.7521010    -0.3806110
  C        0.5749500     1.5632640    -0.2598230
  C        0.6466580    -1.4925250     0.4187290
  C       -0.6257670     1.1444980     0.6024810
  C       -1.3868420    -0.0349600     0.0307530
  H        2.6566510     1.1652070    -0.6217190
  H        2.1344690     0.8237010     1.0199600
  H        1.5025340    -0.8781880    -1.4483810
  H        2.6863370    -1.2343500    -0.1898600
  H        0.2863390     1.5300770    -1.3181450
  H        0.8108260     2.6104720    -0.0371320
  H        0.8056764    -2.6705001     0.3071207
  H        0.7525260    -1.2638240     1.4882170
  H       -1.3561390     1.9546950     0.6612310
  H       -0.2921570     0.9237120     1.6255030
  H       -1.2491170    -1.9758090    -0.4428220
units angstrom
no_reorient  #important for SAPT in psi4, default
symmetry c1  #important for SAPT in psi4, default
}

set PROPERTIES_ORIGIN ["COM"]
properties('MP2/aug-cc-pvtz', properties = ['dipole'])
--------------------------------------------------------------------------

    Molecular point group: c1
  Charge       = 0
  Multiplicity = 1
  Basis Set: AUG-CC-PVTZ
    Blend: AUG-CC-PVTZ
  Basis Set: (AUG-CC-PVTZ AUX)
    Blend: AUG-CC-PVTZ-JKFIT

    Orbital Energies [Eh]
    ---------------------

    Doubly Occupied:

       1A    -20.509693     2A    -15.579616     3A    -11.343824
       4A    -11.289128     5A    -11.237237     6A    -11.236559
       7A    -11.235241     8A    -11.233850     9A     -1.364069
      10A     -1.228203    11A     -1.094669    12A     -1.040860
      13A     -0.942916    14A     -0.885646    15A     -0.795700
      16A     -0.764626    17A     -0.687517    18A     -0.672711
      19A     -0.627038    20A     -0.610933    21A     -0.601489
      22A     -0.584891    23A     -0.570307    24A     -0.545220
      25A     -0.517125    26A     -0.515789    27A     -0.481242
      28A     -0.471280    29A     -0.466616    30A     -0.410920
      31A     -0.383480

  @DF-RHF Final Energy:  -363.06869794527927

   => Energetics <=

    Nuclear Repulsion Energy =            393.5927994247775246
    One-Electron Energy =               -1273.4662012180697275
    Two-Electron Energy =                 516.8047038480129913
    Total Energy =                       -363.0686979452792684
  Basis Set: (AUG-CC-PVTZ AUX)
    Blend: AUG-CC-PVTZ-RI
    Molecular point group: c1

    Geometry (in Angstrom), charge = 0, multiplicity = 1:

       Center              X                  Y                   Z               Mass
    ------------   -----------------  -----------------  -----------------  -----------------
         O           -2.465302740916     0.076402117309    -0.383399111207    15.994914619570
         N           -0.635939740916    -1.213769882691    -0.015668111207    14.003074004430
         C            1.914363259084     0.741864117309    -0.025026111207    12.000000000000
         C            1.795038259084    -0.741675882691    -0.371303111207    12.000000000000
         C            0.651284259084     1.573689117309    -0.250515111207    12.000000000000
         C            0.722992259084    -1.482099882691     0.428036888793    12.000000000000
         C           -0.549432740916     1.154923117309     0.611788888793    12.000000000000
         C           -1.310507740916    -0.024534882691     0.040060888793    12.000000000000
         H            2.732985259084     1.175632117309    -0.612411111207     1.007825032230
         H            2.210803259084     0.834126117309     1.029267888793     1.007825032230
         H            1.578868259084    -0.867762882691    -1.439073111207     1.007825032230
         H            2.762671259084    -1.223924882691    -0.180552111207     1.007825032230
         H            0.362673259084     1.540502117309    -1.308837111207     1.007825032230
         H            0.887160259084     2.620897117309    -0.027824111207     1.007825032230
         H            0.882010659084    -2.660074982691     0.316428588793     1.007825032230
         H            0.828860259084    -1.253398882691     1.497524888793     1.007825032230
         H           -1.279804740916     1.965120117309     0.670538888793     1.007825032230
         H           -0.215822740916     0.934137117309     1.634810888793     1.007825032230
         H           -1.172782740916    -1.965383882691    -0.433514111207     1.007825032230

  Basis Set: AUG-CC-PVTZ
    Blend: AUG-CC-PVTZ
  Basis Set: (AUG-CC-PVTZ AUX)
    Blend: AUG-CC-PVTZ-JKFIT
	 Reference Energy          =    -363.0686979452792684 [Eh]
	 Singles Energy            =      -0.0000000000000000 [Eh]
	 Same-Spin Energy          =      -0.3778252318045645 [Eh]
	 Opposite-Spin Energy      =      -1.2485572963323950 [Eh]
	 Correlation Energy        =      -1.6263825281369595 [Eh]
	 Total Energy              =    -364.6950804734162261 [Eh]

	 ================> DF-SCS-MP2 Energies <==================
	-----------------------------------------------------------
	 SCS Same-Spin Scale       =       0.3333333333333333 [-]
	 SCS Opposite-Spin Scale   =       1.2000000000000000 [-]
	 SCS Same-Spin Energy      =      -0.1259417439348548 [Eh]
	 SCS Opposite-Spin Energy  =      -1.4982687555988738 [Eh]
	 SCS Correlation Energy    =      -1.6242104995337288 [Eh]
	 SCS Total Energy          =    -364.6929084448129856 [Eh]
	-----------------------------------------------------------

  Dipole Moment: [D]
     X:     4.0611      Y:    -0.9652      Z:     0.8867     Total:     4.2674

*** Psi4 exiting successfully. Buy a developer a beer!
