                               Psi4 1.3.2 release

  ==> Input File <==

--------------------------------------------------------------------------
#psi4
#
memory 32 gb

molecule  {
0 1
  O       -2.5416370     0.0659770    -0.3927070
  N       -0.7122740    -1.2241950    -0.0249760
  C        1.8380290     0.7314390    -0.0343340
  C        1.7187040    -0.7521010    -0.3806110
  C        0.5749500     1.5632640    -0.2598230
  C        0.6466580    -1.4925250     0.4187290
  C       -0.6257670     1.1444980     0.6024810
  C       -1.5139964     0.0598170     0.0265080
  H        2.6566510     1.1652070    -0.6217190
  H        2.1344690     0.8237010     1.0199600
  H        1.5025340    -0.8781880    -1.4483810
  H        2.6863370    -1.2343500    -0.1898600
  H        0.2863390     1.5300770    -1.3181450
  H        0.8108260     2.6104720    -0.0371320
  H        0.7923570    -2.5718330     0.3164690
  H        0.7525260    -1.2638240     1.4882170
  H       -1.3561390     1.9546950     0.6612310
  H       -0.2921570     0.9237120     1.6255030
  H       -1.2491170    -1.9758090    -0.4428220
units angstrom
no_reorient  #important for SAPT in psi4, default
symmetry c1  #important for SAPT in psi4, default
}

set PROPERTIES_ORIGIN ["COM"]
properties('MP2/aug-cc-pvtz', properties = ['dipole'])
--------------------------------------------------------------------------

    Molecular point group: c1
  Charge       = 0
  Multiplicity = 1
  Basis Set: AUG-CC-PVTZ
    Blend: AUG-CC-PVTZ
  Basis Set: (AUG-CC-PVTZ AUX)
    Blend: AUG-CC-PVTZ-JKFIT

    Orbital Energies [Eh]
    ---------------------

    Doubly Occupied:

       1A    -20.543519     2A    -15.544912     3A    -11.345596
       4A    -11.260445     5A    -11.238159     6A    -11.237143
       7A    -11.228288     8A    -11.222871     9A     -1.463780
      10A     -1.186994    11A     -1.085516    12A     -1.033948
      13A     -0.933792    14A     -0.872958    15A     -0.786689
      16A     -0.740530    17A     -0.692788    18A     -0.683107
      19A     -0.632622    20A     -0.620360    21A     -0.596809
      22A     -0.594729    23A     -0.584067    24A     -0.552035
      25A     -0.537088    26A     -0.511852    27A     -0.476077
      28A     -0.472501    29A     -0.464033    30A     -0.410286
      31A     -0.365812

  @DF-RHF Final Energy:  -363.04531195959493

   => Energetics <=

    Nuclear Repulsion Energy =            393.5868603367764536
    One-Electron Energy =               -1273.4257368474093255
    Two-Electron Energy =                 516.7935645510380027
    Total Energy =                       -363.0453119595948692
  Basis Set: (AUG-CC-PVTZ AUX)
    Blend: AUG-CC-PVTZ-RI
    Molecular point group: c1

    Geometry (in Angstrom), charge = 0, multiplicity = 1:

       Center              X                  Y                   Z               Mass
    ------------   -----------------  -----------------  -----------------  -----------------
         O           -2.451690951858     0.065465446573    -0.383031963549    15.994914619570
         N           -0.622327951858    -1.224706553427    -0.015300963549    14.003074004430
         C            1.927975048142     0.730927446573    -0.024658963549    12.000000000000
         C            1.808650048142    -0.752612553427    -0.370935963549    12.000000000000
         C            0.664896048142     1.562752446573    -0.250147963549    12.000000000000
         C            0.736604048142    -1.493036553427     0.428404036451    12.000000000000
         C           -0.535820951858     1.143986446573     0.612156036451    12.000000000000
         C           -1.424050351858     0.059305446573     0.036183036451    12.000000000000
         H            2.746597048142     1.164695446573    -0.612043963549     1.007825032230
         H            2.224415048142     0.823189446573     1.029635036451     1.007825032230
         H            1.592480048142    -0.878699553427    -1.438705963549     1.007825032230
         H            2.776283048142    -1.234861553427    -0.180184963549     1.007825032230
         H            0.376285048142     1.529565446573    -1.308469963549     1.007825032230
         H            0.900772048142     2.609960446573    -0.027456963549     1.007825032230
         H            0.882303048142    -2.572344553427     0.326144036451     1.007825032230
         H            0.842472048142    -1.264335553427     1.497892036451     1.007825032230
         H           -1.266192951858     1.954183446573     0.670906036451     1.007825032230
         H           -0.202210951858     0.923200446573     1.635178036451     1.007825032230
         H           -1.159170951858    -1.976320553427    -0.433146963549     1.007825032230

  Basis Set: AUG-CC-PVTZ
    Blend: AUG-CC-PVTZ
  Basis Set: (AUG-CC-PVTZ AUX)
    Blend: AUG-CC-PVTZ-JKFIT
	 Reference Energy          =    -363.0453119595949261 [Eh]
	 Singles Energy            =      -0.0000000000000000 [Eh]
	 Same-Spin Energy          =      -0.3760343488381559 [Eh]
	 Opposite-Spin Energy      =      -1.2444442075135749 [Eh]
	 Correlation Energy        =      -1.6204785563517308 [Eh]
	 Total Energy              =    -364.6657905159466395 [Eh]

	 ================> DF-SCS-MP2 Energies <==================
	-----------------------------------------------------------
	 SCS Same-Spin Scale       =       0.3333333333333333 [-]
	 SCS Opposite-Spin Scale   =       1.2000000000000000 [-]
	 SCS Same-Spin Energy      =      -0.1253447829460519 [Eh]
	 SCS Opposite-Spin Energy  =      -1.4933330490162897 [Eh]
	 SCS Correlation Energy    =      -1.6186778319623416 [Eh]
	 SCS Total Energy          =    -364.6639897915572419 [Eh]
	-----------------------------------------------------------

  Dipole Moment: [D]
     X:     2.7753      Y:    -0.1164      Z:     0.7057     Total:     2.8660

*** Psi4 exiting successfully. Buy a developer a beer!
