                               Psi4 1.3.2 release

  ==> Input File <==

--------------------------------------------------------------------------
#psi4
#
memory 32 gb

molecule  {
0 1
  O       -2.5416370     0.0659770    -0.3927070
  N       -0.7122740    -1.2241950    -0.0249760
  C        1.8380290     0.7314390    -0.0343340
  C        1.7187040    -0.7521010    -0.3806110
  C        0.5749500     1.5632640    -0.2598230
  C        0.6466580    -1.4925250     0.4187290
  C       -0.6257670     1.1444980     0.6024810
  C       -1.3375447    -0.1218691     0.0266803
  H        2.6566510     1.1652070    -0.6217190
  H        2.1344690     0.8237010     1.0199600
  H        1.5025340    -0.8781880    -1.4483810
  H        2.6863370    -1.2343500    -0.1898600
  H        0.2863390     1.5300770    -1.3181450
  H        0.8108260     2.6104720    -0.0371320
  H        0.7923570    -2.5718330     0.3164690
  H        0.7525260    -1.2638240     1.4882170
  H       -1.3561390     1.9546950     0.6612310
  H       -0.2921570     0.9237120     1.6255030
  H       -1.2491170    -1.9758090    -0.4428220
units angstrom
no_reorient  #important for SAPT in psi4, default
symmetry c1  #important for SAPT in psi4, default
}

set PROPERTIES_ORIGIN ["COM"]
properties('MP2/aug-cc-pvtz', properties = ['dipole'])
--------------------------------------------------------------------------

    Molecular point group: c1
  Charge       = 0
  Multiplicity = 1
  Basis Set: AUG-CC-PVTZ
    Blend: AUG-CC-PVTZ
  Basis Set: (AUG-CC-PVTZ AUX)
    Blend: AUG-CC-PVTZ-JKFIT

    Orbital Energies [Eh]
    ---------------------

    Doubly Occupied:

       1A    -20.489491     2A    -15.596306     3A    -11.336522
       4A    -11.288211     5A    -11.241236     6A    -11.235566
       7A    -11.235101     8A    -11.233788     9A     -1.344827
      10A     -1.244706    11A     -1.098539    12A     -1.043407
      13A     -0.951980    14A     -0.895361    15A     -0.800782
      16A     -0.781268    17A     -0.702218    18A     -0.666422
      19A     -0.633432    20A     -0.618092    21A     -0.603796
      22A     -0.579788    23A     -0.575590    24A     -0.532808
      25A     -0.524594    26A     -0.509563    27A     -0.483117
      28A     -0.470657    29A     -0.469502    30A     -0.392591
      31A     -0.383659

  @DF-RHF Final Energy:  -363.06025154278962

   => Energetics <=

    Nuclear Repulsion Energy =            394.5886008095547481
    One-Electron Energy =               -1275.3718638647876560
    Two-Electron Energy =                 517.7230115124433496
    Total Energy =                       -363.0602515427896151
  Basis Set: (AUG-CC-PVTZ AUX)
    Blend: AUG-CC-PVTZ-RI
    Molecular point group: c1

    Geometry (in Angstrom), charge = 0, multiplicity = 1:

       Center              X                  Y                   Z               Mass
    ------------   -----------------  -----------------  -----------------  -----------------
         O           -2.470415255933     0.084745202918    -0.383050247292    15.994914619570
         N           -0.641052255933    -1.205426797082    -0.015319247292    14.003074004430
         C            1.909250744067     0.750207202918    -0.024677247292    12.000000000000
         C            1.789925744067    -0.733332797082    -0.370954247292    12.000000000000
         C            0.646171744067     1.582032202918    -0.250166247292    12.000000000000
         C            0.717879744067    -1.473756797082     0.428385752708    12.000000000000
         C           -0.554545255933     1.163266202918     0.612137752708    12.000000000000
         C           -1.266322955933    -0.103100897082     0.036337052708    12.000000000000
         H            2.727872744067     1.183975202918    -0.612062247292     1.007825032230
         H            2.205690744067     0.842469202918     1.029616752708     1.007825032230
         H            1.573755744067    -0.859419797082    -1.438724247292     1.007825032230
         H            2.757558744067    -1.215581797082    -0.180203247292     1.007825032230
         H            0.357560744067     1.548845202918    -1.308488247292     1.007825032230
         H            0.882047744067     2.629240202918    -0.027475247292     1.007825032230
         H            0.863578744067    -2.553064797082     0.326125752708     1.007825032230
         H            0.823747744067    -1.245055797082     1.497873752708     1.007825032230
         H           -1.284917255933     1.973463202918     0.670887752708     1.007825032230
         H           -0.220935255933     0.942480202918     1.635159752708     1.007825032230
         H           -1.177895255933    -1.957040797082    -0.433165247292     1.007825032230

  Basis Set: AUG-CC-PVTZ
    Blend: AUG-CC-PVTZ
  Basis Set: (AUG-CC-PVTZ AUX)
    Blend: AUG-CC-PVTZ-JKFIT
	 Reference Energy          =    -363.0602515427896151 [Eh]
	 Singles Energy            =      -0.0000000000000000 [Eh]
	 Same-Spin Energy          =      -0.3783049784606770 [Eh]
	 Opposite-Spin Energy      =      -1.2488016939337998 [Eh]
	 Correlation Energy        =      -1.6271066723944767 [Eh]
	 Total Energy              =    -364.6873582151840765 [Eh]

	 ================> DF-SCS-MP2 Energies <==================
	-----------------------------------------------------------
	 SCS Same-Spin Scale       =       0.3333333333333333 [-]
	 SCS Opposite-Spin Scale   =       1.2000000000000000 [-]
	 SCS Same-Spin Energy      =      -0.1261016594868923 [Eh]
	 SCS Opposite-Spin Energy  =      -1.4985620327205598 [Eh]
	 SCS Correlation Energy    =      -1.6246636922074520 [Eh]
	 SCS Total Energy          =    -364.6849152349970495 [Eh]
	-----------------------------------------------------------

  Dipole Moment: [D]
     X:     4.7100      Y:    -1.6206      Z:     0.9692     Total:     5.0745

*** Psi4 exiting successfully. Buy a developer a beer!
