                               Psi4 1.3.2 release

  ==> Input File <==

--------------------------------------------------------------------------
#psi4
#
memory 32 gb

molecule  {
0 1
  O       -2.5416370     0.0659770    -0.3927070
  N       -0.7122740    -1.2241950    -0.0249760
  C        1.8380290     0.7314390    -0.0343340
  C        1.7187040    -0.7521010    -0.3806110
  C        0.5749500     1.5632640    -0.2598230
  C        0.6526969    -1.3467620     0.4622644
  C       -0.6257670     1.1444980     0.6024810
  C       -1.3868420    -0.0349600     0.0307530
  H        2.6566510     1.1652070    -0.6217190
  H        2.1344690     0.8237010     1.0199600
  H        1.5025340    -0.8781880    -1.4483810
  H        2.6863370    -1.2343500    -0.1898600
  H        0.2863390     1.5300770    -1.3181450
  H        0.8108260     2.6104720    -0.0371320
  H        0.7923570    -2.5718330     0.3164690
  H        0.7525260    -1.2638240     1.4882170
  H       -1.3561390     1.9546950     0.6612310
  H       -0.2921570     0.9237120     1.6255030
  H       -1.2491170    -1.9758090    -0.4428220
units angstrom
no_reorient  #important for SAPT in psi4, default
symmetry c1  #important for SAPT in psi4, default
}

set PROPERTIES_ORIGIN ["COM"]
properties('MP2/aug-cc-pvtz', properties = ['dipole'])
--------------------------------------------------------------------------

    Molecular point group: c1
  Charge       = 0
  Multiplicity = 1
  Basis Set: AUG-CC-PVTZ
    Blend: AUG-CC-PVTZ
  Basis Set: (AUG-CC-PVTZ AUX)
    Blend: AUG-CC-PVTZ-JKFIT

    Orbital Energies [Eh]
    ---------------------

    Doubly Occupied:

       1A    -20.508748     2A    -15.580856     3A    -11.340471
       4A    -11.282502     5A    -11.237611     6A    -11.236923
       7A    -11.234514     8A    -11.231622     9A     -1.363641
      10A     -1.231151    11A     -1.098651    12A     -1.045759
      13A     -0.946122    14A     -0.883348    15A     -0.802027
      16A     -0.766135    17A     -0.696551    18A     -0.672376
      19A     -0.636163    20A     -0.616943    21A     -0.602531
      22A     -0.577137    23A     -0.567732    24A     -0.552026
      25A     -0.523875    26A     -0.511255    27A     -0.482762
      28A     -0.474461    29A     -0.447918    30A     -0.408122
      31A     -0.388699

  @DF-RHF Final Energy:  -363.05057511849509

   => Energetics <=

    Nuclear Repulsion Energy =            395.7126949498592694
    One-Electron Energy =               -1277.6292743522994897
    Two-Electron Energy =                 518.8660042839451307
    Total Energy =                       -363.0505751184950896
  Basis Set: (AUG-CC-PVTZ AUX)
    Blend: AUG-CC-PVTZ-RI
    Molecular point group: c1

    Geometry (in Angstrom), charge = 0, multiplicity = 1:

       Center              X                  Y                   Z               Mass
    ------------   -----------------  -----------------  -----------------  -----------------
         O           -2.465824858474     0.060055029062    -0.388102216419    15.994914619570
         N           -0.636461858474    -1.230116970938    -0.020371216419    14.003074004430
         C            1.913841141526     0.725517029062    -0.029729216419    12.000000000000
         C            1.794516141526    -0.758022970938    -0.376006216419    12.000000000000
         C            0.650762141526     1.557342029062    -0.255218216419    12.000000000000
         C            0.728509041526    -1.352683970938     0.466869183581    12.000000000000
         C           -0.549954858474     1.138576029062     0.607085783581    12.000000000000
         C           -1.311029858474    -0.040881970938     0.035357783581    12.000000000000
         H            2.732463141526     1.159285029062    -0.617114216419     1.007825032230
         H            2.210281141526     0.817779029062     1.024564783581     1.007825032230
         H            1.578346141526    -0.884109970938    -1.443776216419     1.007825032230
         H            2.762149141526    -1.240271970938    -0.185255216419     1.007825032230
         H            0.362151141526     1.524155029062    -1.313540216419     1.007825032230
         H            0.886638141526     2.604550029062    -0.032527216419     1.007825032230
         H            0.868169141526    -2.577754970938     0.321073783581     1.007825032230
         H            0.828338141526    -1.269745970938     1.492821783581     1.007825032230
         H           -1.280326858474     1.948773029062     0.665835783581     1.007825032230
         H           -0.216344858474     0.917790029062     1.630107783581     1.007825032230
         H           -1.173304858474    -1.981730970938    -0.438217216419     1.007825032230

  Basis Set: AUG-CC-PVTZ
    Blend: AUG-CC-PVTZ
  Basis Set: (AUG-CC-PVTZ AUX)
    Blend: AUG-CC-PVTZ-JKFIT
	 Reference Energy          =    -363.0505751184950896 [Eh]
	 Singles Energy            =      -0.0000000000000000 [Eh]
	 Same-Spin Energy          =      -0.3789313630212070 [Eh]
	 Opposite-Spin Energy      =      -1.2499368967119580 [Eh]
	 Correlation Energy        =      -1.6288682597331650 [Eh]
	 Total Energy              =    -364.6794433782282567 [Eh]

	 ================> DF-SCS-MP2 Energies <==================
	-----------------------------------------------------------
	 SCS Same-Spin Scale       =       0.3333333333333333 [-]
	 SCS Opposite-Spin Scale   =       1.2000000000000000 [-]
	 SCS Same-Spin Energy      =      -0.1263104543404023 [Eh]
	 SCS Opposite-Spin Energy  =      -1.4999242760543494 [Eh]
	 SCS Correlation Energy    =      -1.6262347303947517 [Eh]
	 SCS Total Energy          =    -364.6768098488898318 [Eh]
	-----------------------------------------------------------

  Dipole Moment: [D]
     X:     4.0729      Y:    -0.8916      Z:     0.9104     Total:     4.2676

*** Psi4 exiting successfully. Buy a developer a beer!
