                               Psi4 1.3.2 release

  ==> Input File <==

--------------------------------------------------------------------------
#psi4
#
memory 32 gb

molecule  {
0 1
  O       -2.5416370     0.0659770    -0.3927070
  N       -0.7122740    -1.2241950    -0.0249760
  C        1.8380290     0.7314390    -0.0343340
  C        1.7187040    -0.7521010    -0.3806110
  C        0.5749500     1.5632640    -0.2598230
  C        0.6466580    -1.4925250     0.4187290
  C       -0.6257670     1.1444980     0.6024810
  C       -1.3366279     0.0428580     0.0684744
  H        2.6566510     1.1652070    -0.6217190
  H        2.1344690     0.8237010     1.0199600
  H        1.5025340    -0.8781880    -1.4483810
  H        2.6863370    -1.2343500    -0.1898600
  H        0.2863390     1.5300770    -1.3181450
  H        0.8108260     2.6104720    -0.0371320
  H        0.7923570    -2.5718330     0.3164690
  H        0.7525260    -1.2638240     1.4882170
  H       -1.3561390     1.9546950     0.6612310
  H       -0.2921570     0.9237120     1.6255030
  H       -1.2491170    -1.9758090    -0.4428220
units angstrom
no_reorient  #important for SAPT in psi4, default
symmetry c1  #important for SAPT in psi4, default
}

set PROPERTIES_ORIGIN ["COM"]
properties('MP2/aug-cc-pvtz', properties = ['dipole'])
--------------------------------------------------------------------------

    Molecular point group: c1
  Charge       = 0
  Multiplicity = 1
  Basis Set: AUG-CC-PVTZ
    Blend: AUG-CC-PVTZ
  Basis Set: (AUG-CC-PVTZ AUX)
    Blend: AUG-CC-PVTZ-JKFIT

    Orbital Energies [Eh]
    ---------------------

    Doubly Occupied:

       1A    -20.507398     2A    -15.576605     3A    -11.351733
       4A    -11.272755     5A    -11.243680     6A    -11.239876
       7A    -11.236040     8A    -11.233653     9A     -1.333499
      10A     -1.211797    11A     -1.101799    12A     -1.053255
      13A     -0.952927    14A     -0.890799    15A     -0.797804
      16A     -0.764835    17A     -0.688409    18A     -0.677864
      19A     -0.627841    20A     -0.611810    21A     -0.605970
      22A     -0.589806    23A     -0.566887    24A     -0.544222
      25A     -0.517938    26A     -0.508980    27A     -0.483629
      28A     -0.475067    29A     -0.462801    30A     -0.413846
      31A     -0.373282

  @DF-RHF Final Energy:  -363.05473491986317

   => Energetics <=

    Nuclear Repulsion Energy =            394.0959525844701261
    One-Electron Energy =               -1274.4677657836082290
    Two-Electron Energy =                 517.3170782792749378
    Total Energy =                       -363.0547349198632219
  Basis Set: (AUG-CC-PVTZ AUX)
    Blend: AUG-CC-PVTZ-RI
    Molecular point group: c1

    Geometry (in Angstrom), charge = 0, multiplicity = 1:

       Center              X                  Y                   Z               Mass
    ------------   -----------------  -----------------  -----------------  -----------------
         O           -2.470512542851     0.067265063538    -0.387485259462    15.994914619570
         N           -0.641149542851    -1.222906936462    -0.019754259462    14.003074004430
         C            1.909153457149     0.732727063538    -0.029112259462    12.000000000000
         C            1.789828457149    -0.750812936462    -0.375389259462    12.000000000000
         C            0.646074457149     1.564552063538    -0.254601259462    12.000000000000
         C            0.717782457149    -1.491236936462     0.423950740538    12.000000000000
         C           -0.554642542851     1.145786063538     0.607702740538    12.000000000000
         C           -1.265503442851     0.044146063538     0.073696140538    12.000000000000
         H            2.727775457149     1.166495063538    -0.616497259462     1.007825032230
         H            2.205593457149     0.824989063538     1.025181740538     1.007825032230
         H            1.573658457149    -0.876899936462    -1.443159259462     1.007825032230
         H            2.757461457149    -1.233061936462    -0.184638259462     1.007825032230
         H            0.357463457149     1.531365063538    -1.312923259462     1.007825032230
         H            0.881950457149     2.611760063538    -0.031910259462     1.007825032230
         H            0.863481457149    -2.570544936462     0.321690740538     1.007825032230
         H            0.823650457149    -1.262535936462     1.493438740538     1.007825032230
         H           -1.285014542851     1.955983063538     0.666452740538     1.007825032230
         H           -0.221032542851     0.925000063538     1.630724740538     1.007825032230
         H           -1.177992542851    -1.974520936462    -0.437600259462     1.007825032230

  Basis Set: AUG-CC-PVTZ
    Blend: AUG-CC-PVTZ
  Basis Set: (AUG-CC-PVTZ AUX)
    Blend: AUG-CC-PVTZ-JKFIT
	 Reference Energy          =    -363.0547349198631650 [Eh]
	 Singles Energy            =      -0.0000000000000000 [Eh]
	 Same-Spin Energy          =      -0.3801554845237474 [Eh]
	 Opposite-Spin Energy      =      -1.2521714608859160 [Eh]
	 Correlation Energy        =      -1.6323269454096634 [Eh]
	 Total Energy              =    -364.6870618652728240 [Eh]

	 ================> DF-SCS-MP2 Energies <==================
	-----------------------------------------------------------
	 SCS Same-Spin Scale       =       0.3333333333333333 [-]
	 SCS Opposite-Spin Scale   =       1.2000000000000000 [-]
	 SCS Same-Spin Energy      =      -0.1267184948412491 [Eh]
	 SCS Opposite-Spin Energy  =      -1.5026057530630992 [Eh]
	 SCS Correlation Energy    =      -1.6293242479043484 [Eh]
	 SCS Total Energy          =    -364.6840591677674865 [Eh]
	-----------------------------------------------------------

  Dipole Moment: [D]
     X:     4.2509      Y:    -0.6563      Z:     1.0168     Total:     4.4198

*** Psi4 exiting successfully. Buy a developer a beer!
