                               Psi4 1.3.2 release

  ==> Input File <==

--------------------------------------------------------------------------
#psi4
#
memory 32 gb

molecule  {
0 1
  O       -2.5416370     0.0659770    -0.3927070
  N       -0.7122740    -1.2241950    -0.0249760
  C        1.8380290     0.7314390    -0.0343340
  C        1.7187040    -0.7521010    -0.3806110
  C        0.5749500     1.5632640    -0.2598230
  C        0.6466580    -1.4925250     0.4187290
  C       -0.6257670     1.1444980     0.6024810
  C       -1.3868420    -0.0349600     0.0307530
  H        2.6566510     1.1652070    -0.6217190
  H        2.1344690     0.8237010     1.0199600
  H        1.5025340    -0.8781880    -1.4483810
  H        2.6863370    -1.2343500    -0.1898600
  H        0.2863390     1.5300770    -1.3181450
  H        0.8108260     2.6104720    -0.0371320
  H        0.7923570    -2.5718330     0.3164690
  H        0.7525260    -1.2638240     1.4882170
  H       -1.3561390     1.9546950     0.6612310
  H       -0.2921570     0.9237120     1.6255030
  H       -1.1432063    -1.8275273    -0.3603875
units angstrom
no_reorient  #important for SAPT in psi4, default
symmetry c1  #important for SAPT in psi4, default
}

set PROPERTIES_ORIGIN ["COM"]
properties('MP2/aug-cc-pvtz', properties = ['dipole'])
--------------------------------------------------------------------------

    Molecular point group: c1
  Charge       = 0
  Multiplicity = 1
  Basis Set: AUG-CC-PVTZ
    Blend: AUG-CC-PVTZ
  Basis Set: (AUG-CC-PVTZ AUX)
    Blend: AUG-CC-PVTZ-JKFIT

    Orbital Energies [Eh]
    ---------------------

    Doubly Occupied:

       1A    -20.511406     2A    -15.558236     3A    -11.344319
       4A    -11.278226     5A    -11.237218     6A    -11.236097
       7A    -11.235200     8A    -11.233718     9A     -1.369590
      10A     -1.255073    11A     -1.099903    12A     -1.043290
      13A     -0.957657    14A     -0.891367    15A     -0.813186
      16A     -0.789052    17A     -0.692465    18A     -0.679709
      19A     -0.632739    20A     -0.615566    21A     -0.603599
      22A     -0.593138    23A     -0.572229    24A     -0.550061
      25A     -0.522847    26A     -0.517436    27A     -0.482122
      28A     -0.471849    29A     -0.470240    30A     -0.411976
      31A     -0.387310

  @DF-RHF Final Energy:  -363.03125393305720

   => Energetics <=

    Nuclear Repulsion Energy =            395.5195960150117571
    One-Electron Energy =               -1276.9880553081729886
    Two-Electron Energy =                 518.4372053601040307
    Total Energy =                       -363.0312539330572008
  Basis Set: (AUG-CC-PVTZ AUX)
    Blend: AUG-CC-PVTZ-RI
    Molecular point group: c1

    Geometry (in Angstrom), charge = 0, multiplicity = 1:

       Center              X                  Y                   Z               Mass
    ------------   -----------------  -----------------  -----------------  -----------------
         O           -2.466127930838     0.074201266247    -0.384217095634    15.994914619570
         N           -0.636764930838    -1.215970733753    -0.016486095634    14.003074004430
         C            1.913538069162     0.739663266247    -0.025844095634    12.000000000000
         C            1.794213069162    -0.743876733753    -0.372121095634    12.000000000000
         C            0.650459069162     1.571488266247    -0.251333095634    12.000000000000
         C            0.722167069162    -1.484300733753     0.427218904366    12.000000000000
         C           -0.550257930838     1.152722266247     0.610970904366    12.000000000000
         C           -1.311332930838    -0.026735733753     0.039242904366    12.000000000000
         H            2.732160069162     1.173431266247    -0.613229095634     1.007825032230
         H            2.209978069162     0.831925266247     1.028449904366     1.007825032230
         H            1.578043069162    -0.869963733753    -1.439891095634     1.007825032230
         H            2.761846069162    -1.226125733753    -0.181370095634     1.007825032230
         H            0.361848069162     1.538301266247    -1.309655095634     1.007825032230
         H            0.886335069162     2.618696266247    -0.028642095634     1.007825032230
         H            0.867866069162    -2.563608733753     0.324958904366     1.007825032230
         H            0.828035069162    -1.255599733753     1.496706904366     1.007825032230
         H           -1.280629930838     1.962919266247     0.669720904366     1.007825032230
         H           -0.216647930838     0.931936266247     1.633992904366     1.007825032230
         H           -1.067697230838    -1.819303033753    -0.351897595634     1.007825032230

  Basis Set: AUG-CC-PVTZ
    Blend: AUG-CC-PVTZ
  Basis Set: (AUG-CC-PVTZ AUX)
    Blend: AUG-CC-PVTZ-JKFIT
	 Reference Energy          =    -363.0312539330572008 [Eh]
	 Singles Energy            =      -0.0000000000000000 [Eh]
	 Same-Spin Energy          =      -0.3763583984763593 [Eh]
	 Opposite-Spin Energy      =      -1.2449162967891294 [Eh]
	 Correlation Energy        =      -1.6212746952654888 [Eh]
	 Total Energy              =    -364.6525286283226706 [Eh]

	 ================> DF-SCS-MP2 Energies <==================
	-----------------------------------------------------------
	 SCS Same-Spin Scale       =       0.3333333333333333 [-]
	 SCS Opposite-Spin Scale   =       1.2000000000000000 [-]
	 SCS Same-Spin Energy      =      -0.1254527994921198 [Eh]
	 SCS Opposite-Spin Energy  =      -1.4938995561469552 [Eh]
	 SCS Correlation Energy    =      -1.6193523556390750 [Eh]
	 SCS Total Energy          =    -364.6506062886962809 [Eh]
	-----------------------------------------------------------

  Dipole Moment: [D]
     X:     4.1435      Y:    -0.8912      Z:     0.9601     Total:     4.3457

*** Psi4 exiting successfully. Buy a developer a beer!
