                               Psi4 1.4a3.dev225

  ==> Input File <==

--------------------------------------------------------------------------
#psi4
#
memory 32 gb

molecule  {
0 1
  O       -2.5416370     0.0659770    -0.3927070
  N       -0.7122740    -1.2241950    -0.0249760
  C        1.8380290     0.7314390    -0.0343340
  C        1.7187040    -0.7521010    -0.3806110
  C        0.5749500     1.5632640    -0.2598230
  C        0.6466580    -1.4925250     0.4187290
  C       -0.6413968     1.1390469     0.6137057
  C       -1.3868420    -0.0349600     0.0307530
  H        2.6566510     1.1652070    -0.6217190
  H        2.1344690     0.8237010     1.0199600
  H        1.5025340    -0.8781880    -1.4483810
  H        2.6863370    -1.2343500    -0.1898600
  H        0.2863390     1.5300770    -1.3181450
  H        0.8108260     2.6104720    -0.0371320
  H        0.7923570    -2.5718330     0.3164690
  H        0.7525260    -1.2638240     1.4882170
  H       -1.3561390     1.9546950     0.6612310
  H       -0.2921570     0.9237120     1.6255030
  H       -1.2491170    -1.9758090    -0.4428220
units angstrom
no_reorient  #important for SAPT in psi4, default
symmetry c1  #important for SAPT in psi4, default
}

set PROPERTIES_ORIGIN ["COM"]
properties('MP2/aug-cc-pvtz', properties = ['dipole'])
--------------------------------------------------------------------------

    Molecular point group: c1
  Charge       = 0
  Multiplicity = 1
  Basis Set: AUG-CC-PVTZ
    Blend: AUG-CC-PVTZ
  Basis Set: (AUG-CC-PVTZ AUX)
    Blend: AUG-CC-PVTZ-JKFIT

    Orbital Energies [Eh]
    ---------------------

    Doubly Occupied:

       1A    -20.508596     2A    -15.578639     3A    -11.342620
       4A    -11.277358     5A    -11.237685     6A    -11.235364
       7A    -11.234334     8A    -11.233121     9A     -1.363447
      10A     -1.228200    11A     -1.092475    12A     -1.041586
      13A     -0.946287    14A     -0.888440    15A     -0.795001
      16A     -0.764854    17A     -0.687821    18A     -0.677325
      19A     -0.625576    20A     -0.611488    21A     -0.602355
      22A     -0.591558    23A     -0.571712    24A     -0.543522
      25A     -0.519906    26A     -0.516426    27A     -0.481432
      28A     -0.471256    29A     -0.467258    30A     -0.410945
      31A     -0.382687

  @DF-RHF Final Energy:  -363.07544826650945

   => Energetics <=

    Nuclear Repulsion Energy =            393.9690568724554964
    One-Electron Energy =               -1274.2304663151803652
    Two-Electron Energy =                 517.1859611762154145
    Total Energy =                       -363.0754482665095111
  Basis Set: (AUG-CC-PVTZ AUX)
    Blend: AUG-CC-PVTZ-RI
    Molecular point group: c1

    Geometry (in Angstrom), charge = 0, multiplicity = 1:

       Center              X                  Y                   Z               Mass
    ------------   -----------------  -----------------  -----------------  -----------------
         O           -2.463525468172     0.076101226344    -0.384673542330    15.994914619570
         N           -0.634162468172    -1.214070773656    -0.016942542330    14.003074004430
         C            1.916140531828     0.741563226344    -0.026300542330    12.000000000000
         C            1.796815531828    -0.741976773656    -0.372577542330    12.000000000000
         C            0.653061531828     1.573388226344    -0.251789542330    12.000000000000
         C            0.724769531828    -1.482400773656     0.426762457670    12.000000000000
         C           -0.563285268172     1.149171126344     0.621739157670    12.000000000000
         C           -1.308730468172    -0.024835773656     0.038786457670    12.000000000000
         H            2.734762531828     1.175331226344    -0.613685542330     1.007825032230
         H            2.212580531828     0.833825226344     1.027993457670     1.007825032230
         H            1.580645531828    -0.868063773656    -1.440347542330     1.007825032230
         H            2.764448531828    -1.224225773656    -0.181826542330     1.007825032230
         H            0.364450531828     1.540201226344    -1.310111542330     1.007825032230
         H            0.888937531828     2.620596226344    -0.029098542330     1.007825032230
         H            0.870468531828    -2.561708773656     0.324502457670     1.007825032230
         H            0.830637531828    -1.253699773656     1.496250457670     1.007825032230
         H           -1.278027468172     1.964819226344     0.669264457670     1.007825032230
         H           -0.214045468172     0.933836226344     1.633536457670     1.007825032230
         H           -1.171005468172    -1.965684773656    -0.434788542330     1.007825032230

  Basis Set: AUG-CC-PVTZ
    Blend: AUG-CC-PVTZ
  Basis Set: (AUG-CC-PVTZ AUX)
    Blend: AUG-CC-PVTZ-JKFIT
	 Reference Energy          =    -363.0754482665094542 [Eh]
	 Singles Energy            =      -0.0000000000000000 [Eh]
	 Same-Spin Energy          =      -0.3776216922102447 [Eh]
	 Opposite-Spin Energy      =      -1.2475398450603892 [Eh]
	 Correlation Energy        =      -1.6251615372706338 [Eh]
	 Total Energy              =    -364.7006098037800825 [Eh]

	 ================> DF-SCS-MP2 Energies <==================
	-----------------------------------------------------------
	 SCS Same-Spin Scale       =       0.3333333333333333 [-]
	 SCS Opposite-Spin Scale   =       1.2000000000000000 [-]
	 SCS Same-Spin Energy      =      -0.1258738974034149 [Eh]
	 SCS Opposite-Spin Energy  =      -1.4970478140724670 [Eh]
	 SCS Correlation Energy    =      -1.6229217114758818 [Eh]
	 SCS Total Energy          =    -364.6983699779853509 [Eh]
	-----------------------------------------------------------

  Dipole Moment: [D]
     X:     4.0816      Y:    -1.0270      Z:     0.9059     Total:     4.3052

*** Psi4 exiting successfully. Buy a developer a beer!
