                               Psi4 1.3.2 release

  ==> Input File <==

--------------------------------------------------------------------------
#psi4
#
memory 32 gb

molecule  {
0 1
  O       -2.5416370     0.0659770    -0.3927070
  N       -0.7122740    -1.2241950    -0.0249760
  C        1.8380290     0.7314390    -0.0343340
  C        1.7187040    -0.7521010    -0.3806110
  C        0.5749500     1.5632640    -0.2598230
  C        0.6466580    -1.4925250     0.4187290
  C       -0.6257670     1.1444980     0.6024810
  C       -1.3485603    -0.0151697     0.0513472
  H        2.6566510     1.1652070    -0.6217190
  H        2.1344690     0.8237010     1.0199600
  H        1.5025340    -0.8781880    -1.4483810
  H        2.6863370    -1.2343500    -0.1898600
  H        0.2863390     1.5300770    -1.3181450
  H        0.8108260     2.6104720    -0.0371320
  H        0.7923570    -2.5718330     0.3164690
  H        0.7525260    -1.2638240     1.4882170
  H       -1.3561390     1.9546950     0.6612310
  H       -0.2921570     0.9237120     1.6255030
  H       -1.2491170    -1.9758090    -0.4428220
units angstrom
no_reorient  #important for SAPT in psi4, default
symmetry c1  #important for SAPT in psi4, default
}

set PROPERTIES_ORIGIN ["COM"]
properties('MP2/aug-cc-pvtz', properties = ['dipole'])
--------------------------------------------------------------------------

    Molecular point group: c1
  Charge       = 0
  Multiplicity = 1
  Basis Set: AUG-CC-PVTZ
    Blend: AUG-CC-PVTZ
  Basis Set: (AUG-CC-PVTZ AUX)
    Blend: AUG-CC-PVTZ-JKFIT

    Orbital Energies [Eh]
    ---------------------

    Doubly Occupied:

       1A    -20.503427     2A    -15.582087     3A    -11.345939
       4A    -11.277492     5A    -11.239530     6A    -11.238184
       7A    -11.235712     8A    -11.234879     9A     -1.341110
      10A     -1.224503    11A     -1.097712    12A     -1.047596
      13A     -0.950158    14A     -0.892060    15A     -0.797882
      16A     -0.768747    17A     -0.687596    18A     -0.678254
      19A     -0.628025    20A     -0.612704    21A     -0.604163
      22A     -0.587106    23A     -0.569933    24A     -0.542454
      25A     -0.515941    26A     -0.514990    27A     -0.483023
      28A     -0.473071    29A     -0.466458    30A     -0.409977
      31A     -0.378733

  @DF-RHF Final Energy:  -363.06834418445851

   => Energetics <=

    Nuclear Repulsion Energy =            394.1858453659980910
    One-Electron Energy =               -1274.6494837233653925
    Two-Electron Energy =                 517.3952941729087343
    Total Energy =                       -363.0683441844585104
  Basis Set: (AUG-CC-PVTZ AUX)
    Blend: AUG-CC-PVTZ-RI
    Molecular point group: c1

    Geometry (in Angstrom), charge = 0, multiplicity = 1:

       Center              X                  Y                   Z               Mass
    ------------   -----------------  -----------------  -----------------  -----------------
         O           -2.469246327303     0.073422716310    -0.385667793828    15.994914619570
         N           -0.639883327303    -1.216749283690    -0.017936793828    14.003074004430
         C            1.910419672697     0.738884716310    -0.027294793828    12.000000000000
         C            1.791094672697    -0.744655283690    -0.373571793828    12.000000000000
         C            0.647340672697     1.570709716310    -0.252783793828    12.000000000000
         C            0.719048672697    -1.485079283690     0.425768206172    12.000000000000
         C           -0.553376327303     1.151943716310     0.609520206172    12.000000000000
         C           -1.276169627303    -0.007723983690     0.058386406172    12.000000000000
         H            2.729041672697     1.172652716310    -0.614679793828     1.007825032230
         H            2.206859672697     0.831146716310     1.026999206172     1.007825032230
         H            1.574924672697    -0.870742283690    -1.441341793828     1.007825032230
         H            2.758727672697    -1.226904283690    -0.182820793828     1.007825032230
         H            0.358729672697     1.537522716310    -1.311105793828     1.007825032230
         H            0.883216672697     2.617917716310    -0.030092793828     1.007825032230
         H            0.864747672697    -2.564387283690     0.323508206172     1.007825032230
         H            0.824916672697    -1.256378283690     1.495256206172     1.007825032230
         H           -1.283748327303     1.962140716310     0.668270206172     1.007825032230
         H           -0.219766327303     0.931157716310     1.632542206172     1.007825032230
         H           -1.176726327303    -1.968363283690    -0.435782793828     1.007825032230

  Basis Set: AUG-CC-PVTZ
    Blend: AUG-CC-PVTZ
  Basis Set: (AUG-CC-PVTZ AUX)
    Blend: AUG-CC-PVTZ-JKFIT
	 Reference Energy          =    -363.0683441844585104 [Eh]
	 Singles Energy            =      -0.0000000000000000 [Eh]
	 Same-Spin Energy          =      -0.3789161439139634 [Eh]
	 Opposite-Spin Energy      =      -1.2498757159336966 [Eh]
	 Correlation Energy        =      -1.6287918598476601 [Eh]
	 Total Energy              =    -364.6971360443061485 [Eh]

	 ================> DF-SCS-MP2 Energies <==================
	-----------------------------------------------------------
	 SCS Same-Spin Scale       =       0.3333333333333333 [-]
	 SCS Opposite-Spin Scale   =       1.2000000000000000 [-]
	 SCS Same-Spin Energy      =      -0.1263053813046545 [Eh]
	 SCS Opposite-Spin Energy  =      -1.4998508591204358 [Eh]
	 SCS Correlation Energy    =      -1.6261562404250902 [Eh]
	 SCS Total Energy          =    -364.6945004248835858 [Eh]
	-----------------------------------------------------------

  Dipole Moment: [D]
     X:     4.3171      Y:    -0.9862      Z:     0.9766     Total:     4.5347

*** Psi4 exiting successfully. Buy a developer a beer!
