                               Psi4 1.4a3.dev225

  ==> Input File <==

--------------------------------------------------------------------------
#psi4
#
memory 32 gb

molecule  {
0 1
  O       -2.5416370     0.0659770    -0.3927070
  N       -0.7122740    -1.2241950    -0.0249760
  C        1.8380290     0.7314390    -0.0343340
  C        1.7187040    -0.7521010    -0.3806110
  C        0.5749500     1.5632640    -0.2598230
  C        0.6466580    -1.4925250     0.4187290
  C       -0.6257670     1.1444980     0.6024810
  C       -1.3868420    -0.0349600     0.0307530
  H        2.6566510     1.1652070    -0.6217190
  H        2.1344690     0.8237010     1.0199600
  H        1.5025340    -0.8781880    -1.4483810
  H        2.6863370    -1.2343500    -0.1898600
  H        0.2863390     1.5300770    -1.3181450
  H        0.8108260     2.6104720    -0.0371320
  H        0.7923570    -2.5718330     0.3164690
  H        0.7525260    -1.2638240     1.4882170
  H       -1.3561390     1.9546950     0.6612310
  H       -0.2921570     0.9237120     1.6255030
  H       -1.2385259    -1.9609808    -0.4345786
units angstrom
no_reorient  #important for SAPT in psi4, default
symmetry c1  #important for SAPT in psi4, default
}

set PROPERTIES_ORIGIN ["COM"]
properties('MP2/aug-cc-pvtz', properties = ['dipole'])
--------------------------------------------------------------------------

    Molecular point group: c1
  Charge       = 0
  Multiplicity = 1
  Basis Set: AUG-CC-PVTZ
    Blend: AUG-CC-PVTZ
  Basis Set: (AUG-CC-PVTZ AUX)
    Blend: AUG-CC-PVTZ-JKFIT

    Orbital Energies [Eh]
    ---------------------

    Doubly Occupied:

       1A    -20.509289     2A    -15.576875     3A    -11.343148
       4A    -11.277420     5A    -11.236704     6A    -11.235962
       7A    -11.234445     8A    -11.233113     9A     -1.363916
      10A     -1.230232    11A     -1.094463    12A     -1.042289
      13A     -0.946323    14A     -0.888778    15A     -0.795962
      16A     -0.767457    17A     -0.688383    18A     -0.677211
      19A     -0.626911    20A     -0.612317    21A     -0.602119
      22A     -0.591959    23A     -0.570269    24A     -0.545745
      25A     -0.519771    26A     -0.516008    27A     -0.481335
      28A     -0.470701    29A     -0.469509    30A     -0.410727
      31A     -0.383169

  @DF-RHF Final Energy:  -363.07591353971014

   => Energetics <=

    Nuclear Repulsion Energy =            394.2123719510755109
    One-Electron Energy =               -1274.6915527953078708
    Two-Electron Energy =                 517.4032673045221600
    Total Energy =                       -363.0759135397102000
  Basis Set: (AUG-CC-PVTZ AUX)
    Blend: AUG-CC-PVTZ-RI
    Molecular point group: c1

    Geometry (in Angstrom), charge = 0, multiplicity = 1:

       Center              X                  Y                   Z               Mass
    ------------   -----------------  -----------------  -----------------  -----------------
         O           -2.465278425828     0.075390627270    -0.383555891526    15.994914619570
         N           -0.635915425828    -1.214781372730    -0.015824891526    14.003074004430
         C            1.914387574172     0.740852627270    -0.025182891526    12.000000000000
         C            1.795062574172    -0.742687372730    -0.371459891526    12.000000000000
         C            0.651308574172     1.572677627270    -0.250671891526    12.000000000000
         C            0.723016574172    -1.483111372730     0.427880108474    12.000000000000
         C           -0.549408425828     1.153911627270     0.611632108474    12.000000000000
         C           -1.310483425828    -0.025546372730     0.039904108474    12.000000000000
         H            2.733009574172     1.174620627270    -0.612567891526     1.007825032230
         H            2.210827574172     0.833114627270     1.029111108474     1.007825032230
         H            1.578892574172    -0.868774372730    -1.439229891526     1.007825032230
         H            2.762695574172    -1.224936372730    -0.180708891526     1.007825032230
         H            0.362697574172     1.539490627270    -1.308993891526     1.007825032230
         H            0.887184574172     2.619885627270    -0.027980891526     1.007825032230
         H            0.868715574172    -2.562419372730     0.325620108474     1.007825032230
         H            0.828884574172    -1.254410372730     1.497368108474     1.007825032230
         H           -1.279780425828     1.964108627270     0.670382108474     1.007825032230
         H           -0.215798425828     0.933125627270     1.634654108474     1.007825032230
         H           -1.162167325828    -1.951567172730    -0.425427491526     1.007825032230

  Basis Set: AUG-CC-PVTZ
    Blend: AUG-CC-PVTZ
  Basis Set: (AUG-CC-PVTZ AUX)
    Blend: AUG-CC-PVTZ-JKFIT
	 Reference Energy          =    -363.0759135397101431 [Eh]
	 Singles Energy            =      -0.0000000000000000 [Eh]
	 Same-Spin Energy          =      -0.3775676078780279 [Eh]
	 Opposite-Spin Energy      =      -1.2473048398625488 [Eh]
	 Correlation Energy        =      -1.6248724477405767 [Eh]
	 Total Energy              =    -364.7007859874507290 [Eh]

	 ================> DF-SCS-MP2 Energies <==================
	-----------------------------------------------------------
	 SCS Same-Spin Scale       =       0.3333333333333333 [-]
	 SCS Opposite-Spin Scale   =       1.2000000000000000 [-]
	 SCS Same-Spin Energy      =      -0.1258558692926759 [Eh]
	 SCS Opposite-Spin Energy  =      -1.4967658078350585 [Eh]
	 SCS Correlation Energy    =      -1.6226216771277344 [Eh]
	 SCS Total Energy          =    -364.6985352168378540 [Eh]
	-----------------------------------------------------------

  Dipole Moment: [D]
     X:     4.0795      Y:    -1.0224      Z:     0.9024     Total:     4.3014

*** Psi4 exiting successfully. Buy a developer a beer!
