                               Psi4 1.3.2 release

  ==> Input File <==

--------------------------------------------------------------------------
#psi4
#
memory 32 gb

molecule  {
0 1
  O       -2.5416370     0.0659770    -0.3927070
  N       -0.7122740    -1.2241950    -0.0249760
  C        1.8380290     0.7314390    -0.0343340
  C        1.7187040    -0.7521010    -0.3806110
  C        0.5749500     1.5632640    -0.2598230
  C        0.6466580    -1.4925250     0.4187290
  C       -0.6257670     1.1444980     0.6024810
  C       -1.3868420    -0.0349600     0.0307530
  H        2.6752120     1.1726909    -0.5890764
  H        2.1344690     0.8237010     1.0199600
  H        1.5025340    -0.8781880    -1.4483810
  H        2.6863370    -1.2343500    -0.1898600
  H        0.2863390     1.5300770    -1.3181450
  H        0.8108260     2.6104720    -0.0371320
  H        0.7923570    -2.5718330     0.3164690
  H        0.7525260    -1.2638240     1.4882170
  H       -1.3561390     1.9546950     0.6612310
  H       -0.2921570     0.9237120     1.6255030
  H       -1.2491170    -1.9758090    -0.4428220
units angstrom
no_reorient  #important for SAPT in psi4, default
symmetry c1  #important for SAPT in psi4, default
}

set PROPERTIES_ORIGIN ["COM"]
properties('MP2/aug-cc-pvtz', properties = ['dipole'])
--------------------------------------------------------------------------

    Molecular point group: c1
  Charge       = 0
  Multiplicity = 1
  Basis Set: AUG-CC-PVTZ
    Blend: AUG-CC-PVTZ
  Basis Set: (AUG-CC-PVTZ AUX)
    Blend: AUG-CC-PVTZ-JKFIT

    Orbital Energies [Eh]
    ---------------------

    Doubly Occupied:

       1A    -20.509104     2A    -15.578719     3A    -11.343082
       4A    -11.277471     5A    -11.236822     6A    -11.236097
       7A    -11.234528     8A    -11.232971     9A     -1.363501
      10A     -1.228322    11A     -1.093830    12A     -1.042237
      13A     -0.945409    14A     -0.888553    15A     -0.796219
      16A     -0.764140    17A     -0.687777    18A     -0.676733
      19A     -0.625923    20A     -0.611973    21A     -0.601696
      22A     -0.592122    23A     -0.569494    24A     -0.545210
      25A     -0.519047    26A     -0.515794    27A     -0.481411
      28A     -0.470645    29A     -0.469560    30A     -0.410656
      31A     -0.382845

  @DF-RHF Final Energy:  -363.07533554053731

   => Energetics <=

    Nuclear Repulsion Energy =            394.0583319438486001
    One-Electron Energy =               -1274.4035536706128369
    Two-Electron Energy =                 517.2698861862270405
    Total Energy =                       -363.0753355405372531
  Basis Set: (AUG-CC-PVTZ AUX)
    Blend: AUG-CC-PVTZ-RI
    Molecular point group: c1

    Geometry (in Angstrom), charge = 0, multiplicity = 1:

       Center              X                  Y                   Z               Mass
    ------------   -----------------  -----------------  -----------------  -----------------
         O           -2.465349454976     0.075456080961    -0.383773341480    15.994914619570
         N           -0.635986454976    -1.214715919039    -0.016042341480    14.003074004430
         C            1.914316545024     0.740918080961    -0.025400341480    12.000000000000
         C            1.794991545024    -0.742621919039    -0.371677341480    12.000000000000
         C            0.651237545024     1.572743080961    -0.250889341480    12.000000000000
         C            0.722945545024    -1.483045919039     0.427662658520    12.000000000000
         C           -0.549479454976     1.153977080961     0.611414658520    12.000000000000
         C           -1.310554454976    -0.025480919039     0.039686658520    12.000000000000
         H            2.751499545024     1.182169980961    -0.580142741480     1.007825032230
         H            2.210756545024     0.833180080961     1.028893658520     1.007825032230
         H            1.578821545024    -0.868708919039    -1.439447341480     1.007825032230
         H            2.762624545024    -1.224870919039    -0.180926341480     1.007825032230
         H            0.362626545024     1.539556080961    -1.309211341480     1.007825032230
         H            0.887113545024     2.619951080961    -0.028198341480     1.007825032230
         H            0.868644545024    -2.562353919039     0.325402658520     1.007825032230
         H            0.828813545024    -1.254344919039     1.497150658520     1.007825032230
         H           -1.279851454976     1.964174080961     0.670164658520     1.007825032230
         H           -0.215869454976     0.933191080961     1.634436658520     1.007825032230
         H           -1.172829454976    -1.966329919039    -0.433888341480     1.007825032230

  Basis Set: AUG-CC-PVTZ
    Blend: AUG-CC-PVTZ
  Basis Set: (AUG-CC-PVTZ AUX)
    Blend: AUG-CC-PVTZ-JKFIT
	 Reference Energy          =    -363.0753355405373100 [Eh]
	 Singles Energy            =      -0.0000000000000000 [Eh]
	 Same-Spin Energy          =      -0.3777340875566003 [Eh]
	 Opposite-Spin Energy      =      -1.2476536936225058 [Eh]
	 Correlation Energy        =      -1.6253877811791062 [Eh]
	 Total Energy              =    -364.7007233217163957 [Eh]

	 ================> DF-SCS-MP2 Energies <==================
	-----------------------------------------------------------
	 SCS Same-Spin Scale       =       0.3333333333333333 [-]
	 SCS Opposite-Spin Scale   =       1.2000000000000000 [-]
	 SCS Same-Spin Energy      =      -0.1259113625188668 [Eh]
	 SCS Opposite-Spin Energy  =      -1.4971844323470069 [Eh]
	 SCS Correlation Energy    =      -1.6230957948658737 [Eh]
	 SCS Total Energy          =    -364.6984313354031997 [Eh]
	-----------------------------------------------------------

  Dipole Moment: [D]
     X:     4.0765      Y:    -1.0346      Z:     0.9058     Total:     4.3021

*** Psi4 exiting successfully. Buy a developer a beer!
