                               Psi4 1.3.2 release

  ==> Input File <==

--------------------------------------------------------------------------
#psi4
#
memory 32 gb

molecule  {
0 1
  O       -2.5416370     0.0659770    -0.3927070
  N       -0.7122740    -1.2241950    -0.0249760
  C        1.8380290     0.7314390    -0.0343340
  C        1.7187040    -0.7521010    -0.3806110
  C        0.5947702     1.6404591    -0.1880669
  C        0.6466580    -1.4925250     0.4187290
  C       -0.6257670     1.1444980     0.6024810
  C       -1.3868420    -0.0349600     0.0307530
  H        2.6566510     1.1652070    -0.6217190
  H        2.1344690     0.8237010     1.0199600
  H        1.5025340    -0.8781880    -1.4483810
  H        2.6863370    -1.2343500    -0.1898600
  H        0.2863390     1.5300770    -1.3181450
  H        0.8108260     2.6104720    -0.0371320
  H        0.7923570    -2.5718330     0.3164690
  H        0.7525260    -1.2638240     1.4882170
  H       -1.3561390     1.9546950     0.6612310
  H       -0.2921570     0.9237120     1.6255030
  H       -1.2491170    -1.9758090    -0.4428220
units angstrom
no_reorient  #important for SAPT in psi4, default
symmetry c1  #important for SAPT in psi4, default
}

set PROPERTIES_ORIGIN ["COM"]
properties('MP2/aug-cc-pvtz', properties = ['dipole'])
--------------------------------------------------------------------------

    Molecular point group: c1
  Charge       = 0
  Multiplicity = 1
  Basis Set: AUG-CC-PVTZ
    Blend: AUG-CC-PVTZ
  Basis Set: (AUG-CC-PVTZ AUX)
    Blend: AUG-CC-PVTZ-JKFIT

    Orbital Energies [Eh]
    ---------------------

    Doubly Occupied:

       1A    -20.510445     2A    -15.579471     3A    -11.345402
       4A    -11.277791     5A    -11.237368     6A    -11.236417
       7A    -11.236365     8A    -11.233929     9A     -1.364471
      10A     -1.228731    11A     -1.092015    12A     -1.042904
      13A     -0.944911    14A     -0.893574    15A     -0.796260
      16A     -0.763309    17A     -0.689062    18A     -0.676743
      19A     -0.633636    20A     -0.608989    21A     -0.604600
      22A     -0.592214    23A     -0.572061    24A     -0.548572
      25A     -0.521019    26A     -0.509257    27A     -0.485684
      28A     -0.466102    29A     -0.460031    30A     -0.413067
      31A     -0.383273

  @DF-RHF Final Energy:  -363.06214540224465

   => Energetics <=

    Nuclear Repulsion Energy =            393.2269387459141967
    One-Electron Energy =               -1272.6828221871685400
    Two-Electron Energy =                 516.3937380390096905
    Total Energy =                       -363.0621454022447097
  Basis Set: (AUG-CC-PVTZ AUX)
    Blend: AUG-CC-PVTZ-RI
    Molecular point group: c1

    Geometry (in Angstrom), charge = 0, multiplicity = 1:

       Center              X                  Y                   Z               Mass
    ------------   -----------------  -----------------  -----------------  -----------------
         O           -2.467287271427     0.067331163037    -0.391096877100    15.994914619570
         N           -0.637924271427    -1.222840836963    -0.023365877100    14.003074004430
         C            1.912378728573     0.732793163037    -0.032723877100    12.000000000000
         C            1.793053728573    -0.750746836963    -0.379000877100    12.000000000000
         C            0.669119928573     1.641813263037    -0.186456777100    12.000000000000
         C            0.721007728573    -1.491170836963     0.420339122900    12.000000000000
         C           -0.551417271427     1.145852163037     0.604091122900    12.000000000000
         C           -1.312492271427    -0.033605836963     0.032363122900    12.000000000000
         H            2.731000728573     1.166561163037    -0.620108877100     1.007825032230
         H            2.208818728573     0.825055163037     1.021570122900     1.007825032230
         H            1.576883728573    -0.876833836963    -1.446770877100     1.007825032230
         H            2.760686728573    -1.232995836963    -0.188249877100     1.007825032230
         H            0.360688728573     1.531431163037    -1.316534877100     1.007825032230
         H            0.885175728573     2.611826163037    -0.035521877100     1.007825032230
         H            0.866706728573    -2.570478836963     0.318079122900     1.007825032230
         H            0.826875728573    -1.262469836963     1.489827122900     1.007825032230
         H           -1.281789271427     1.956049163037     0.662841122900     1.007825032230
         H           -0.217807271427     0.925066163037     1.627113122900     1.007825032230
         H           -1.174767271427    -1.974454836963    -0.441211877100     1.007825032230

  Basis Set: AUG-CC-PVTZ
    Blend: AUG-CC-PVTZ
  Basis Set: (AUG-CC-PVTZ AUX)
    Blend: AUG-CC-PVTZ-JKFIT
	 Reference Energy          =    -363.0621454022446528 [Eh]
	 Singles Energy            =      -0.0000000000000000 [Eh]
	 Same-Spin Energy          =      -0.3777920166300600 [Eh]
	 Opposite-Spin Energy      =      -1.2482371460263562 [Eh]
	 Correlation Energy        =      -1.6260291626564163 [Eh]
	 Total Energy              =    -364.6881745649010895 [Eh]

	 ================> DF-SCS-MP2 Energies <==================
	-----------------------------------------------------------
	 SCS Same-Spin Scale       =       0.3333333333333333 [-]
	 SCS Opposite-Spin Scale   =       1.2000000000000000 [-]
	 SCS Same-Spin Energy      =      -0.1259306722100200 [Eh]
	 SCS Opposite-Spin Energy  =      -1.4978845752316274 [Eh]
	 SCS Correlation Energy    =      -1.6238152474416474 [Eh]
	 SCS Total Energy          =    -364.6859606496863080 [Eh]
	-----------------------------------------------------------

  Dipole Moment: [D]
     X:     4.0686      Y:    -1.0511      Z:     0.9228     Total:     4.3024

*** Psi4 exiting successfully. Buy a developer a beer!
