                               Psi4 1.4a3.dev225

  ==> Input File <==

--------------------------------------------------------------------------
#psi4
#
memory 32 gb

molecule  {
0 1
  O       -2.5416370     0.0659770    -0.3927070
  N       -0.7122740    -1.2241950    -0.0249760
  C        1.8380290     0.7314390    -0.0343340
  C        1.7187040    -0.7521010    -0.3806110
  C        0.5749500     1.5632640    -0.2598230
  C        0.6466580    -1.4925250     0.4187290
  C       -0.6257670     1.1444980     0.6024810
  C       -1.3868420    -0.0349600     0.0307530
  H        2.6417257     1.1572984    -0.6110097
  H        2.1344690     0.8237010     1.0199600
  H        1.5025340    -0.8781880    -1.4483810
  H        2.6863370    -1.2343500    -0.1898600
  H        0.2863390     1.5300770    -1.3181450
  H        0.8108260     2.6104720    -0.0371320
  H        0.7923570    -2.5718330     0.3164690
  H        0.7525260    -1.2638240     1.4882170
  H       -1.3561390     1.9546950     0.6612310
  H       -0.2921570     0.9237120     1.6255030
  H       -1.2491170    -1.9758090    -0.4428220
units angstrom
no_reorient  #important for SAPT in psi4, default
symmetry c1  #important for SAPT in psi4, default
}

set PROPERTIES_ORIGIN ["COM"]
properties('MP2/aug-cc-pvtz', properties = ['dipole'])
--------------------------------------------------------------------------

    Molecular point group: c1
  Charge       = 0
  Multiplicity = 1
  Basis Set: AUG-CC-PVTZ
    Blend: AUG-CC-PVTZ
  Basis Set: (AUG-CC-PVTZ AUX)
    Blend: AUG-CC-PVTZ-JKFIT

    Orbital Energies [Eh]
    ---------------------

    Doubly Occupied:

       1A    -20.508962     2A    -15.578566     3A    -11.342929
       4A    -11.277181     5A    -11.236483     6A    -11.235794
       7A    -11.234140     8A    -11.230607     9A     -1.363356
      10A     -1.228152    11A     -1.094365    12A     -1.042104
      13A     -0.946193    14A     -0.888462    15A     -0.796343
      16A     -0.764007    17A     -0.687821    18A     -0.677409
      19A     -0.627116    20A     -0.611748    21A     -0.601729
      22A     -0.591874    23A     -0.570685    24A     -0.545106
      25A     -0.519743    26A     -0.515689    27A     -0.481041
      28A     -0.471470    29A     -0.469483    30A     -0.410515
      31A     -0.382693

  @DF-RHF Final Energy:  -363.07554889254959

   => Energetics <=

    Nuclear Repulsion Energy =            394.1886889931902829
    One-Electron Energy =               -1274.6649434359330826
    Two-Electron Energy =                 517.4007055501932655
    Total Energy =                       -363.0755488925495911
  Basis Set: (AUG-CC-PVTZ AUX)
    Blend: AUG-CC-PVTZ-RI
    Molecular point group: c1

    Geometry (in Angstrom), charge = 0, multiplicity = 1:

       Center              X                  Y                   Z               Mass
    ------------   -----------------  -----------------  -----------------  -----------------
         O           -2.465051019191     0.075593261623    -0.383577868059    15.994914619570
         N           -0.635688019191    -1.214578738377    -0.015846868059    14.003074004430
         C            1.914614980809     0.741055261623    -0.025204868059    12.000000000000
         C            1.795289980809    -0.742484738377    -0.371481868059    12.000000000000
         C            0.651535980809     1.572880261623    -0.250693868059    12.000000000000
         C            0.723243980809    -1.482908738377     0.427858131941    12.000000000000
         C           -0.549181019191     1.154114261623     0.611610131941    12.000000000000
         C           -1.310256019191    -0.025343738377     0.039882131941    12.000000000000
         H            2.718311680809     1.166914661623    -0.601880568059     1.007825032230
         H            2.211054980809     0.833317261623     1.029089131941     1.007825032230
         H            1.579119980809    -0.868571738377    -1.439251868059     1.007825032230
         H            2.762922980809    -1.224733738377    -0.180730868059     1.007825032230
         H            0.362924980809     1.539693261623    -1.309015868059     1.007825032230
         H            0.887411980809     2.620088261623    -0.028002868059     1.007825032230
         H            0.868942980809    -2.562216738377     0.325598131941     1.007825032230
         H            0.829111980809    -1.254207738377     1.497346131941     1.007825032230
         H           -1.279553019191     1.964311261623     0.670360131941     1.007825032230
         H           -0.215571019191     0.933328261623     1.634632131941     1.007825032230
         H           -1.172531019191    -1.966192738377    -0.433692868059     1.007825032230

  Basis Set: AUG-CC-PVTZ
    Blend: AUG-CC-PVTZ
  Basis Set: (AUG-CC-PVTZ AUX)
    Blend: AUG-CC-PVTZ-JKFIT
	 Reference Energy          =    -363.0755488925495911 [Eh]
	 Singles Energy            =      -0.0000000000000000 [Eh]
	 Same-Spin Energy          =      -0.3777196759910744 [Eh]
	 Opposite-Spin Energy      =      -1.2475306234925658 [Eh]
	 Correlation Energy        =      -1.6252502994836402 [Eh]
	 Total Energy              =    -364.7007991920332302 [Eh]

	 ================> DF-SCS-MP2 Energies <==================
	-----------------------------------------------------------
	 SCS Same-Spin Scale       =       0.3333333333333333 [-]
	 SCS Opposite-Spin Scale   =       1.2000000000000000 [-]
	 SCS Same-Spin Energy      =      -0.1259065586636914 [Eh]
	 SCS Opposite-Spin Energy  =      -1.4970367481910789 [Eh]
	 SCS Correlation Energy    =      -1.6229433068547703 [Eh]
	 SCS Total Energy          =    -364.6984921994043702 [Eh]
	-----------------------------------------------------------

  Dipole Moment: [D]
     X:     4.0862      Y:    -1.0296      Z:     0.8906     Total:     4.3070

*** Psi4 exiting successfully. Buy a developer a beer!
