                               Psi4 1.3.2 release

  ==> Input File <==

--------------------------------------------------------------------------
#psi4
#
memory 32 gb

molecule  {
0 1
  O       -2.5416370     0.0659770    -0.3927070
  N       -0.7122740    -1.2241950    -0.0249760
  C        1.8380290     0.7314390    -0.0343340
  C        1.7187040    -0.7521010    -0.3806110
  C        0.5749500     1.5632640    -0.2598230
  C        0.6466580    -1.4925250     0.4187290
  C       -0.6257670     1.1444980     0.6024810
  C       -1.2932698    -0.0431388     0.0650656
  H        2.6566510     1.1652070    -0.6217190
  H        2.1344690     0.8237010     1.0199600
  H        1.5025340    -0.8781880    -1.4483810
  H        2.6863370    -1.2343500    -0.1898600
  H        0.2863390     1.5300770    -1.3181450
  H        0.8108260     2.6104720    -0.0371320
  H        0.7923570    -2.5718330     0.3164690
  H        0.7525260    -1.2638240     1.4882170
  H       -1.3561390     1.9546950     0.6612310
  H       -0.2921570     0.9237120     1.6255030
  H       -1.2491170    -1.9758090    -0.4428220
units angstrom
no_reorient  #important for SAPT in psi4, default
symmetry c1  #important for SAPT in psi4, default
}

set PROPERTIES_ORIGIN ["COM"]
properties('MP2/aug-cc-pvtz', properties = ['dipole'])
--------------------------------------------------------------------------

    Molecular point group: c1
  Charge       = 0
  Multiplicity = 1
  Basis Set: AUG-CC-PVTZ
    Blend: AUG-CC-PVTZ
  Basis Set: (AUG-CC-PVTZ AUX)
    Blend: AUG-CC-PVTZ-JKFIT

    Orbital Energies [Eh]
    ---------------------

    Doubly Occupied:

       1A    -20.489234     2A    -15.593785     3A    -11.344303
       4A    -11.282833     5A    -11.240358     6A    -11.239954
       7A    -11.239348     8A    -11.237247     9A     -1.323987
      10A     -1.223038    11A     -1.101947    12A     -1.051126
      13A     -0.956277    14A     -0.898397    15A     -0.802245
      16A     -0.781451    17A     -0.693893    18A     -0.676534
      19A     -0.634133    20A     -0.616444    21A     -0.607145
      22A     -0.582536    23A     -0.571200    24A     -0.536415
      25A     -0.516471    26A     -0.508420    27A     -0.485082
      28A     -0.475677    29A     -0.463773    30A     -0.398547
      31A     -0.374239

  @DF-RHF Final Energy:  -363.05435685201059

   => Energetics <=

    Nuclear Repulsion Energy =            394.5653001713768617
    One-Electron Energy =               -1275.3472327908295938
    Two-Electron Energy =                 517.7275757674420902
    Total Energy =                       -363.0543568520106419
  Basis Set: (AUG-CC-PVTZ AUX)
    Blend: AUG-CC-PVTZ-RI
    Molecular point group: c1

    Geometry (in Angstrom), charge = 0, multiplicity = 1:

       Center              X                  Y                   Z               Mass
    ------------   -----------------  -----------------  -----------------  -----------------
         O           -2.475113520050     0.076390678268    -0.387123532101    15.994914619570
         N           -0.645750520050    -1.213781321732    -0.019392532101    14.003074004430
         C            1.904552479950     0.741852678268    -0.028750532101    12.000000000000
         C            1.785227479950    -0.741687321732    -0.375027532101    12.000000000000
         C            0.641473479950     1.573677678268    -0.254239532101    12.000000000000
         C            0.713181479950    -1.482111321732     0.424312467899    12.000000000000
         C           -0.559243520050     1.154911678268     0.608064467899    12.000000000000
         C           -1.226746320050    -0.032725121732     0.070649067899    12.000000000000
         H            2.723174479950     1.175620678268    -0.616135532101     1.007825032230
         H            2.200992479950     0.834114678268     1.025543467899     1.007825032230
         H            1.569057479950    -0.867774321732    -1.442797532101     1.007825032230
         H            2.752860479950    -1.223936321732    -0.184276532101     1.007825032230
         H            0.352862479950     1.540490678268    -1.312561532101     1.007825032230
         H            0.877349479950     2.620885678268    -0.031548532101     1.007825032230
         H            0.858880479950    -2.561419321732     0.322052467899     1.007825032230
         H            0.819049479950    -1.253410321732     1.493800467899     1.007825032230
         H           -1.289615520050     1.965108678268     0.666814467899     1.007825032230
         H           -0.225633520050     0.934125678268     1.631086467899     1.007825032230
         H           -1.182593520050    -1.965395321732    -0.437238532101     1.007825032230

  Basis Set: AUG-CC-PVTZ
    Blend: AUG-CC-PVTZ
  Basis Set: (AUG-CC-PVTZ AUX)
    Blend: AUG-CC-PVTZ-JKFIT
	 Reference Energy          =    -363.0543568520105850 [Eh]
	 Singles Energy            =      -0.0000000000000000 [Eh]
	 Same-Spin Energy          =      -0.3800195272327958 [Eh]
	 Opposite-Spin Energy      =      -1.2519213520810120 [Eh]
	 Correlation Energy        =      -1.6319408793138077 [Eh]
	 Total Energy              =    -364.6862977313243732 [Eh]

	 ================> DF-SCS-MP2 Energies <==================
	-----------------------------------------------------------
	 SCS Same-Spin Scale       =       0.3333333333333333 [-]
	 SCS Opposite-Spin Scale   =       1.2000000000000000 [-]
	 SCS Same-Spin Energy      =      -0.1266731757442653 [Eh]
	 SCS Opposite-Spin Energy  =      -1.5023056224972142 [Eh]
	 SCS Correlation Energy    =      -1.6289787982414794 [Eh]
	 SCS Total Energy          =    -364.6833356502520473 [Eh]
	-----------------------------------------------------------

  Dipole Moment: [D]
     X:     4.7962      Y:    -1.2445      Z:     1.0650     Total:     5.0682

*** Psi4 exiting successfully. Buy a developer a beer!
