                               Psi4 1.3.2 release

  ==> Input File <==

--------------------------------------------------------------------------
#psi4
#
memory 32 gb

molecule  {
0 1
  O       -2.5416370     0.0659770    -0.3927070
  N       -0.7122740    -1.2241950    -0.0249760
  C        1.8770415     0.7357715    -0.0704468
  C        1.7187040    -0.7521010    -0.3806110
  C        0.5749500     1.5632640    -0.2598230
  C        0.6466580    -1.4925250     0.4187290
  C       -0.6257670     1.1444980     0.6024810
  C       -1.3868420    -0.0349600     0.0307530
  H        2.6566510     1.1652070    -0.6217190
  H        2.1344690     0.8237010     1.0199600
  H        1.5025340    -0.8781880    -1.4483810
  H        2.6863370    -1.2343500    -0.1898600
  H        0.2863390     1.5300770    -1.3181450
  H        0.8108260     2.6104720    -0.0371320
  H        0.7923570    -2.5718330     0.3164690
  H        0.7525260    -1.2638240     1.4882170
  H       -1.3561390     1.9546950     0.6612310
  H       -0.2921570     0.9237120     1.6255030
  H       -1.2491170    -1.9758090    -0.4428220
units angstrom
no_reorient  #important for SAPT in psi4, default
symmetry c1  #important for SAPT in psi4, default
}

set PROPERTIES_ORIGIN ["COM"]
properties('MP2/aug-cc-pvtz', properties = ['dipole'])
--------------------------------------------------------------------------

    Molecular point group: c1
  Charge       = 0
  Multiplicity = 1
  Basis Set: AUG-CC-PVTZ
    Blend: AUG-CC-PVTZ
  Basis Set: (AUG-CC-PVTZ AUX)
    Blend: AUG-CC-PVTZ-JKFIT

    Orbital Energies [Eh]
    ---------------------

    Doubly Occupied:

       1A    -20.509205     2A    -15.578791     3A    -11.343163
       4A    -11.278464     5A    -11.237365     6A    -11.236753
       7A    -11.234220     8A    -11.232559     9A     -1.363571
      10A     -1.228280    11A     -1.091049    12A     -1.042080
      13A     -0.946576    14A     -0.888022    15A     -0.795980
      16A     -0.764355    17A     -0.687570    18A     -0.678566
      19A     -0.628040    20A     -0.610525    21A     -0.598486
      22A     -0.592615    23A     -0.572030    24A     -0.546230
      25A     -0.522184    26A     -0.514827    27A     -0.479049
      28A     -0.473601    29A     -0.463992    30A     -0.410865
      31A     -0.383183

  @DF-RHF Final Energy:  -363.07262016290213

   => Energetics <=

    Nuclear Repulsion Energy =            393.5056339361755704
    One-Electron Energy =               -1273.2921172476080756
    Two-Electron Energy =                 516.7138631485303222
    Total Energy =                       -363.0726201629021261
  Basis Set: (AUG-CC-PVTZ AUX)
    Blend: AUG-CC-PVTZ-RI
    Molecular point group: c1

    Geometry (in Angstrom), charge = 0, multiplicity = 1:

       Center              X                  Y                   Z               Mass
    ------------   -----------------  -----------------  -----------------  -----------------
         O           -2.469323876691     0.075063032315    -0.379650288125    15.994914619570
         N           -0.639960876691    -1.215108967685    -0.011919288125    14.003074004430
         C            1.949354623309     0.744857532315    -0.057390088125    12.000000000000
         C            1.791017123309    -0.743014967685    -0.367554288125    12.000000000000
         C            0.647263123309     1.572350032315    -0.246766288125    12.000000000000
         C            0.718971123309    -1.483438967685     0.431785711875    12.000000000000
         C           -0.553453876691     1.153584032315     0.615537711875    12.000000000000
         C           -1.314528876691    -0.025873967685     0.043809711875    12.000000000000
         H            2.728964123309     1.174293032315    -0.608662288125     1.007825032230
         H            2.206782123309     0.832787032315     1.033016711875     1.007825032230
         H            1.574847123309    -0.869101967685    -1.435324288125     1.007825032230
         H            2.758650123309    -1.225263967685    -0.176803288125     1.007825032230
         H            0.358652123309     1.539163032315    -1.305088288125     1.007825032230
         H            0.883139123309     2.619558032315    -0.024075288125     1.007825032230
         H            0.864670123309    -2.562746967685     0.329525711875     1.007825032230
         H            0.824839123309    -1.254737967685     1.501273711875     1.007825032230
         H           -1.283825876691     1.963781032315     0.674287711875     1.007825032230
         H           -0.219843876691     0.932798032315     1.638559711875     1.007825032230
         H           -1.176803876691    -1.966722967685    -0.429765288125     1.007825032230

  Basis Set: AUG-CC-PVTZ
    Blend: AUG-CC-PVTZ
  Basis Set: (AUG-CC-PVTZ AUX)
    Blend: AUG-CC-PVTZ-JKFIT
	 Reference Energy          =    -363.0726201629021261 [Eh]
	 Singles Energy            =      -0.0000000000000000 [Eh]
	 Same-Spin Energy          =      -0.3775815791667098 [Eh]
	 Opposite-Spin Energy      =      -1.2476142515239901 [Eh]
	 Correlation Energy        =      -1.6251958306906999 [Eh]
	 Total Energy              =    -364.6978159935928261 [Eh]

	 ================> DF-SCS-MP2 Energies <==================
	-----------------------------------------------------------
	 SCS Same-Spin Scale       =       0.3333333333333333 [-]
	 SCS Opposite-Spin Scale   =       1.2000000000000000 [-]
	 SCS Same-Spin Energy      =      -0.1258605263889033 [Eh]
	 SCS Opposite-Spin Energy  =      -1.4971371018287880 [Eh]
	 SCS Correlation Energy    =      -1.6229976282176912 [Eh]
	 SCS Total Energy          =    -364.6956177911198438 [Eh]
	-----------------------------------------------------------

  Dipole Moment: [D]
     X:     4.0723      Y:    -1.0392      Z:     0.8816     Total:     4.2943

*** Psi4 exiting successfully. Buy a developer a beer!
