                               Psi4 1.3.2 release

  ==> Input File <==

--------------------------------------------------------------------------
#psi4
#
memory 32 gb

molecule  {
0 1
  O       -2.5416370     0.0659770    -0.3927070
  N       -0.7122740    -1.2241950    -0.0249760
  C        1.8380290     0.7314390    -0.0343340
  C        1.7187040    -0.7521010    -0.3806110
  C        0.5749500     1.5632640    -0.2598230
  C        0.6466580    -1.4925250     0.4187290
  C       -0.6257670     1.1444980     0.6024810
  C       -1.3868420    -0.0349600     0.0307530
  H        2.6566510     1.1652070    -0.6217190
  H        2.1344690     0.8237010     1.0199600
  H        1.4828231    -0.8896849    -1.5457427
  H        2.6863370    -1.2343500    -0.1898600
  H        0.2863390     1.5300770    -1.3181450
  H        0.8108260     2.6104720    -0.0371320
  H        0.7923570    -2.5718330     0.3164690
  H        0.7525260    -1.2638240     1.4882170
  H       -1.3561390     1.9546950     0.6612310
  H       -0.2921570     0.9237120     1.6255030
  H       -1.2491170    -1.9758090    -0.4428220
units angstrom
no_reorient  #important for SAPT in psi4, default
symmetry c1  #important for SAPT in psi4, default
}

set PROPERTIES_ORIGIN ["COM"]
properties('MP2/aug-cc-pvtz', properties = ['dipole'])
--------------------------------------------------------------------------

    Molecular point group: c1
  Charge       = 0
  Multiplicity = 1
  Basis Set: AUG-CC-PVTZ
    Blend: AUG-CC-PVTZ
  Basis Set: (AUG-CC-PVTZ AUX)
    Blend: AUG-CC-PVTZ-JKFIT

    Orbital Energies [Eh]
    ---------------------

    Doubly Occupied:

       1A    -20.509130     2A    -15.578690     3A    -11.343131
       4A    -11.278607     5A    -11.246251     6A    -11.236886
       7A    -11.236184     8A    -11.234369     9A     -1.363507
      10A     -1.228273    11A     -1.093420    12A     -1.040569
      13A     -0.945952    14A     -0.886606    15A     -0.789923
      16A     -0.763942    17A     -0.686675    18A     -0.677206
      19A     -0.625988    20A     -0.610281    21A     -0.600324
      22A     -0.591666    23A     -0.570591    24A     -0.545574
      25A     -0.519741    26A     -0.509206    27A     -0.475396
      28A     -0.470922    29A     -0.470261    30A     -0.410694
      31A     -0.383142

  @DF-RHF Final Energy:  -363.06908497634902

   => Energetics <=

    Nuclear Repulsion Energy =            393.6487618457177859
    One-Electron Energy =               -1273.5894778840731760
    Two-Electron Energy =                 516.8716310620063723
    Total Energy =                       -363.0690849763490178
  Basis Set: (AUG-CC-PVTZ AUX)
    Blend: AUG-CC-PVTZ-RI
    Molecular point group: c1

    Geometry (in Angstrom), charge = 0, multiplicity = 1:

       Center              X                  Y                   Z               Mass
    ------------   -----------------  -----------------  -----------------  -----------------
         O           -2.465008369083     0.075625241183    -0.382614720333    15.994914619570
         N           -0.635645369083    -1.214546758817    -0.014883720333    14.003074004430
         C            1.914657630917     0.741087241183    -0.024241720333    12.000000000000
         C            1.795332630917    -0.742452758817    -0.370518720333    12.000000000000
         C            0.651578630917     1.572912241183    -0.249730720333    12.000000000000
         C            0.723286630917    -1.482876758817     0.428821279667    12.000000000000
         C           -0.549138369083     1.154146241183     0.612573279667    12.000000000000
         C           -1.310213369083    -0.025311758817     0.040845279667    12.000000000000
         H            2.733279630917     1.174855241183    -0.611626720333     1.007825032230
         H            2.211097630917     0.833349241183     1.030052279667     1.007825032230
         H            1.559451730917    -0.880036658817    -1.535650420333     1.007825032230
         H            2.762965630917    -1.224701758817    -0.179767720333     1.007825032230
         H            0.362967630917     1.539725241183    -1.308052720333     1.007825032230
         H            0.887454630917     2.620120241183    -0.027039720333     1.007825032230
         H            0.868985630917    -2.562184758817     0.326561279667     1.007825032230
         H            0.829154630917    -1.254175758817     1.498309279667     1.007825032230
         H           -1.279510369083     1.964343241183     0.671323279667     1.007825032230
         H           -0.215528369083     0.933360241183     1.635595279667     1.007825032230
         H           -1.172488369083    -1.966160758817    -0.432729720333     1.007825032230

  Basis Set: AUG-CC-PVTZ
    Blend: AUG-CC-PVTZ
  Basis Set: (AUG-CC-PVTZ AUX)
    Blend: AUG-CC-PVTZ-JKFIT
	 Reference Energy          =    -363.0690849763490178 [Eh]
	 Singles Energy            =      -0.0000000000000000 [Eh]
	 Same-Spin Energy          =      -0.3777706961729131 [Eh]
	 Opposite-Spin Energy      =      -1.2484088947221585 [Eh]
	 Correlation Energy        =      -1.6261795908950716 [Eh]
	 Total Energy              =    -364.6952645672440667 [Eh]

	 ================> DF-SCS-MP2 Energies <==================
	-----------------------------------------------------------
	 SCS Same-Spin Scale       =       0.3333333333333333 [-]
	 SCS Opposite-Spin Scale   =       1.2000000000000000 [-]
	 SCS Same-Spin Energy      =      -0.1259235653909710 [Eh]
	 SCS Opposite-Spin Energy  =      -1.4980906736665902 [Eh]
	 SCS Correlation Energy    =      -1.6240142390575611 [Eh]
	 SCS Total Energy          =    -364.6930992154065621 [Eh]
	-----------------------------------------------------------

  Dipole Moment: [D]
     X:     4.0724      Y:    -1.0167      Z:     0.9617     Total:     4.3062

*** Psi4 exiting successfully. Buy a developer a beer!
