                               Psi4 1.4a3.dev225

  ==> Input File <==

--------------------------------------------------------------------------
#psi4
#
memory 32 gb

molecule  {
0 1
  O       -2.5416370     0.0659770    -0.3927070
  N       -0.7122740    -1.2241950    -0.0249760
  C        1.8380290     0.7314390    -0.0343340
  C        1.7187040    -0.7521010    -0.3806110
  C        0.5914706     1.5523841    -0.2568737
  C        0.6466580    -1.4925250     0.4187290
  C       -0.6257670     1.1444980     0.6024810
  C       -1.3868420    -0.0349600     0.0307530
  H        2.6566510     1.1652070    -0.6217190
  H        2.1344690     0.8237010     1.0199600
  H        1.5025340    -0.8781880    -1.4483810
  H        2.6863370    -1.2343500    -0.1898600
  H        0.2863390     1.5300770    -1.3181450
  H        0.8108260     2.6104720    -0.0371320
  H        0.7923570    -2.5718330     0.3164690
  H        0.7525260    -1.2638240     1.4882170
  H       -1.3561390     1.9546950     0.6612310
  H       -0.2921570     0.9237120     1.6255030
  H       -1.2491170    -1.9758090    -0.4428220
units angstrom
no_reorient  #important for SAPT in psi4, default
symmetry c1  #important for SAPT in psi4, default
}

set PROPERTIES_ORIGIN ["COM"]
properties('MP2/aug-cc-pvtz', properties = ['dipole'])
--------------------------------------------------------------------------

    Molecular point group: c1
  Charge       = 0
  Multiplicity = 1
  Basis Set: AUG-CC-PVTZ
    Blend: AUG-CC-PVTZ
  Basis Set: (AUG-CC-PVTZ AUX)
    Blend: AUG-CC-PVTZ-JKFIT

    Orbital Energies [Eh]
    ---------------------

    Doubly Occupied:

       1A    -20.508966     2A    -15.578559     3A    -11.342874
       4A    -11.277431     5A    -11.237339     6A    -11.236414
       7A    -11.234469     8A    -11.232482     9A     -1.363353
      10A     -1.228253    11A     -1.095819    12A     -1.041404
      13A     -0.946895    14A     -0.888280    15A     -0.795011
      16A     -0.763785    17A     -0.687953    18A     -0.676910
      19A     -0.626827    20A     -0.611909    21A     -0.602756
      22A     -0.591297    23A     -0.570304    24A     -0.544601
      25A     -0.519359    26A     -0.514975    27A     -0.482421
      28A     -0.472232    29A     -0.467507    30A     -0.410384
      31A     -0.382733

  @DF-RHF Final Energy:  -363.07496113050399

   => Energetics <=

    Nuclear Repulsion Energy =            394.2186778106460565
    One-Electron Energy =               -1274.7202768899273906
    Two-Electron Energy =                 517.4266379487772838
    Total Energy =                       -363.0749611305039934
  Basis Set: (AUG-CC-PVTZ AUX)
    Blend: AUG-CC-PVTZ-RI
    Molecular point group: c1

    Geometry (in Angstrom), charge = 0, multiplicity = 1:

       Center              X                  Y                   Z               Mass
    ------------   -----------------  -----------------  -----------------  -----------------
         O           -2.466937131906     0.076677307515    -0.383795392072    15.994914619570
         N           -0.637574131906    -1.213494692485    -0.016064392072    14.003074004430
         C            1.912728868094     0.742139307515    -0.025422392072    12.000000000000
         C            1.793403868094    -0.741400692485    -0.371699392072    12.000000000000
         C            0.666170468094     1.563084407515    -0.247962092072    12.000000000000
         C            0.721357868094    -1.481824692485     0.427640607928    12.000000000000
         C           -0.551067131906     1.155198307515     0.611392607928    12.000000000000
         C           -1.312142131906    -0.024259692485     0.039664607928    12.000000000000
         H            2.731350868094     1.175907307515    -0.612807392072     1.007825032230
         H            2.209168868094     0.834401307515     1.028871607928     1.007825032230
         H            1.577233868094    -0.867487692485    -1.439469392072     1.007825032230
         H            2.761036868094    -1.223649692485    -0.180948392072     1.007825032230
         H            0.361038868094     1.540777307515    -1.309233392072     1.007825032230
         H            0.885525868094     2.621172307515    -0.028220392072     1.007825032230
         H            0.867056868094    -2.561132692485     0.325380607928     1.007825032230
         H            0.827225868094    -1.253123692485     1.497128607928     1.007825032230
         H           -1.281439131906     1.965395307515     0.670142607928     1.007825032230
         H           -0.217457131906     0.934412307515     1.634414607928     1.007825032230
         H           -1.174417131906    -1.965108692485    -0.433910392072     1.007825032230

  Basis Set: AUG-CC-PVTZ
    Blend: AUG-CC-PVTZ
  Basis Set: (AUG-CC-PVTZ AUX)
    Blend: AUG-CC-PVTZ-JKFIT
	 Reference Energy          =    -363.0749611305039934 [Eh]
	 Singles Energy            =      -0.0000000000000000 [Eh]
	 Same-Spin Energy          =      -0.3778271992672336 [Eh]
	 Opposite-Spin Energy      =      -1.2477585505464730 [Eh]
	 Correlation Energy        =      -1.6255857498137067 [Eh]
	 Total Energy              =    -364.7005468803176882 [Eh]

	 ================> DF-SCS-MP2 Energies <==================
	-----------------------------------------------------------
	 SCS Same-Spin Scale       =       0.3333333333333333 [-]
	 SCS Opposite-Spin Scale   =       1.2000000000000000 [-]
	 SCS Same-Spin Energy      =      -0.1259423997557445 [Eh]
	 SCS Opposite-Spin Energy  =      -1.4973102606557676 [Eh]
	 SCS Correlation Energy    =      -1.6232526604115121 [Eh]
	 SCS Total Energy          =    -364.6982137909155313 [Eh]
	-----------------------------------------------------------

  Dipole Moment: [D]
     X:     4.0826      Y:    -1.0370      Z:     0.8983     Total:     4.3070

*** Psi4 exiting successfully. Buy a developer a beer!
