                               Psi4 1.3.2 release

  ==> Input File <==

--------------------------------------------------------------------------
#psi4
#
memory 32 gb

molecule  {
0 1
  O       -2.5416370     0.0659770    -0.3927070
  N       -0.7122740    -1.2241950    -0.0249760
  C        1.8380290     0.7314390    -0.0343340
  C        1.7187040    -0.7521010    -0.3806110
  C        0.5749500     1.5632640    -0.2598230
  C        0.6441998    -1.5165758     0.4109868
  C       -0.6257670     1.1444980     0.6024810
  C       -1.3868420    -0.0349600     0.0307530
  H        2.6566510     1.1652070    -0.6217190
  H        2.1344690     0.8237010     1.0199600
  H        1.5025340    -0.8781880    -1.4483810
  H        2.6863370    -1.2343500    -0.1898600
  H        0.2863390     1.5300770    -1.3181450
  H        0.8108260     2.6104720    -0.0371320
  H        0.7923570    -2.5718330     0.3164690
  H        0.7525260    -1.2638240     1.4882170
  H       -1.3561390     1.9546950     0.6612310
  H       -0.2921570     0.9237120     1.6255030
  H       -1.2491170    -1.9758090    -0.4428220
units angstrom
no_reorient  #important for SAPT in psi4, default
symmetry c1  #important for SAPT in psi4, default
}

set PROPERTIES_ORIGIN ["COM"]
properties('MP2/aug-cc-pvtz', properties = ['dipole'])
--------------------------------------------------------------------------

    Molecular point group: c1
  Charge       = 0
  Multiplicity = 1
  Basis Set: AUG-CC-PVTZ
    Blend: AUG-CC-PVTZ
  Basis Set: (AUG-CC-PVTZ AUX)
    Blend: AUG-CC-PVTZ-JKFIT

    Orbital Energies [Eh]
    ---------------------

    Doubly Occupied:

       1A    -20.509225     2A    -15.578610     3A    -11.343624
       4A    -11.277114     5A    -11.236602     6A    -11.235908
       7A    -11.234657     8A    -11.233389     9A     -1.363556
      10A     -1.228027    11A     -1.093424    12A     -1.041635
      13A     -0.945575    14A     -0.889712    15A     -0.794675
      16A     -0.763552    17A     -0.687637    18A     -0.678263
      19A     -0.625033    20A     -0.611593    21A     -0.602415
      22A     -0.594141    23A     -0.569877    24A     -0.543971
      25A     -0.520528    26A     -0.514058    27A     -0.481261
      28A     -0.471324    29A     -0.469806    30A     -0.410971
      31A     -0.381512

  @DF-RHF Final Energy:  -363.07487993714091

   => Energetics <=

    Nuclear Repulsion Energy =            393.8187496634565719
    One-Electron Energy =               -1273.9239103326715394
    Two-Electron Energy =                 517.0302807320739475
    Total Energy =                       -363.0748799371409632
  Basis Set: (AUG-CC-PVTZ AUX)
    Blend: AUG-CC-PVTZ-RI
    Molecular point group: c1

    Geometry (in Angstrom), charge = 0, multiplicity = 1:

       Center              X                  Y                   Z               Mass
    ------------   -----------------  -----------------  -----------------  -----------------
         O           -2.464923182354     0.078074947416    -0.382660855556    15.994914619570
         N           -0.635560182354    -1.212097052584    -0.014929855556    14.003074004430
         C            1.914742817646     0.743536947416    -0.024287855556    12.000000000000
         C            1.795417817646    -0.740003052584    -0.370564855556    12.000000000000
         C            0.651663817646     1.575361947416    -0.249776855556    12.000000000000
         C            0.720913617646    -1.504477852584     0.421032944444    12.000000000000
         C           -0.549053182354     1.156595947416     0.612527144444    12.000000000000
         C           -1.310128182354    -0.022862052584     0.040799144444    12.000000000000
         H            2.733364817646     1.177304947416    -0.611672855556     1.007825032230
         H            2.211182817646     0.835798947416     1.030006144444     1.007825032230
         H            1.579247817646    -0.866090052584    -1.438334855556     1.007825032230
         H            2.763050817646    -1.222252052584    -0.179813855556     1.007825032230
         H            0.363052817646     1.542174947416    -1.308098855556     1.007825032230
         H            0.887539817646     2.622569947416    -0.027085855556     1.007825032230
         H            0.869070817646    -2.559735052584     0.326515144444     1.007825032230
         H            0.829239817646    -1.251726052584     1.498263144444     1.007825032230
         H           -1.279425182354     1.966792947416     0.671277144444     1.007825032230
         H           -0.215443182354     0.935809947416     1.635549144444     1.007825032230
         H           -1.172403182354    -1.963711052584    -0.432775855556     1.007825032230

  Basis Set: AUG-CC-PVTZ
    Blend: AUG-CC-PVTZ
  Basis Set: (AUG-CC-PVTZ AUX)
    Blend: AUG-CC-PVTZ-JKFIT
	 Reference Energy          =    -363.0748799371409063 [Eh]
	 Singles Energy            =      -0.0000000000000000 [Eh]
	 Same-Spin Energy          =      -0.3776467166620583 [Eh]
	 Opposite-Spin Energy      =      -1.2475966636179434 [Eh]
	 Correlation Energy        =      -1.6252433802800017 [Eh]
	 Total Energy              =    -364.7001233174208892 [Eh]

	 ================> DF-SCS-MP2 Energies <==================
	-----------------------------------------------------------
	 SCS Same-Spin Scale       =       0.3333333333333333 [-]
	 SCS Opposite-Spin Scale   =       1.2000000000000000 [-]
	 SCS Same-Spin Energy      =      -0.1258822388873528 [Eh]
	 SCS Opposite-Spin Energy  =      -1.4971159963415321 [Eh]
	 SCS Correlation Energy    =      -1.6229982352288850 [Eh]
	 SCS Total Energy          =    -364.6978781723697693 [Eh]
	-----------------------------------------------------------

  Dipole Moment: [D]
     X:     4.0672      Y:    -1.0518      Z:     0.8887     Total:     4.2939

*** Psi4 exiting successfully. Buy a developer a beer!
