                               Psi4 1.3.2 release

  ==> Input File <==

--------------------------------------------------------------------------
#psi4
#
memory 32 gb

molecule  {
0 1
  O       -2.5416370     0.0659770    -0.3927070
  N       -0.7122740    -1.2241950    -0.0249760
  C        1.8380290     0.7314390    -0.0343340
  C        1.7187040    -0.7521010    -0.3806110
  C        0.5749500     1.5632640    -0.2598230
  C        0.6466580    -1.4925250     0.4187290
  C       -0.6257670     1.1444980     0.6024810
  C       -1.3868420    -0.0349600     0.0307530
  H        2.6566510     1.1652070    -0.6217190
  H        2.1344690     0.8237010     1.0199600
  H        1.5025340    -0.8781880    -1.4483810
  H        2.6863370    -1.2343500    -0.1898600
  H        0.2863390     1.5300770    -1.3181450
  H        0.8108260     2.6104720    -0.0371320
  H        0.7923570    -2.5718330     0.3164690
  H        0.7525260    -1.2638240     1.4882170
  H       -1.3561390     1.9546950     0.6612310
  H       -0.2921570     0.9237120     1.6255030
  H       -1.1961616    -1.9016681    -0.4016048
units angstrom
no_reorient  #important for SAPT in psi4, default
symmetry c1  #important for SAPT in psi4, default
}

set PROPERTIES_ORIGIN ["COM"]
properties('MP2/aug-cc-pvtz', properties = ['dipole'])
--------------------------------------------------------------------------

    Molecular point group: c1
  Charge       = 0
  Multiplicity = 1
  Basis Set: AUG-CC-PVTZ
    Blend: AUG-CC-PVTZ
  Basis Set: (AUG-CC-PVTZ AUX)
    Blend: AUG-CC-PVTZ-JKFIT

    Orbital Energies [Eh]
    ---------------------

    Doubly Occupied:

       1A    -20.510210     2A    -15.569060     3A    -11.343624
       4A    -11.277759     5A    -11.236906     6A    -11.235984
       7A    -11.234777     8A    -11.233376     9A     -1.366022
      10A     -1.239539    11A     -1.096645    12A     -1.042703
      13A     -0.950613    14A     -0.889807    15A     -0.799859
      16A     -0.780381    17A     -0.690284    18A     -0.678455
      19A     -0.629635    20A     -0.613925    21A     -0.602874
      22A     -0.592472    23A     -0.571153    24A     -0.547807
      25A     -0.521227    26A     -0.516718    27A     -0.481691
      28A     -0.471231    29A     -0.469839    30A     -0.411270
      31A     -0.384902

  @DF-RHF Final Energy:  -363.06909470450080

   => Energetics <=

    Nuclear Repulsion Energy =            394.7498933416178488
    One-Electron Energy =               -1275.6564820229650650
    Two-Electron Energy =                 517.8374939768464174
    Total Energy =                       -363.0690947045007988
  Basis Set: (AUG-CC-PVTZ AUX)
    Blend: AUG-CC-PVTZ-RI
    Molecular point group: c1

    Geometry (in Angstrom), charge = 0, multiplicity = 1:

       Center              X                  Y                   Z               Mass
    ------------   -----------------  -----------------  -----------------  -----------------
         O           -2.465655983907     0.074862022074    -0.383849759820    15.994914619570
         N           -0.636292983907    -1.215309977926    -0.016118759820    14.003074004430
         C            1.914010016093     0.740324022074    -0.025476759820    12.000000000000
         C            1.794685016093    -0.743215977926    -0.371753759820    12.000000000000
         C            0.650931016093     1.572149022074    -0.250965759820    12.000000000000
         C            0.722639016093    -1.483639977926     0.427586240180    12.000000000000
         C           -0.549785983907     1.153383022074     0.611338240180    12.000000000000
         C           -1.310860983907    -0.026074977926     0.039610240180    12.000000000000
         H            2.732632016093     1.174092022074    -0.612861759820     1.007825032230
         H            2.210450016093     0.832586022074     1.028817240180     1.007825032230
         H            1.578515016093    -0.869302977926    -1.439523759820     1.007825032230
         H            2.762318016093    -1.225464977926    -0.181002759820     1.007825032230
         H            0.362320016093     1.538962022074    -1.309287759820     1.007825032230
         H            0.886807016093     2.619357022074    -0.028274759820     1.007825032230
         H            0.868338016093    -2.562947977926     0.325326240180     1.007825032230
         H            0.828507016093    -1.254938977926     1.497074240180     1.007825032230
         H           -1.280157983907     1.963580022074     0.670088240180     1.007825032230
         H           -0.216175983907     0.932597022074     1.634360240180     1.007825032230
         H           -1.120180583907    -1.892783077926    -0.392747559820     1.007825032230

  Basis Set: AUG-CC-PVTZ
    Blend: AUG-CC-PVTZ
  Basis Set: (AUG-CC-PVTZ AUX)
    Blend: AUG-CC-PVTZ-JKFIT
	 Reference Energy          =    -363.0690947045007988 [Eh]
	 Singles Energy            =      -0.0000000000000000 [Eh]
	 Same-Spin Energy          =      -0.3769756736738687 [Eh]
	 Opposite-Spin Energy      =      -1.2460427684394086 [Eh]
	 Correlation Energy        =      -1.6230184421132774 [Eh]
	 Total Energy              =    -364.6921131466140764 [Eh]

	 ================> DF-SCS-MP2 Energies <==================
	-----------------------------------------------------------
	 SCS Same-Spin Scale       =       0.3333333333333333 [-]
	 SCS Opposite-Spin Scale   =       1.2000000000000000 [-]
	 SCS Same-Spin Energy      =      -0.1256585578912896 [Eh]
	 SCS Opposite-Spin Energy  =      -1.4952513221272903 [Eh]
	 SCS Correlation Energy    =      -1.6209098800185799 [Eh]
	 SCS Total Energy          =    -364.6900045845193858 [Eh]
	-----------------------------------------------------------

  Dipole Moment: [D]
     X:     4.1081      Y:    -0.9652      Z:     0.9282     Total:     4.3209

*** Psi4 exiting successfully. Buy a developer a beer!
