                               Psi4 1.3.2 release

  ==> Input File <==

--------------------------------------------------------------------------
#psi4
#
memory 32 gb

molecule  {
0 1
  O       -2.5416370     0.0659770    -0.3927070
  N       -0.7122740    -1.2241950    -0.0249760
  C        1.8380290     0.7314390    -0.0343340
  C        1.7187040    -0.7521010    -0.3806110
  C        0.5749500     1.5632640    -0.2598230
  C        0.6466580    -1.4925250     0.4187290
  C       -0.6257670     1.1444980     0.6024810
  C       -1.2882474    -0.2087782     0.0226077
  H        2.6566510     1.1652070    -0.6217190
  H        2.1344690     0.8237010     1.0199600
  H        1.5025340    -0.8781880    -1.4483810
  H        2.6863370    -1.2343500    -0.1898600
  H        0.2863390     1.5300770    -1.3181450
  H        0.8108260     2.6104720    -0.0371320
  H        0.7923570    -2.5718330     0.3164690
  H        0.7525260    -1.2638240     1.4882170
  H       -1.3561390     1.9546950     0.6612310
  H       -0.2921570     0.9237120     1.6255030
  H       -1.2491170    -1.9758090    -0.4428220
units angstrom
no_reorient  #important for SAPT in psi4, default
symmetry c1  #important for SAPT in psi4, default
}

set PROPERTIES_ORIGIN ["COM"]
properties('MP2/aug-cc-pvtz', properties = ['dipole'])
--------------------------------------------------------------------------

    Molecular point group: c1
  Charge       = 0
  Multiplicity = 1
  Basis Set: AUG-CC-PVTZ
    Blend: AUG-CC-PVTZ
  Basis Set: (AUG-CC-PVTZ AUX)
    Blend: AUG-CC-PVTZ-JKFIT

    Orbital Energies [Eh]
    ---------------------

    Doubly Occupied:

       1A    -20.469894     2A    -15.611774     3A    -11.326761
       4A    -11.298795     5A    -11.248382     6A    -11.237184
       7A    -11.236315     8A    -11.231829     9A     -1.370076
      10A     -1.226824    11A     -1.105373    12A     -1.046041
      13A     -0.960481    14A     -0.901611    15A     -0.812226
      16A     -0.792667    17A     -0.719935    18A     -0.657144
      19A     -0.643874    20A     -0.628134    21A     -0.606014
      22A     -0.582794    23A     -0.570321    24A     -0.536182
      25A     -0.525526    26A     -0.494742    27A     -0.481754
      28A     -0.472769    29A     -0.466846    30A     -0.375194
      31A     -0.370332

  @DF-RHF Final Energy:  -363.00960043239974

   => Energetics <=

    Nuclear Repulsion Energy =            395.3059960635762877
    One-Electron Energy =               -1276.6156074423070095
    Two-Electron Energy =                 518.3000109463310991
    Total Energy =                       -363.0096004323996794
  Basis Set: (AUG-CC-PVTZ AUX)
    Blend: AUG-CC-PVTZ-RI
    Molecular point group: c1

    Geometry (in Angstrom), charge = 0, multiplicity = 1:

       Center              X                  Y                   Z               Mass
    ------------   -----------------  -----------------  -----------------  -----------------
         O           -2.475646475781     0.093967627045    -0.382618080298    15.994914619570
         N           -0.646283475781    -1.196204372955    -0.014887080298    14.003074004430
         C            1.904019524219     0.759429627045    -0.024245080298    12.000000000000
         C            1.784694524219    -0.724110372955    -0.370522080298    12.000000000000
         C            0.640940524219     1.591254627045    -0.249734080298    12.000000000000
         C            0.712648524219    -1.464534372955     0.428817919702    12.000000000000
         C           -0.559776475781     1.172488627045     0.612569919702    12.000000000000
         C           -1.222256875781    -0.180787572955     0.032696619702    12.000000000000
         H            2.722641524219     1.193197627045    -0.611630080298     1.007825032230
         H            2.200459524219     0.851691627045     1.030048919702     1.007825032230
         H            1.568524524219    -0.850197372955    -1.438292080298     1.007825032230
         H            2.752327524219    -1.206359372955    -0.179771080298     1.007825032230
         H            0.352329524219     1.558067627045    -1.308056080298     1.007825032230
         H            0.876816524219     2.638462627045    -0.027043080298     1.007825032230
         H            0.858347524219    -2.543842372955     0.326557919702     1.007825032230
         H            0.818516524219    -1.235833372955     1.498305919702     1.007825032230
         H           -1.290148475781     1.982685627045     0.671319919702     1.007825032230
         H           -0.226166475781     0.951702627045     1.635591919702     1.007825032230
         H           -1.183126475781    -1.947818372955    -0.432733080298     1.007825032230

  Basis Set: AUG-CC-PVTZ
    Blend: AUG-CC-PVTZ
  Basis Set: (AUG-CC-PVTZ AUX)
    Blend: AUG-CC-PVTZ-JKFIT
	 Reference Energy          =    -363.0096004323997363 [Eh]
	 Singles Energy            =      -0.0000000000000000 [Eh]
	 Same-Spin Energy          =      -0.3789437385004268 [Eh]
	 Opposite-Spin Energy      =      -1.2500740082182074 [Eh]
	 Correlation Energy        =      -1.6290177467186342 [Eh]
	 Total Energy              =    -364.6386181791183958 [Eh]

	 ================> DF-SCS-MP2 Energies <==================
	-----------------------------------------------------------
	 SCS Same-Spin Scale       =       0.3333333333333333 [-]
	 SCS Opposite-Spin Scale   =       1.2000000000000000 [-]
	 SCS Same-Spin Energy      =      -0.1263145795001423 [Eh]
	 SCS Opposite-Spin Energy  =      -1.5000888098618488 [Eh]
	 SCS Correlation Energy    =      -1.6264033893619911 [Eh]
	 SCS Total Energy          =    -364.6360038217617330 [Eh]
	-----------------------------------------------------------

  Dipole Moment: [D]
     X:     5.4031      Y:    -2.1317      Z:     1.0701     Total:     5.9061

*** Psi4 exiting successfully. Buy a developer a beer!
