                               Psi4 1.4a3.dev225

  ==> Input File <==

--------------------------------------------------------------------------
#psi4
#
memory 32 gb

molecule  {
0 1
  O       -2.5416370     0.0659770    -0.3927070
  N       -0.7122740    -1.2241950    -0.0249760
  C        1.8380290     0.7314390    -0.0343340
  C        1.7187040    -0.7521010    -0.3806110
  C        0.5749500     1.5632640    -0.2598230
  C        0.6466580    -1.4925250     0.4187290
  C       -0.6257670     1.1444980     0.6024810
  C       -1.3767992    -0.0193964     0.0382973
  H        2.6566510     1.1652070    -0.6217190
  H        2.1344690     0.8237010     1.0199600
  H        1.5025340    -0.8781880    -1.4483810
  H        2.6863370    -1.2343500    -0.1898600
  H        0.2863390     1.5300770    -1.3181450
  H        0.8108260     2.6104720    -0.0371320
  H        0.7923570    -2.5718330     0.3164690
  H        0.7525260    -1.2638240     1.4882170
  H       -1.3561390     1.9546950     0.6612310
  H       -0.2921570     0.9237120     1.6255030
  H       -1.2491170    -1.9758090    -0.4428220
units angstrom
no_reorient  #important for SAPT in psi4, default
symmetry c1  #important for SAPT in psi4, default
}

set PROPERTIES_ORIGIN ["COM"]
properties('MP2/aug-cc-pvtz', properties = ['dipole'])
--------------------------------------------------------------------------

    Molecular point group: c1
  Charge       = 0
  Multiplicity = 1
  Basis Set: AUG-CC-PVTZ
    Blend: AUG-CC-PVTZ
  Basis Set: (AUG-CC-PVTZ AUX)
    Blend: AUG-CC-PVTZ-JKFIT

    Orbital Energies [Eh]
    ---------------------

    Doubly Occupied:

       1A    -20.508693     2A    -15.578240     3A    -11.344655
       4A    -11.276409     5A    -11.237974     6A    -11.237032
       7A    -11.234317     8A    -11.233539     9A     -1.357336
      10A     -1.224895    11A     -1.095060    12A     -1.044219
      13A     -0.946724    14A     -0.889243    15A     -0.795966
      16A     -0.764259    17A     -0.686659    18A     -0.678079
      19A     -0.626082    20A     -0.612005    21A     -0.602499
      22A     -0.590920    23A     -0.569682    24A     -0.545126
      25A     -0.517504    26A     -0.516045    27A     -0.481710
      28A     -0.471261    29A     -0.468820    30A     -0.412087
      31A     -0.380839

  @DF-RHF Final Energy:  -363.07365581672815

   => Energetics <=

    Nuclear Repulsion Energy =            394.0814944394493295
    One-Electron Energy =               -1274.4545417451331559
    Two-Electron Energy =                 517.2993914889556208
    Total Energy =                       -363.0736558167282055
  Basis Set: (AUG-CC-PVTZ AUX)
    Blend: AUG-CC-PVTZ-RI
    Molecular point group: c1

    Geometry (in Angstrom), charge = 0, multiplicity = 1:

       Center              X                  Y                   Z               Mass
    ------------   -----------------  -----------------  -----------------  -----------------
         O           -2.466249735316     0.073871235741    -0.384282993933    15.994914619570
         N           -0.636886735316    -1.216300764259    -0.016551993933    14.003074004430
         C            1.913416264684     0.739333235741    -0.025909993933    12.000000000000
         C            1.794091264684    -0.744206764259    -0.372186993933    12.000000000000
         C            0.650337264684     1.571158235741    -0.251398993933    12.000000000000
         C            0.722045264684    -1.484630764259     0.427153006067    12.000000000000
         C           -0.550379735316     1.152392235741     0.610905006067    12.000000000000
         C           -1.301411935316    -0.011502164259     0.046721306067    12.000000000000
         H            2.732038264684     1.173101235741    -0.613294993933     1.007825032230
         H            2.209856264684     0.831595235741     1.028384006067     1.007825032230
         H            1.577921264684    -0.870293764259    -1.439956993933     1.007825032230
         H            2.761724264684    -1.226455764259    -0.181435993933     1.007825032230
         H            0.361726264684     1.537971235741    -1.309720993933     1.007825032230
         H            0.886213264684     2.618366235741    -0.028707993933     1.007825032230
         H            0.867744264684    -2.563938764259     0.324893006067     1.007825032230
         H            0.827913264684    -1.255929764259     1.496641006067     1.007825032230
         H           -1.280751735316     1.962589235741     0.669655006067     1.007825032230
         H           -0.216769735316     0.931606235741     1.633927006067     1.007825032230
         H           -1.173729735316    -1.967914764259    -0.434397993933     1.007825032230

  Basis Set: AUG-CC-PVTZ
    Blend: AUG-CC-PVTZ
  Basis Set: (AUG-CC-PVTZ AUX)
    Blend: AUG-CC-PVTZ-JKFIT
	 Reference Energy          =    -363.0736558167281487 [Eh]
	 Singles Energy            =      -0.0000000000000000 [Eh]
	 Same-Spin Energy          =      -0.3781161036310537 [Eh]
	 Opposite-Spin Energy      =      -1.2483904993648063 [Eh]
	 Correlation Energy        =      -1.6265066029958599 [Eh]
	 Total Energy              =    -364.7001624197239948 [Eh]

	 ================> DF-SCS-MP2 Energies <==================
	-----------------------------------------------------------
	 SCS Same-Spin Scale       =       0.3333333333333333 [-]
	 SCS Opposite-Spin Scale   =       1.2000000000000000 [-]
	 SCS Same-Spin Energy      =      -0.1260387012103512 [Eh]
	 SCS Opposite-Spin Energy  =      -1.4980685992377676 [Eh]
	 SCS Correlation Energy    =      -1.6241073004481188 [Eh]
	 SCS Total Energy          =    -364.6977631171762937 [Eh]
	-----------------------------------------------------------

  Dipole Moment: [D]
     X:     4.1109      Y:    -0.9600      Z:     0.9215     Total:     4.3209

*** Psi4 exiting successfully. Buy a developer a beer!
