                               Psi4 1.3.2 release

  ==> Input File <==

--------------------------------------------------------------------------
#psi4
#
memory 32 gb

molecule  {
0 1
  O       -2.5416370     0.0659770    -0.3927070
  N       -0.7122740    -1.2241950    -0.0249760
  C        1.8331766     0.7375426    -0.0598384
  C        1.7187040    -0.7521010    -0.3806110
  C        0.5749500     1.5632640    -0.2598230
  C        0.6466580    -1.4925250     0.4187290
  C       -0.6257670     1.1444980     0.6024810
  C       -1.3868420    -0.0349600     0.0307530
  H        2.6566510     1.1652070    -0.6217190
  H        2.1344690     0.8237010     1.0199600
  H        1.5025340    -0.8781880    -1.4483810
  H        2.6863370    -1.2343500    -0.1898600
  H        0.2863390     1.5300770    -1.3181450
  H        0.8108260     2.6104720    -0.0371320
  H        0.7923570    -2.5718330     0.3164690
  H        0.7525260    -1.2638240     1.4882170
  H       -1.3561390     1.9546950     0.6612310
  H       -0.2921570     0.9237120     1.6255030
  H       -1.2491170    -1.9758090    -0.4428220
units angstrom
no_reorient  #important for SAPT in psi4, default
symmetry c1  #important for SAPT in psi4, default
}

set PROPERTIES_ORIGIN ["COM"]
properties('MP2/aug-cc-pvtz', properties = ['dipole'])
--------------------------------------------------------------------------

    Molecular point group: c1
  Charge       = 0
  Multiplicity = 1
  Basis Set: AUG-CC-PVTZ
    Blend: AUG-CC-PVTZ
  Basis Set: (AUG-CC-PVTZ AUX)
    Blend: AUG-CC-PVTZ-JKFIT

    Orbital Energies [Eh]
    ---------------------

    Doubly Occupied:

       1A    -20.509220     2A    -15.578812     3A    -11.343230
       4A    -11.277660     5A    -11.236764     6A    -11.236112
       7A    -11.234569     8A    -11.233759     9A     -1.363613
      10A     -1.228411    11A     -1.095040    12A     -1.042286
      13A     -0.946403    14A     -0.889265    15A     -0.793716
      16A     -0.764377    17A     -0.688086    18A     -0.677659
      19A     -0.627306    20A     -0.611581    21A     -0.601148
      22A     -0.591930    23A     -0.570969    24A     -0.546071
      25A     -0.519844    26A     -0.515542    27A     -0.477126
      28A     -0.471467    29A     -0.470645    30A     -0.410863
      31A     -0.382981

  @DF-RHF Final Energy:  -363.07461047576322

   => Energetics <=

    Nuclear Repulsion Energy =            394.1423750317490544
    One-Electron Energy =               -1274.5610652480820590
    Two-Electron Energy =                 517.3440797405698959
    Total Energy =                       -363.0746104757631656
  Basis Set: (AUG-CC-PVTZ AUX)
    Blend: AUG-CC-PVTZ-RI
    Molecular point group: c1

    Geometry (in Angstrom), charge = 0, multiplicity = 1:

       Center              X                  Y                   Z               Mass
    ------------   -----------------  -----------------  -----------------  -----------------
         O           -2.464669120031     0.074875090714    -0.380776006422    15.994914619570
         N           -0.635306120031    -1.215296909286    -0.013045006422    14.003074004430
         C            1.910144479969     0.746440690714    -0.047907406422    12.000000000000
         C            1.795671879969    -0.743202909286    -0.368680006422    12.000000000000
         C            0.651917879969     1.572162090714    -0.247892006422    12.000000000000
         C            0.723625879969    -1.483626909286     0.430659993578    12.000000000000
         C           -0.548799120031     1.153396090714     0.614411993578    12.000000000000
         C           -1.309874120031    -0.026061909286     0.042683993578    12.000000000000
         H            2.733618879969     1.174105090714    -0.609788006422     1.007825032230
         H            2.211436879969     0.832599090714     1.031890993578     1.007825032230
         H            1.579501879969    -0.869289909286    -1.436450006422     1.007825032230
         H            2.763304879969    -1.225451909286    -0.177929006422     1.007825032230
         H            0.363306879969     1.538975090714    -1.306214006422     1.007825032230
         H            0.887793879969     2.619370090714    -0.025201006422     1.007825032230
         H            0.869324879969    -2.562934909286     0.328399993578     1.007825032230
         H            0.829493879969    -1.254925909286     1.500147993578     1.007825032230
         H           -1.279171120031     1.963593090714     0.673161993578     1.007825032230
         H           -0.215189120031     0.932610090714     1.637433993578     1.007825032230
         H           -1.172149120031    -1.966910909286    -0.430891006422     1.007825032230

  Basis Set: AUG-CC-PVTZ
    Blend: AUG-CC-PVTZ
  Basis Set: (AUG-CC-PVTZ AUX)
    Blend: AUG-CC-PVTZ-JKFIT
	 Reference Energy          =    -363.0746104757632224 [Eh]
	 Singles Energy            =      -0.0000000000000000 [Eh]
	 Same-Spin Energy          =      -0.3778052404958850 [Eh]
	 Opposite-Spin Energy      =      -1.2477709839489914 [Eh]
	 Correlation Energy        =      -1.6255762244448766 [Eh]
	 Total Energy              =    -364.7001867002081212 [Eh]

	 ================> DF-SCS-MP2 Energies <==================
	-----------------------------------------------------------
	 SCS Same-Spin Scale       =       0.3333333333333333 [-]
	 SCS Opposite-Spin Scale   =       1.2000000000000000 [-]
	 SCS Same-Spin Energy      =      -0.1259350801652950 [Eh]
	 SCS Opposite-Spin Energy  =      -1.4973251807387897 [Eh]
	 SCS Correlation Energy    =      -1.6232602609040847 [Eh]
	 SCS Total Energy          =    -364.6978707366673120 [Eh]
	-----------------------------------------------------------

  Dipole Moment: [D]
     X:     4.0650      Y:    -1.0362      Z:     0.8808     Total:     4.2865

*** Psi4 exiting successfully. Buy a developer a beer!
