                               Psi4 1.3.2 release

  ==> Input File <==

--------------------------------------------------------------------------
#psi4
#
memory 32 gb

molecule  {
0 1
  O       -2.5416370     0.0659770    -0.3927070
  N       -0.7122740    -1.2241950    -0.0249760
  C        1.8380290     0.7314390    -0.0343340
  C        1.7187040    -0.7521010    -0.3806110
  C        0.5749500     1.5632640    -0.2598230
  C        0.5063880    -1.5894045     0.5233172
  C       -0.6257670     1.1444980     0.6024810
  C       -1.3868420    -0.0349600     0.0307530
  H        2.6566510     1.1652070    -0.6217190
  H        2.1344690     0.8237010     1.0199600
  H        1.5025340    -0.8781880    -1.4483810
  H        2.6863370    -1.2343500    -0.1898600
  H        0.2863390     1.5300770    -1.3181450
  H        0.8108260     2.6104720    -0.0371320
  H        0.7923570    -2.5718330     0.3164690
  H        0.7525260    -1.2638240     1.4882170
  H       -1.3561390     1.9546950     0.6612310
  H       -0.2921570     0.9237120     1.6255030
  H       -1.2491170    -1.9758090    -0.4428220
units angstrom
no_reorient  #important for SAPT in psi4, default
symmetry c1  #important for SAPT in psi4, default
}

set PROPERTIES_ORIGIN ["COM"]
properties('MP2/aug-cc-pvtz', properties = ['dipole'])
--------------------------------------------------------------------------

    Molecular point group: c1
  Charge       = 0
  Multiplicity = 1
  Basis Set: AUG-CC-PVTZ
    Blend: AUG-CC-PVTZ
  Basis Set: (AUG-CC-PVTZ AUX)
    Blend: AUG-CC-PVTZ-JKFIT

    Orbital Energies [Eh]
    ---------------------

    Doubly Occupied:

       1A    -20.513696     2A    -15.582417     3A    -11.348269
       4A    -11.274238     5A    -11.237621     6A    -11.235210
       7A    -11.234076     8A    -11.230624     9A     -1.368714
      10A     -1.244787    11A     -1.089026    12A     -1.026943
      13A     -0.942710    14A     -0.894952    15A     -0.791455
      16A     -0.771889    17A     -0.701122    18A     -0.681803
      19A     -0.626758    20A     -0.611632    21A     -0.605102
      22A     -0.598212    23A     -0.571207    24A     -0.537434
      25A     -0.526652    26A     -0.512327    27A     -0.480064
      28A     -0.470414    29A     -0.456593    30A     -0.415684
      31A     -0.361625

  @DF-RHF Final Energy:  -363.04705002565169

   => Energetics <=

    Nuclear Repulsion Energy =            392.8427067212374482
    One-Electron Energy =               -1271.8930022544348049
    Two-Electron Energy =                 516.0032455075456710
    Total Energy =                       -363.0470500256517425
  Basis Set: (AUG-CC-PVTZ AUX)
    Blend: AUG-CC-PVTZ-RI
    Molecular point group: c1

    Geometry (in Angstrom), charge = 0, multiplicity = 1:

       Center              X                  Y                   Z               Mass
    ------------   -----------------  -----------------  -----------------  -----------------
         O           -2.450299180158     0.085803219369    -0.394580879939    15.994914619570
         N           -0.620936180158    -1.204368780631    -0.026849879939    14.003074004430
         C            1.929366819842     0.751265219369    -0.036207879939    12.000000000000
         C            1.810041819842    -0.732274780631    -0.382484879939    12.000000000000
         C            0.666287819842     1.583090219369    -0.261696879939    12.000000000000
         C            0.597725819842    -1.569578280631     0.521443320061    12.000000000000
         C           -0.534429180158     1.164324219369     0.600607120061    12.000000000000
         C           -1.295504180158    -0.015133780631     0.028879120061    12.000000000000
         H            2.747988819842     1.185033219369    -0.623592879939     1.007825032230
         H            2.225806819842     0.843527219369     1.018086120061     1.007825032230
         H            1.593871819842    -0.858361780631    -1.450254879939     1.007825032230
         H            2.777674819842    -1.214523780631    -0.191733879939     1.007825032230
         H            0.377676819842     1.549903219369    -1.320018879939     1.007825032230
         H            0.902163819842     2.630298219369    -0.039005879939     1.007825032230
         H            0.883694819842    -2.552006780631     0.314595120061     1.007825032230
         H            0.843863819842    -1.243997780631     1.486343120061     1.007825032230
         H           -1.264801180158     1.974521219369     0.659357120061     1.007825032230
         H           -0.200819180158     0.943538219369     1.623629120061     1.007825032230
         H           -1.157779180158    -1.955982780631    -0.444695879939     1.007825032230

  Basis Set: AUG-CC-PVTZ
    Blend: AUG-CC-PVTZ
  Basis Set: (AUG-CC-PVTZ AUX)
    Blend: AUG-CC-PVTZ-JKFIT
	 Reference Energy          =    -363.0470500256516857 [Eh]
	 Singles Energy            =      -0.0000000000000000 [Eh]
	 Same-Spin Energy          =      -0.3783281699421206 [Eh]
	 Opposite-Spin Energy      =      -1.2491980655108592 [Eh]
	 Correlation Energy        =      -1.6275262354529798 [Eh]
	 Total Energy              =    -364.6745762611046757 [Eh]

	 ================> DF-SCS-MP2 Energies <==================
	-----------------------------------------------------------
	 SCS Same-Spin Scale       =       0.3333333333333333 [-]
	 SCS Opposite-Spin Scale   =       1.2000000000000000 [-]
	 SCS Same-Spin Energy      =      -0.1261093899807069 [Eh]
	 SCS Opposite-Spin Energy  =      -1.4990376786130311 [Eh]
	 SCS Correlation Energy    =      -1.6251470685937379 [Eh]
	 SCS Total Energy          =    -364.6721970942454050 [Eh]
	-----------------------------------------------------------

  Dipole Moment: [D]
     X:     3.7244      Y:    -1.0676      Z:     0.9843     Total:     3.9975

*** Psi4 exiting successfully. Buy a developer a beer!
