                               Psi4 1.3.2 release

  ==> Input File <==

--------------------------------------------------------------------------
#psi4
#
memory 32 gb

molecule  {
0 1
  O       -2.5416370     0.0659770    -0.3927070
  N       -0.7122740    -1.2241950    -0.0249760
  C        1.8380290     0.7314390    -0.0343340
  C        1.6971772    -0.7058834    -0.3648903
  C        0.5749500     1.5632640    -0.2598230
  C        0.6466580    -1.4925250     0.4187290
  C       -0.6257670     1.1444980     0.6024810
  C       -1.3868420    -0.0349600     0.0307530
  H        2.6566510     1.1652070    -0.6217190
  H        2.1344690     0.8237010     1.0199600
  H        1.5025340    -0.8781880    -1.4483810
  H        2.6863370    -1.2343500    -0.1898600
  H        0.2863390     1.5300770    -1.3181450
  H        0.8108260     2.6104720    -0.0371320
  H        0.7923570    -2.5718330     0.3164690
  H        0.7525260    -1.2638240     1.4882170
  H       -1.3561390     1.9546950     0.6612310
  H       -0.2921570     0.9237120     1.6255030
  H       -1.2491170    -1.9758090    -0.4428220
units angstrom
no_reorient  #important for SAPT in psi4, default
symmetry c1  #important for SAPT in psi4, default
}

set PROPERTIES_ORIGIN ["COM"]
properties('MP2/aug-cc-pvtz', properties = ['dipole'])
--------------------------------------------------------------------------

    Molecular point group: c1
  Charge       = 0
  Multiplicity = 1
  Basis Set: AUG-CC-PVTZ
    Blend: AUG-CC-PVTZ
  Basis Set: (AUG-CC-PVTZ AUX)
    Blend: AUG-CC-PVTZ-JKFIT

    Orbital Energies [Eh]
    ---------------------

    Doubly Occupied:

       1A    -20.509015     2A    -15.578112     3A    -11.343062
       4A    -11.278081     5A    -11.236987     6A    -11.236720
       7A    -11.236134     8A    -11.231753     9A     -1.363440
      10A     -1.228691    11A     -1.099303    12A     -1.042789
      13A     -0.947118    14A     -0.889230    15A     -0.792881
      16A     -0.764426    17A     -0.687562    18A     -0.678415
      19A     -0.627906    20A     -0.613746    21A     -0.603198
      22A     -0.592330    23A     -0.566721    24A     -0.545348
      25A     -0.520920    26A     -0.512597    27A     -0.484825
      28A     -0.471728    29A     -0.466132    30A     -0.410565
      31A     -0.381634

  @DF-RHF Final Energy:  -363.07185955898098

   => Energetics <=

    Nuclear Repulsion Energy =            394.8248929852755396
    One-Electron Energy =               -1275.9107699144394701
    Two-Electron Energy =                 518.0140173701829553
    Total Energy =                       -363.0718595589810320
  Basis Set: (AUG-CC-PVTZ AUX)
    Blend: AUG-CC-PVTZ-RI
    Molecular point group: c1

    Geometry (in Angstrom), charge = 0, multiplicity = 1:

       Center              X                  Y                   Z               Mass
    ------------   -----------------  -----------------  -----------------  -----------------
         O           -2.462899703608     0.070618363611    -0.385150638732    15.994914619570
         N           -0.633536703608    -1.219553636389    -0.017419638732    14.003074004430
         C            1.916766296392     0.736080363611    -0.026777638732    12.000000000000
         C            1.775914496392    -0.701242036389    -0.357333938732    12.000000000000
         C            0.653687296392     1.567905363611    -0.252266638732    12.000000000000
         C            0.725395296392    -1.487883636389     0.426285361268    12.000000000000
         C           -0.547029703608     1.149139363611     0.610037361268    12.000000000000
         C           -1.308104703608    -0.030318636389     0.038309361268    12.000000000000
         H            2.735388296392     1.169848363611    -0.614162638732     1.007825032230
         H            2.213206296392     0.828342363611     1.027516361268     1.007825032230
         H            1.581271296392    -0.873546636389    -1.440824638732     1.007825032230
         H            2.765074296392    -1.229708636389    -0.182303638732     1.007825032230
         H            0.365076296392     1.534718363611    -1.310588638732     1.007825032230
         H            0.889563296392     2.615113363611    -0.029575638732     1.007825032230
         H            0.871094296392    -2.567191636389     0.324025361268     1.007825032230
         H            0.831263296392    -1.259182636389     1.495773361268     1.007825032230
         H           -1.277401703608     1.959336363611     0.668787361268     1.007825032230
         H           -0.213419703608     0.928353363611     1.633059361268     1.007825032230
         H           -1.170379703608    -1.971167636389    -0.435265638732     1.007825032230

  Basis Set: AUG-CC-PVTZ
    Blend: AUG-CC-PVTZ
  Basis Set: (AUG-CC-PVTZ AUX)
    Blend: AUG-CC-PVTZ-JKFIT
	 Reference Energy          =    -363.0718595589809752 [Eh]
	 Singles Energy            =      -0.0000000000000000 [Eh]
	 Same-Spin Energy          =      -0.3781826376520216 [Eh]
	 Opposite-Spin Energy      =      -1.2482325295975865 [Eh]
	 Correlation Energy        =      -1.6264151672496081 [Eh]
	 Total Energy              =    -364.6982747262305793 [Eh]

	 ================> DF-SCS-MP2 Energies <==================
	-----------------------------------------------------------
	 SCS Same-Spin Scale       =       0.3333333333333333 [-]
	 SCS Opposite-Spin Scale   =       1.2000000000000000 [-]
	 SCS Same-Spin Energy      =      -0.1260608792173405 [Eh]
	 SCS Opposite-Spin Energy  =      -1.4978790355171037 [Eh]
	 SCS Correlation Energy    =      -1.6239399147344442 [Eh]
	 SCS Total Energy          =    -364.6957994737153967 [Eh]
	-----------------------------------------------------------

  Dipole Moment: [D]
     X:     4.0650      Y:    -1.0215      Z:     0.9057     Total:     4.2881

*** Psi4 exiting successfully. Buy a developer a beer!
