                               Psi4 1.4a3.dev225

  ==> Input File <==

--------------------------------------------------------------------------
#psi4
#
memory 32 gb

molecule  {
0 1
  O       -2.5416370     0.0659770    -0.3927070
  N       -0.7122740    -1.2241950    -0.0249760
  C        1.8380290     0.7314390    -0.0343340
  C        1.7187040    -0.7521010    -0.3806110
  C        0.5749500     1.5632640    -0.2598230
  C        0.6466580    -1.4925250     0.4187290
  C       -0.6257670     1.1444980     0.6024810
  C       -1.4114907     0.0084945     0.0327893
  H        2.6566510     1.1652070    -0.6217190
  H        2.1344690     0.8237010     1.0199600
  H        1.5025340    -0.8781880    -1.4483810
  H        2.6863370    -1.2343500    -0.1898600
  H        0.2863390     1.5300770    -1.3181450
  H        0.8108260     2.6104720    -0.0371320
  H        0.7923570    -2.5718330     0.3164690
  H        0.7525260    -1.2638240     1.4882170
  H       -1.3561390     1.9546950     0.6612310
  H       -0.2921570     0.9237120     1.6255030
  H       -1.2491170    -1.9758090    -0.4428220
units angstrom
no_reorient  #important for SAPT in psi4, default
symmetry c1  #important for SAPT in psi4, default
}

set PROPERTIES_ORIGIN ["COM"]
properties('MP2/aug-cc-pvtz', properties = ['dipole'])
--------------------------------------------------------------------------

    Molecular point group: c1
  Charge       = 0
  Multiplicity = 1
  Basis Set: AUG-CC-PVTZ
    Blend: AUG-CC-PVTZ
  Basis Set: (AUG-CC-PVTZ AUX)
    Blend: AUG-CC-PVTZ-JKFIT

    Orbital Energies [Eh]
    ---------------------

    Doubly Occupied:

       1A    -20.518556     2A    -15.569208     3A    -11.345723
       4A    -11.271866     5A    -11.238065     6A    -11.237026
       7A    -11.232377     8A    -11.230901     9A     -1.381303
      10A     -1.214646    11A     -1.092655    12A     -1.042148
      13A     -0.943173    14A     -0.884821    15A     -0.793334
      16A     -0.755940    17A     -0.683906    18A     -0.680483
      19A     -0.623636    20A     -0.612931    21A     -0.601064
      22A     -0.595902    23A     -0.569317    24A     -0.549554
      25A     -0.519994    26A     -0.515992    27A     -0.479970
      28A     -0.471620    29A     -0.468846    30A     -0.416551
      31A     -0.378545

  @DF-RHF Final Energy:  -363.07309858585967

   => Energetics <=

    Nuclear Repulsion Energy =            393.8915424280391449
    One-Electron Energy =               -1274.0891788084363725
    Two-Electron Energy =                 517.1245377945375594
    Total Energy =                       -363.0730985858596114
  Basis Set: (AUG-CC-PVTZ AUX)
    Blend: AUG-CC-PVTZ-RI
    Molecular point group: c1

    Geometry (in Angstrom), charge = 0, multiplicity = 1:

       Center              X                  Y                   Z               Mass
    ------------   -----------------  -----------------  -----------------  -----------------
         O           -2.462568420855     0.070911572034    -0.383698508394    15.994914619570
         N           -0.633205420855    -1.219260427966    -0.015967508394    14.003074004430
         C            1.917097579145     0.736373572034    -0.025325508394    12.000000000000
         C            1.797772579145    -0.747166427966    -0.371602508394    12.000000000000
         C            0.654018579145     1.568198572034    -0.250814508394    12.000000000000
         C            0.725726579145    -1.487590427966     0.427737491606    12.000000000000
         C           -0.546698420855     1.149432572034     0.611489491606    12.000000000000
         C           -1.332422120855     0.013429072034     0.041797791606    12.000000000000
         H            2.735719579145     1.170141572034    -0.612710508394     1.007825032230
         H            2.213537579145     0.828635572034     1.028968491606     1.007825032230
         H            1.581602579145    -0.873253427966    -1.439372508394     1.007825032230
         H            2.765405579145    -1.229415427966    -0.180851508394     1.007825032230
         H            0.365407579145     1.535011572034    -1.309136508394     1.007825032230
         H            0.889894579145     2.615406572034    -0.028123508394     1.007825032230
         H            0.871425579145    -2.566898427966     0.325477491606     1.007825032230
         H            0.831594579145    -1.258889427966     1.497225491606     1.007825032230
         H           -1.277070420855     1.959629572034     0.670239491606     1.007825032230
         H           -0.213088420855     0.928646572034     1.634511491606     1.007825032230
         H           -1.170048420855    -1.970874427966    -0.433813508394     1.007825032230

  Basis Set: AUG-CC-PVTZ
    Blend: AUG-CC-PVTZ
  Basis Set: (AUG-CC-PVTZ AUX)
    Blend: AUG-CC-PVTZ-JKFIT
	 Reference Energy          =    -363.0730985858596682 [Eh]
	 Singles Energy            =      -0.0000000000000000 [Eh]
	 Same-Spin Energy          =      -0.3775522939337714 [Eh]
	 Opposite-Spin Energy      =      -1.2473342567539727 [Eh]
	 Correlation Energy        =      -1.6248865506877441 [Eh]
	 Total Energy              =    -364.6979851365474019 [Eh]

	 ================> DF-SCS-MP2 Energies <==================
	-----------------------------------------------------------
	 SCS Same-Spin Scale       =       0.3333333333333333 [-]
	 SCS Opposite-Spin Scale   =       1.2000000000000000 [-]
	 SCS Same-Spin Energy      =      -0.1258507646445905 [Eh]
	 SCS Opposite-Spin Energy  =      -1.4968011081047672 [Eh]
	 SCS Correlation Energy    =      -1.6226518727493577 [Eh]
	 SCS Total Energy          =    -364.6957504586090408 [Eh]
	-----------------------------------------------------------

  Dipole Moment: [D]
     X:     3.7636      Y:    -0.7169      Z:     0.8665     Total:     3.9280

*** Psi4 exiting successfully. Buy a developer a beer!
