                               Psi4 1.4a3.dev225

  ==> Input File <==

--------------------------------------------------------------------------
#psi4
#
memory 32 gb

molecule  {
0 1
  O       -2.5416370     0.0659770    -0.3927070
  N       -0.7122740    -1.2241950    -0.0249760
  C        1.8380290     0.7314390    -0.0343340
  C        1.7187040    -0.7521010    -0.3806110
  C        0.5749500     1.5632640    -0.2598230
  C        0.6466580    -1.4925250     0.4187290
  C       -0.6257670     1.1444980     0.6024810
  C       -1.3868420    -0.0349600     0.0307530
  H        2.6566510     1.1652070    -0.6217190
  H        2.1344690     0.8237010     1.0199600
  H        1.5025340    -0.8781880    -1.4483810
  H        2.6863370    -1.2343500    -0.1898600
  H        0.2863390     1.5300770    -1.3181450
  H        0.8151291     2.6295764    -0.0330694
  H        0.7923570    -2.5718330     0.3164690
  H        0.7525260    -1.2638240     1.4882170
  H       -1.3561390     1.9546950     0.6612310
  H       -0.2921570     0.9237120     1.6255030
  H       -1.2491170    -1.9758090    -0.4428220
units angstrom
no_reorient  #important for SAPT in psi4, default
symmetry c1  #important for SAPT in psi4, default
}

set PROPERTIES_ORIGIN ["COM"]
properties('MP2/aug-cc-pvtz', properties = ['dipole'])
--------------------------------------------------------------------------

    Molecular point group: c1
  Charge       = 0
  Multiplicity = 1
  Basis Set: AUG-CC-PVTZ
    Blend: AUG-CC-PVTZ
  Basis Set: (AUG-CC-PVTZ AUX)
    Blend: AUG-CC-PVTZ-JKFIT

    Orbital Energies [Eh]
    ---------------------

    Doubly Occupied:

       1A    -20.509204     2A    -15.578805     3A    -11.343184
       4A    -11.277453     5A    -11.238973     6A    -11.236263
       7A    -11.234520     8A    -11.233225     9A     -1.363590
      10A     -1.228400    11A     -1.093637    12A     -1.042130
      13A     -0.945422    14A     -0.887617    15A     -0.795015
      16A     -0.764055    17A     -0.687727    18A     -0.676987
      19A     -0.625649    20A     -0.611699    21A     -0.601248
      22A     -0.591609    23A     -0.569948    24A     -0.545141
      25A     -0.519406    26A     -0.515702    27A     -0.481318
      28A     -0.470617    29A     -0.468438    30A     -0.410604
      31A     -0.382875

  @DF-RHF Final Energy:  -363.07492829214203

   => Energetics <=

    Nuclear Repulsion Energy =            393.9859225095254942
    One-Electron Energy =               -1274.2607831132370393
    Two-Electron Energy =                 517.1999323115694551
    Total Energy =                       -363.0749282921420900
  Basis Set: (AUG-CC-PVTZ AUX)
    Blend: AUG-CC-PVTZ-RI
    Molecular point group: c1

    Geometry (in Angstrom), charge = 0, multiplicity = 1:

       Center              X                  Y                   Z               Mass
    ------------   -----------------  -----------------  -----------------  -----------------
         O           -2.465222386068     0.075352517024    -0.383518631502    15.994914619570
         N           -0.635859386068    -1.214819482976    -0.015787631502    14.003074004430
         C            1.914443613932     0.740814517024    -0.025145631502    12.000000000000
         C            1.795118613932    -0.742725482976    -0.371422631502    12.000000000000
         C            0.651364613932     1.572639517024    -0.250634631502    12.000000000000
         C            0.723072613932    -1.483149482976     0.427917368498    12.000000000000
         C           -0.549352386068     1.153873517024     0.611669368498    12.000000000000
         C           -1.310427386068    -0.025584482976     0.039941368498    12.000000000000
         H            2.733065613932     1.174582517024    -0.612530631502     1.007825032230
         H            2.210883613932     0.833076517024     1.029148368498     1.007825032230
         H            1.578948613932    -0.868812482976    -1.439192631502     1.007825032230
         H            2.762751613932    -1.224974482976    -0.180671631502     1.007825032230
         H            0.362753613932     1.539452517024    -1.308956631502     1.007825032230
         H            0.891543713932     2.638951917024    -0.023881031502     1.007825032230
         H            0.868771613932    -2.562457482976     0.325657368498     1.007825032230
         H            0.828940613932    -1.254448482976     1.497405368498     1.007825032230
         H           -1.279724386068     1.964070517024     0.670419368498     1.007825032230
         H           -0.215742386068     0.933087517024     1.634691368498     1.007825032230
         H           -1.172702386068    -1.966433482976    -0.433633631502     1.007825032230

  Basis Set: AUG-CC-PVTZ
    Blend: AUG-CC-PVTZ
  Basis Set: (AUG-CC-PVTZ AUX)
    Blend: AUG-CC-PVTZ-JKFIT
	 Reference Energy          =    -363.0749282921420331 [Eh]
	 Singles Energy            =      -0.0000000000000000 [Eh]
	 Same-Spin Energy          =      -0.3777343791315008 [Eh]
	 Opposite-Spin Energy      =      -1.2478132434028930 [Eh]
	 Correlation Energy        =      -1.6255476225343939 [Eh]
	 Total Energy              =    -364.7004759146764172 [Eh]

	 ================> DF-SCS-MP2 Energies <==================
	-----------------------------------------------------------
	 SCS Same-Spin Scale       =       0.3333333333333333 [-]
	 SCS Opposite-Spin Scale   =       1.2000000000000000 [-]
	 SCS Same-Spin Energy      =      -0.1259114597105002 [Eh]
	 SCS Opposite-Spin Energy  =      -1.4973758920834717 [Eh]
	 SCS Correlation Energy    =      -1.6232873517939719 [Eh]
	 SCS Total Energy          =    -364.6982156439360097 [Eh]
	-----------------------------------------------------------

  Dipole Moment: [D]
     X:     4.0688      Y:    -1.0520      Z:     0.8954     Total:     4.2969

*** Psi4 exiting successfully. Buy a developer a beer!
