                               Psi4 1.3.2 release

  ==> Input File <==

--------------------------------------------------------------------------
#psi4
#
memory 32 gb

molecule  {
0 1
  O       -2.5416370     0.0659770    -0.3927070
  N       -0.7210037    -1.2397762    -0.0069360
  C        1.8380290     0.7314390    -0.0343340
  C        1.7187040    -0.7521010    -0.3806110
  C        0.5749500     1.5632640    -0.2598230
  C        0.6466580    -1.4925250     0.4187290
  C       -0.6257670     1.1444980     0.6024810
  C       -1.3868420    -0.0349600     0.0307530
  H        2.6566510     1.1652070    -0.6217190
  H        2.1344690     0.8237010     1.0199600
  H        1.5025340    -0.8781880    -1.4483810
  H        2.6863370    -1.2343500    -0.1898600
  H        0.2863390     1.5300770    -1.3181450
  H        0.8108260     2.6104720    -0.0371320
  H        0.7923570    -2.5718330     0.3164690
  H        0.7525260    -1.2638240     1.4882170
  H       -1.3561390     1.9546950     0.6612310
  H       -0.2921570     0.9237120     1.6255030
  H       -1.2491170    -1.9758090    -0.4428220
units angstrom
no_reorient  #important for SAPT in psi4, default
symmetry c1  #important for SAPT in psi4, default
}

set PROPERTIES_ORIGIN ["COM"]
properties('MP2/aug-cc-pvtz', properties = ['dipole'])
--------------------------------------------------------------------------

    Molecular point group: c1
  Charge       = 0
  Multiplicity = 1
  Basis Set: AUG-CC-PVTZ
    Blend: AUG-CC-PVTZ
  Basis Set: (AUG-CC-PVTZ AUX)
    Blend: AUG-CC-PVTZ-JKFIT

    Orbital Energies [Eh]
    ---------------------

    Doubly Occupied:

       1A    -20.510394     2A    -15.577560     3A    -11.344189
       4A    -11.276649     5A    -11.237112     6A    -11.236525
       7A    -11.234605     8A    -11.233193     9A     -1.363636
      10A     -1.226961    11A     -1.094363    12A     -1.041750
      13A     -0.945479    14A     -0.888050    15A     -0.795835
      16A     -0.764493    17A     -0.686314    18A     -0.677158
      19A     -0.627151    20A     -0.612131    21A     -0.601494
      22A     -0.591460    23A     -0.569741    24A     -0.546728
      25A     -0.519591    26A     -0.515770    27A     -0.481398
      28A     -0.470982    29A     -0.469343    30A     -0.411062
      31A     -0.382650

  @DF-RHF Final Energy:  -363.07535749009298

   => Energetics <=

    Nuclear Repulsion Energy =            393.7923138422838747
    One-Electron Energy =               -1273.8678153208809363
    Two-Electron Energy =                 517.0001439885040782
    Total Energy =                       -363.0753574900929834
  Basis Set: (AUG-CC-PVTZ AUX)
    Blend: AUG-CC-PVTZ-RI
    Molecular point group: c1

    Geometry (in Angstrom), charge = 0, multiplicity = 1:

       Center              X                  Y                   Z               Mass
    ------------   -----------------  -----------------  -----------------  -----------------
         O           -2.464103047033     0.077452181476    -0.385716298055    15.994914619570
         N           -0.643469747033    -1.228301018524     0.000054701945    14.003074004430
         C            1.915562952967     0.742914181476    -0.027343298055    12.000000000000
         C            1.796237952967    -0.740625818524    -0.373620298055    12.000000000000
         C            0.652483952967     1.574739181476    -0.252832298055    12.000000000000
         C            0.724191952967    -1.481049818524     0.425719701945    12.000000000000
         C           -0.548233047033     1.155973181476     0.609471701945    12.000000000000
         C           -1.309308047033    -0.023484818524     0.037743701945    12.000000000000
         H            2.734184952967     1.176682181476    -0.614728298055     1.007825032230
         H            2.212002952967     0.835176181476     1.026950701945     1.007825032230
         H            1.580067952967    -0.866712818524    -1.441390298055     1.007825032230
         H            2.763870952967    -1.222874818524    -0.182869298055     1.007825032230
         H            0.363872952967     1.541552181476    -1.311154298055     1.007825032230
         H            0.888359952967     2.621947181476    -0.030141298055     1.007825032230
         H            0.869890952967    -2.560357818524     0.323459701945     1.007825032230
         H            0.830059952967    -1.252348818524     1.495207701945     1.007825032230
         H           -1.278605047033     1.966170181476     0.668221701945     1.007825032230
         H           -0.214623047033     0.935187181476     1.632493701945     1.007825032230
         H           -1.171583047033    -1.964333818524    -0.435831298055     1.007825032230

  Basis Set: AUG-CC-PVTZ
    Blend: AUG-CC-PVTZ
  Basis Set: (AUG-CC-PVTZ AUX)
    Blend: AUG-CC-PVTZ-JKFIT
	 Reference Energy          =    -363.0753574900929834 [Eh]
	 Singles Energy            =      -0.0000000000000000 [Eh]
	 Same-Spin Energy          =      -0.3776480653373973 [Eh]
	 Opposite-Spin Energy      =      -1.2476021619135289 [Eh]
	 Correlation Energy        =      -1.6252502272509262 [Eh]
	 Total Energy              =    -364.7006077173439280 [Eh]

	 ================> DF-SCS-MP2 Energies <==================
	-----------------------------------------------------------
	 SCS Same-Spin Scale       =       0.3333333333333333 [-]
	 SCS Opposite-Spin Scale   =       1.2000000000000000 [-]
	 SCS Same-Spin Energy      =      -0.1258826884457991 [Eh]
	 SCS Opposite-Spin Energy  =      -1.4971225942962347 [Eh]
	 SCS Correlation Energy    =      -1.6230052827420338 [Eh]
	 SCS Total Energy          =    -364.6983627728350257 [Eh]
	-----------------------------------------------------------

  Dipole Moment: [D]
     X:     4.0604      Y:    -0.9769      Z:     0.8535     Total:     4.2626

*** Psi4 exiting successfully. Buy a developer a beer!
