                               Psi4 1.4a3.dev225

  ==> Input File <==

--------------------------------------------------------------------------
#psi4
#
memory 32 gb

molecule  {
0 1
  O       -2.5416370     0.0659770    -0.3927070
  N       -0.7122740    -1.2241950    -0.0249760
  C        1.8380290     0.7314390    -0.0343340
  C        1.7187040    -0.7521010    -0.3806110
  C        0.5749500     1.5632640    -0.2598230
  C        0.6466580    -1.4925250     0.4187290
  C       -0.6257670     1.1444980     0.6024810
  C       -1.3868420    -0.0349600     0.0307530
  H        2.6939643     1.1849784    -0.6484923
  H        2.1344690     0.8237010     1.0199600
  H        1.5025340    -0.8781880    -1.4483810
  H        2.6863370    -1.2343500    -0.1898600
  H        0.2863390     1.5300770    -1.3181450
  H        0.8108260     2.6104720    -0.0371320
  H        0.7923570    -2.5718330     0.3164690
  H        0.7525260    -1.2638240     1.4882170
  H       -1.3561390     1.9546950     0.6612310
  H       -0.2921570     0.9237120     1.6255030
  H       -1.2491170    -1.9758090    -0.4428220
units angstrom
no_reorient  #important for SAPT in psi4, default
symmetry c1  #important for SAPT in psi4, default
}

set PROPERTIES_ORIGIN ["COM"]
properties('MP2/aug-cc-pvtz', properties = ['dipole'])
--------------------------------------------------------------------------

    Molecular point group: c1
  Charge       = 0
  Multiplicity = 1
  Basis Set: AUG-CC-PVTZ
    Blend: AUG-CC-PVTZ
  Basis Set: (AUG-CC-PVTZ AUX)
    Blend: AUG-CC-PVTZ-JKFIT

    Orbital Energies [Eh]
    ---------------------

    Doubly Occupied:

       1A    -20.509353     2A    -15.578975     3A    -11.343351
       4A    -11.277787     5A    -11.239358     6A    -11.237090
       7A    -11.236411     8A    -11.234753     9A     -1.363747
      10A     -1.228601    11A     -1.093231    12A     -1.042475
      13A     -0.943745    14A     -0.888804    15A     -0.793560
      16A     -0.764146    17A     -0.688168    18A     -0.675663
      19A     -0.624143    20A     -0.612190    21A     -0.602332
      22A     -0.591793    23A     -0.568425    24A     -0.545436
      25A     -0.518550    26A     -0.516023    27A     -0.481812
      28A     -0.470542    29A     -0.466776    30A     -0.410811
      31A     -0.382955

  @DF-RHF Final Energy:  -363.07335829797512

   => Energetics <=

    Nuclear Repulsion Energy =            393.8421321106705477
    One-Electron Energy =               -1273.9689668829407765
    Two-Electron Energy =                 517.0534764742951666
    Total Energy =                       -363.0733582979751191
  Basis Set: (AUG-CC-PVTZ AUX)
    Blend: AUG-CC-PVTZ-RI
    Molecular point group: c1

    Geometry (in Angstrom), charge = 0, multiplicity = 1:

       Center              X                  Y                   Z               Mass
    ------------   -----------------  -----------------  -----------------  -----------------
         O           -2.465516578766     0.075346572603    -0.383243816547    15.994914619570
         N           -0.636153578766    -1.214825427397    -0.015512816547    14.003074004430
         C            1.914149421234     0.740808572603    -0.024870816547    12.000000000000
         C            1.794824421234    -0.742731427397    -0.371147816547    12.000000000000
         C            0.651070421234     1.572633572603    -0.250359816547    12.000000000000
         C            0.722778421234    -1.483155427397     0.428192183453    12.000000000000
         C           -0.549646578766     1.153867572603     0.611944183453    12.000000000000
         C           -1.310721578766    -0.025590427397     0.040216183453    12.000000000000
         H            2.770084721234     1.194347972603    -0.639029116547     1.007825032230
         H            2.210589421234     0.833070572603     1.029423183453     1.007825032230
         H            1.578654421234    -0.868818427397    -1.438917816547     1.007825032230
         H            2.762457421234    -1.224980427397    -0.180396816547     1.007825032230
         H            0.362459421234     1.539446572603    -1.308681816547     1.007825032230
         H            0.886946421234     2.619841572603    -0.027668816547     1.007825032230
         H            0.868477421234    -2.562463427397     0.325932183453     1.007825032230
         H            0.828646421234    -1.254454427397     1.497680183453     1.007825032230
         H           -1.280018578766     1.964064572603     0.670694183453     1.007825032230
         H           -0.216036578766     0.933081572603     1.634966183453     1.007825032230
         H           -1.172996578766    -1.966439427397    -0.433358816547     1.007825032230

  Basis Set: AUG-CC-PVTZ
    Blend: AUG-CC-PVTZ
  Basis Set: (AUG-CC-PVTZ AUX)
    Blend: AUG-CC-PVTZ-JKFIT
	 Reference Energy          =    -363.0733582979751191 [Eh]
	 Singles Energy            =      -0.0000000000000000 [Eh]
	 Same-Spin Energy          =      -0.3777410203032595 [Eh]
	 Opposite-Spin Energy      =      -1.2480317650850297 [Eh]
	 Correlation Energy        =      -1.6257727853882891 [Eh]
	 Total Energy              =    -364.6991310833633975 [Eh]

	 ================> DF-SCS-MP2 Energies <==================
	-----------------------------------------------------------
	 SCS Same-Spin Scale       =       0.3333333333333333 [-]
	 SCS Opposite-Spin Scale   =       1.2000000000000000 [-]
	 SCS Same-Spin Energy      =      -0.1259136734344198 [Eh]
	 SCS Opposite-Spin Energy  =      -1.4976381181020355 [Eh]
	 SCS Correlation Energy    =      -1.6235517915364552 [Eh]
	 SCS Total Energy          =    -364.6969100895115616 [Eh]
	-----------------------------------------------------------

  Dipole Moment: [D]
     X:     4.0342      Y:    -1.0547      Z:     0.9112     Total:     4.2681

*** Psi4 exiting successfully. Buy a developer a beer!
