                               Psi4 1.3.2 release

  ==> Input File <==

--------------------------------------------------------------------------
#psi4
#
memory 32 gb

molecule  {
0 1
  O       -2.5416370     0.0659770    -0.3927070
  N       -0.7122740    -1.2241950    -0.0249760
  C        1.8380290     0.7314390    -0.0343340
  C        1.7187040    -0.7521010    -0.3806110
  C        0.5749500     1.5632640    -0.2598230
  C        0.6503319    -1.4441856     0.4338056
  C       -0.6257670     1.1444980     0.6024810
  C       -1.3868420    -0.0349600     0.0307530
  H        2.6566510     1.1652070    -0.6217190
  H        2.1344690     0.8237010     1.0199600
  H        1.5025340    -0.8781880    -1.4483810
  H        2.6863370    -1.2343500    -0.1898600
  H        0.2863390     1.5300770    -1.3181450
  H        0.8108260     2.6104720    -0.0371320
  H        0.7923570    -2.5718330     0.3164690
  H        0.7525260    -1.2638240     1.4882170
  H       -1.3561390     1.9546950     0.6612310
  H       -0.2921570     0.9237120     1.6255030
  H       -1.2491170    -1.9758090    -0.4428220
units angstrom
no_reorient  #important for SAPT in psi4, default
symmetry c1  #important for SAPT in psi4, default
}

set PROPERTIES_ORIGIN ["COM"]
properties('MP2/aug-cc-pvtz', properties = ['dipole'])
--------------------------------------------------------------------------

    Molecular point group: c1
  Charge       = 0
  Multiplicity = 1
  Basis Set: AUG-CC-PVTZ
    Blend: AUG-CC-PVTZ
  Basis Set: (AUG-CC-PVTZ AUX)
    Blend: AUG-CC-PVTZ-JKFIT

    Orbital Energies [Eh]
    ---------------------

    Doubly Occupied:

       1A    -20.508839     2A    -15.579070     3A    -11.342006
       4A    -11.278330     5A    -11.236867     6A    -11.236164
       7A    -11.234045     8A    -11.232453     9A     -1.363375
      10A     -1.228960    11A     -1.095279    12A     -1.043371
      13A     -0.945382    14A     -0.886453    15A     -0.797334
      16A     -0.764900    17A     -0.689981    18A     -0.674368
      19A     -0.629007    20A     -0.613415    21A     -0.601637
      22A     -0.585658    23A     -0.570197    24A     -0.547545
      25A     -0.519160    26A     -0.516630    27A     -0.481531
      28A     -0.471963    29A     -0.464168    30A     -0.409853
      31A     -0.385024

  @DF-RHF Final Energy:  -363.07220589598813

   => Energetics <=

    Nuclear Repulsion Energy =            394.6274743033160348
    One-Electron Energy =               -1275.5334340894414709
    Two-Electron Energy =                 517.8337538901372454
    Total Energy =                       -363.0722058959881906
  Basis Set: (AUG-CC-PVTZ AUX)
    Blend: AUG-CC-PVTZ-RI
    Molecular point group: c1

    Geometry (in Angstrom), charge = 0, multiplicity = 1:

       Center              X                  Y                   Z               Mass
    ------------   -----------------  -----------------  -----------------  -----------------
         O           -2.465573894730     0.070393207218    -0.385082289579    15.994914619570
         N           -0.636210894730    -1.219778792782    -0.017351289579    14.003074004430
         C            1.914092105270     0.735855207218    -0.026709289579    12.000000000000
         C            1.794767105270    -0.747684792782    -0.372986289579    12.000000000000
         C            0.651013105270     1.567680207218    -0.252198289579    12.000000000000
         C            0.726395005270    -1.439769392782     0.441430310421    12.000000000000
         C           -0.549703894730     1.148914207218     0.610105710421    12.000000000000
         C           -1.310778894730    -0.030543792782     0.038377710421    12.000000000000
         H            2.732714105270     1.169623207218    -0.614094289579     1.007825032230
         H            2.210532105270     0.828117207218     1.027584710421     1.007825032230
         H            1.578597105270    -0.873771792782    -1.440756289579     1.007825032230
         H            2.762400105270    -1.229933792782    -0.182235289579     1.007825032230
         H            0.362402105270     1.534493207218    -1.310520289579     1.007825032230
         H            0.886889105270     2.614888207218    -0.029507289579     1.007825032230
         H            0.868420105270    -2.567416792782     0.324093710421     1.007825032230
         H            0.828589105270    -1.259407792782     1.495841710421     1.007825032230
         H           -1.280075894730     1.959111207218     0.668855710421     1.007825032230
         H           -0.216093894730     0.928128207218     1.633127710421     1.007825032230
         H           -1.173053894730    -1.971392792782    -0.435197289579     1.007825032230

  Basis Set: AUG-CC-PVTZ
    Blend: AUG-CC-PVTZ
  Basis Set: (AUG-CC-PVTZ AUX)
    Blend: AUG-CC-PVTZ-JKFIT
	 Reference Energy          =    -363.0722058959881338 [Eh]
	 Singles Energy            =      -0.0000000000000000 [Eh]
	 Same-Spin Energy          =      -0.3779875244118388 [Eh]
	 Opposite-Spin Energy      =      -1.2480704319652833 [Eh]
	 Correlation Energy        =      -1.6260579563771222 [Eh]
	 Total Energy              =    -364.6982638523652440 [Eh]

	 ================> DF-SCS-MP2 Energies <==================
	-----------------------------------------------------------
	 SCS Same-Spin Scale       =       0.3333333333333333 [-]
	 SCS Opposite-Spin Scale   =       1.2000000000000000 [-]
	 SCS Same-Spin Energy      =      -0.1259958414706129 [Eh]
	 SCS Opposite-Spin Energy  =      -1.4976845183583400 [Eh]
	 SCS Correlation Energy    =      -1.6236803598289531 [Eh]
	 SCS Total Energy          =    -364.6958862558170722 [Eh]
	-----------------------------------------------------------

  Dipole Moment: [D]
     X:     4.0782      Y:    -0.9974      Z:     0.9062     Total:     4.2950

*** Psi4 exiting successfully. Buy a developer a beer!
