                               Psi4 1.4a3.dev225

  ==> Input File <==

--------------------------------------------------------------------------
#psi4
#
memory 32 gb

molecule  {
0 1
  O       -2.5416370     0.0659770    -0.3927070
  N       -0.7122740    -1.2241950    -0.0249760
  C        1.8380290     0.7314390    -0.0343340
  C        1.7187040    -0.7521010    -0.3806110
  C        0.5749500     1.5632640    -0.2598230
  C        0.6466580    -1.4925250     0.4187290
  C       -0.6257670     1.1444980     0.6024810
  C       -1.3868420    -0.0349600     0.0307530
  H        2.6566510     1.1652070    -0.6217190
  H        2.1344690     0.8237010     1.0199600
  H        1.5025340    -0.8781880    -1.4483810
  H        2.6863370    -1.2343500    -0.1898600
  H        0.2863390     1.5300770    -1.3181450
  H        0.8108260     2.6104720    -0.0371320
  H        0.7923570    -2.5718330     0.3164690
  H        0.7525260    -1.2638240     1.4882170
  H       -1.3895690     1.9917787     0.6639201
  H       -0.2921570     0.9237120     1.6255030
  H       -1.2491170    -1.9758090    -0.4428220
units angstrom
no_reorient  #important for SAPT in psi4, default
symmetry c1  #important for SAPT in psi4, default
}

set PROPERTIES_ORIGIN ["COM"]
properties('MP2/aug-cc-pvtz', properties = ['dipole'])
--------------------------------------------------------------------------

    Molecular point group: c1
  Charge       = 0
  Multiplicity = 1
  Basis Set: AUG-CC-PVTZ
    Blend: AUG-CC-PVTZ
  Basis Set: (AUG-CC-PVTZ AUX)
    Blend: AUG-CC-PVTZ-JKFIT

    Orbital Energies [Eh]
    ---------------------

    Doubly Occupied:

       1A    -20.508976     2A    -15.579003     3A    -11.343367
       4A    -11.277568     5A    -11.241734     6A    -11.236765
       7A    -11.234560     8A    -11.233302     9A     -1.363406
      10A     -1.228523    11A     -1.093693    12A     -1.041113
      13A     -0.943833    14A     -0.888674    15A     -0.795650
      16A     -0.761382    17A     -0.688075    18A     -0.676844
      19A     -0.626065    20A     -0.611956    21A     -0.601241
      22A     -0.591517    23A     -0.565690    24A     -0.544982
      25A     -0.518024    26A     -0.515982    27A     -0.481257
      28A     -0.469941    29A     -0.467926    30A     -0.410710
      31A     -0.382894

  @DF-RHF Final Energy:  -363.07321012869329

   => Energetics <=

    Nuclear Repulsion Energy =            393.8359672253484973
    One-Electron Energy =               -1273.9690529396291367
    Two-Electron Energy =                 517.0598755855874060
    Total Energy =                       -363.0732101286932902
  Basis Set: (AUG-CC-PVTZ AUX)
    Blend: AUG-CC-PVTZ-RI
    Molecular point group: c1

    Geometry (in Angstrom), charge = 0, multiplicity = 1:

       Center              X                  Y                   Z               Mass
    ------------   -----------------  -----------------  -----------------  -----------------
         O           -2.464886102056     0.075192282346    -0.383506390629    15.994914619570
         N           -0.635523102056    -1.214979717654    -0.015775390629    14.003074004430
         C            1.914779897944     0.740654282346    -0.025133390629    12.000000000000
         C            1.795454897944    -0.742885717654    -0.371410390629    12.000000000000
         C            0.651700897944     1.572479282346    -0.250622390629    12.000000000000
         C            0.723408897944    -1.483309717654     0.427929609371    12.000000000000
         C           -0.549016102056     1.153713282346     0.611681609371    12.000000000000
         C           -1.310091102056    -0.025744717654     0.039953609371    12.000000000000
         H            2.733401897944     1.174422282346    -0.612518390629     1.007825032230
         H            2.211219897944     0.832916282346     1.029160609371     1.007825032230
         H            1.579284897944    -0.868972717654    -1.439180390629     1.007825032230
         H            2.763087897944    -1.225134717654    -0.180659390629     1.007825032230
         H            0.363089897944     1.539292282346    -1.308944390629     1.007825032230
         H            0.887576897944     2.619687282346    -0.027931390629     1.007825032230
         H            0.869107897944    -2.562617717654     0.325669609371     1.007825032230
         H            0.829276897944    -1.254608717654     1.497417609371     1.007825032230
         H           -1.312818102056     2.000993982346     0.673120709371     1.007825032230
         H           -0.215406102056     0.932927282346     1.634703609371     1.007825032230
         H           -1.172366102056    -1.966593717654    -0.433621390629     1.007825032230

  Basis Set: AUG-CC-PVTZ
    Blend: AUG-CC-PVTZ
  Basis Set: (AUG-CC-PVTZ AUX)
    Blend: AUG-CC-PVTZ-JKFIT
	 Reference Energy          =    -363.0732101286932902 [Eh]
	 Singles Energy            =      -0.0000000000000000 [Eh]
	 Same-Spin Energy          =      -0.3777846725830503 [Eh]
	 Opposite-Spin Energy      =      -1.2480980745959975 [Eh]
	 Correlation Energy        =      -1.6258827471790478 [Eh]
	 Total Energy              =    -364.6990928758723385 [Eh]

	 ================> DF-SCS-MP2 Energies <==================
	-----------------------------------------------------------
	 SCS Same-Spin Scale       =       0.3333333333333333 [-]
	 SCS Opposite-Spin Scale   =       1.2000000000000000 [-]
	 SCS Same-Spin Energy      =      -0.1259282241943501 [Eh]
	 SCS Opposite-Spin Energy  =      -1.4977176895151969 [Eh]
	 SCS Correlation Energy    =      -1.6236459137095469 [Eh]
	 SCS Total Energy          =    -364.6968560424028283 [Eh]
	-----------------------------------------------------------

  Dipole Moment: [D]
     X:     4.0834      Y:    -1.0499      Z:     0.8879     Total:     4.3087

*** Psi4 exiting successfully. Buy a developer a beer!
