                               Psi4 1.3.2 release

  ==> Input File <==

--------------------------------------------------------------------------
#psi4
#
memory 32 gb

molecule  {
0 1
  O       -2.5405355     0.0242782    -0.4034591
  N       -0.7122740    -1.2241950    -0.0249760
  C        1.8380290     0.7314390    -0.0343340
  C        1.7187040    -0.7521010    -0.3806110
  C        0.5749500     1.5632640    -0.2598230
  C        0.6466580    -1.4925250     0.4187290
  C       -0.6257670     1.1444980     0.6024810
  C       -1.3868420    -0.0349600     0.0307530
  H        2.6566510     1.1652070    -0.6217190
  H        2.1344690     0.8237010     1.0199600
  H        1.5025340    -0.8781880    -1.4483810
  H        2.6863370    -1.2343500    -0.1898600
  H        0.2863390     1.5300770    -1.3181450
  H        0.8108260     2.6104720    -0.0371320
  H        0.7923570    -2.5718330     0.3164690
  H        0.7525260    -1.2638240     1.4882170
  H       -1.3561390     1.9546950     0.6612310
  H       -0.2921570     0.9237120     1.6255030
  H       -1.2491170    -1.9758090    -0.4428220
units angstrom
no_reorient  #important for SAPT in psi4, default
symmetry c1  #important for SAPT in psi4, default
}

set PROPERTIES_ORIGIN ["COM"]
properties('MP2/aug-cc-pvtz', properties = ['dipole'])
--------------------------------------------------------------------------

    Molecular point group: c1
  Charge       = 0
  Multiplicity = 1
  Basis Set: AUG-CC-PVTZ
    Blend: AUG-CC-PVTZ
  Basis Set: (AUG-CC-PVTZ AUX)
    Blend: AUG-CC-PVTZ-JKFIT

    Orbital Energies [Eh]
    ---------------------

    Doubly Occupied:

       1A    -20.508513     2A    -15.576412     3A    -11.343035
       4A    -11.276115     5A    -11.238427     6A    -11.237414
       7A    -11.234071     8A    -11.233280     9A     -1.364018
      10A     -1.225856    11A     -1.094374    12A     -1.042629
      13A     -0.945566    14A     -0.888480    15A     -0.795515
      16A     -0.763634    17A     -0.687443    18A     -0.676805
      19A     -0.625944    20A     -0.611805    21A     -0.602166
      22A     -0.591744    23A     -0.570577    24A     -0.544965
      25A     -0.519623    26A     -0.515697    27A     -0.481450
      28A     -0.471162    29A     -0.469788    30A     -0.411434
      31A     -0.380896

  @DF-RHF Final Energy:  -363.07511177843634

   => Energetics <=

    Nuclear Repulsion Energy =            394.1111164112096503
    One-Electron Energy =               -1274.5147836684636786
    Two-Electron Energy =                 517.3285554788176341
    Total Energy =                       -363.0751117784363942
  Basis Set: (AUG-CC-PVTZ AUX)
    Blend: AUG-CC-PVTZ-RI
    Molecular point group: c1

    Geometry (in Angstrom), charge = 0, multiplicity = 1:

       Center              X                  Y                   Z               Mass
    ------------   -----------------  -----------------  -----------------  -----------------
         O           -2.464238335212     0.039721969386    -0.392713718911    15.994914619570
         N           -0.635976835212    -1.208751230614    -0.014230618911    14.003074004430
         C            1.914326164788     0.746882769386    -0.023588618911    12.000000000000
         C            1.795001164788    -0.736657230614    -0.369865618911    12.000000000000
         C            0.651247164788     1.578707769386    -0.249077618911    12.000000000000
         C            0.722955164788    -1.477081230614     0.429474381089    12.000000000000
         C           -0.549469835212     1.159941769386     0.613226381089    12.000000000000
         C           -1.310544835212    -0.019516230614     0.041498381089    12.000000000000
         H            2.732948164788     1.180650769386    -0.610973618911     1.007825032230
         H            2.210766164788     0.839144769386     1.030705381089     1.007825032230
         H            1.578831164788    -0.862744230614    -1.437635618911     1.007825032230
         H            2.762634164788    -1.218906230614    -0.179114618911     1.007825032230
         H            0.362636164788     1.545520769386    -1.307399618911     1.007825032230
         H            0.887123164788     2.625915769386    -0.026386618911     1.007825032230
         H            0.868654164788    -2.556389230614     0.327214381089     1.007825032230
         H            0.828823164788    -1.248380230614     1.498962381089     1.007825032230
         H           -1.279841835212     1.970138769386     0.671976381089     1.007825032230
         H           -0.215859835212     0.939155769386     1.636248381089     1.007825032230
         H           -1.172819835212    -1.960365230614    -0.432076618911     1.007825032230

  Basis Set: AUG-CC-PVTZ
    Blend: AUG-CC-PVTZ
  Basis Set: (AUG-CC-PVTZ AUX)
    Blend: AUG-CC-PVTZ-JKFIT
	 Reference Energy          =    -363.0751117784363373 [Eh]
	 Singles Energy            =      -0.0000000000000000 [Eh]
	 Same-Spin Energy          =      -0.3777470964139205 [Eh]
	 Opposite-Spin Energy      =      -1.2476681922496322 [Eh]
	 Correlation Energy        =      -1.6254152886635527 [Eh]
	 Total Energy              =    -364.7005270670998698 [Eh]

	 ================> DF-SCS-MP2 Energies <==================
	-----------------------------------------------------------
	 SCS Same-Spin Scale       =       0.3333333333333333 [-]
	 SCS Opposite-Spin Scale   =       1.2000000000000000 [-]
	 SCS Same-Spin Energy      =      -0.1259156988046402 [Eh]
	 SCS Opposite-Spin Energy  =      -1.4972018306995587 [Eh]
	 SCS Correlation Energy    =      -1.6231175295041989 [Eh]
	 SCS Total Energy          =    -364.6982293079405508 [Eh]
	-----------------------------------------------------------

  Dipole Moment: [D]
     X:     4.0746      Y:    -0.9180      Z:     0.9231     Total:     4.2775

*** Psi4 exiting successfully. Buy a developer a beer!
