                               Psi4 1.3.2 release

  ==> Input File <==

--------------------------------------------------------------------------
#psi4
#
memory 32 gb

molecule  {
0 1
  O       -2.5408865     0.1078407    -0.3825839
  N       -0.7122740    -1.2241950    -0.0249760
  C        1.8380290     0.7314390    -0.0343340
  C        1.7187040    -0.7521010    -0.3806110
  C        0.5749500     1.5632640    -0.2598230
  C        0.6466580    -1.4925250     0.4187290
  C       -0.6257670     1.1444980     0.6024810
  C       -1.3868420    -0.0349600     0.0307530
  H        2.6566510     1.1652070    -0.6217190
  H        2.1344690     0.8237010     1.0199600
  H        1.5025340    -0.8781880    -1.4483810
  H        2.6863370    -1.2343500    -0.1898600
  H        0.2863390     1.5300770    -1.3181450
  H        0.8108260     2.6104720    -0.0371320
  H        0.7923570    -2.5718330     0.3164690
  H        0.7525260    -1.2638240     1.4882170
  H       -1.3561390     1.9546950     0.6612310
  H       -0.2921570     0.9237120     1.6255030
  H       -1.2491170    -1.9758090    -0.4428220
units angstrom
no_reorient  #important for SAPT in psi4, default
symmetry c1  #important for SAPT in psi4, default
}

set PROPERTIES_ORIGIN ["COM"]
properties('MP2/aug-cc-pvtz', properties = ['dipole'])
--------------------------------------------------------------------------

    Molecular point group: c1
  Charge       = 0
  Multiplicity = 1
  Basis Set: AUG-CC-PVTZ
    Blend: AUG-CC-PVTZ
  Basis Set: (AUG-CC-PVTZ AUX)
    Blend: AUG-CC-PVTZ-JKFIT

    Orbital Energies [Eh]
    ---------------------

    Doubly Occupied:

       1A    -20.509558     2A    -15.580893     3A    -11.343074
       4A    -11.278503     5A    -11.235532     6A    -11.234665
       7A    -11.233836     8A    -11.232741     9A     -1.363046
      10A     -1.230595    11A     -1.093563    12A     -1.041700
      13A     -0.945216    14A     -0.888567    15A     -0.795362
      16A     -0.764437    17A     -0.688381    18A     -0.676852
      19A     -0.626475    20A     -0.611920    21A     -0.601602
      22A     -0.591888    23A     -0.569443    24A     -0.545469
      25A     -0.519163    26A     -0.515844    27A     -0.481010
      28A     -0.469920    29A     -0.469003    30A     -0.409445
      31A     -0.384554

  @DF-RHF Final Energy:  -363.07515281390192

   => Energetics <=

    Nuclear Repulsion Energy =            394.0882760384983499
    One-Electron Energy =               -1274.4623412259493307
    Two-Electron Energy =                 517.2989123735490011
    Total Energy =                       -363.0751528139019229
  Basis Set: (AUG-CC-PVTZ AUX)
    Blend: AUG-CC-PVTZ-RI
    Molecular point group: c1

    Geometry (in Angstrom), charge = 0, multiplicity = 1:

       Center              X                  Y                   Z               Mass
    ------------   -----------------  -----------------  -----------------  -----------------
         O           -2.464539688826     0.111465164297    -0.374791163430    15.994914619570
         N           -0.635927188826    -1.220570535703    -0.017183263430    14.003074004430
         C            1.914375811174     0.735063464297    -0.026541263430    12.000000000000
         C            1.795050811174    -0.748476535703    -0.372818263430    12.000000000000
         C            0.651296811174     1.566888464297    -0.252030263430    12.000000000000
         C            0.723004811174    -1.488900535703     0.426521736570    12.000000000000
         C           -0.549420188826     1.148122464297     0.610273736570    12.000000000000
         C           -1.310495188826    -0.031335535703     0.038545736570    12.000000000000
         H            2.732997811174     1.168831464297    -0.613926263430     1.007825032230
         H            2.210815811174     0.827325464297     1.027752736570     1.007825032230
         H            1.578880811174    -0.874563535703    -1.440588263430     1.007825032230
         H            2.762683811174    -1.230725535703    -0.182067263430     1.007825032230
         H            0.362685811174     1.533701464297    -1.310352263430     1.007825032230
         H            0.887172811174     2.614096464297    -0.029339263430     1.007825032230
         H            0.868703811174    -2.568208535703     0.324261736570     1.007825032230
         H            0.828872811174    -1.260199535703     1.496009736570     1.007825032230
         H           -1.279792188826     1.958319464297     0.669023736570     1.007825032230
         H           -0.215810188826     0.927336464297     1.633295736570     1.007825032230
         H           -1.172770188826    -1.972184535703    -0.435029263430     1.007825032230

  Basis Set: AUG-CC-PVTZ
    Blend: AUG-CC-PVTZ
  Basis Set: (AUG-CC-PVTZ AUX)
    Blend: AUG-CC-PVTZ-JKFIT
	 Reference Energy          =    -363.0751528139019229 [Eh]
	 Singles Energy            =      -0.0000000000000000 [Eh]
	 Same-Spin Energy          =      -0.3777289322049704 [Eh]
	 Opposite-Spin Energy      =      -1.2477111835431032 [Eh]
	 Correlation Energy        =      -1.6254401157480736 [Eh]
	 Total Energy              =    -364.7005929296499858 [Eh]

	 ================> DF-SCS-MP2 Energies <==================
	-----------------------------------------------------------
	 SCS Same-Spin Scale       =       0.3333333333333333 [-]
	 SCS Opposite-Spin Scale   =       1.2000000000000000 [-]
	 SCS Same-Spin Energy      =      -0.1259096440683234 [Eh]
	 SCS Opposite-Spin Energy  =      -1.4972534202517238 [Eh]
	 SCS Correlation Energy    =      -1.6231630643200472 [Eh]
	 SCS Total Energy          =    -364.6983158782219903 [Eh]
	-----------------------------------------------------------

  Dipole Moment: [D]
     X:     4.0644      Y:    -1.1542      Z:     0.8694     Total:     4.3136

*** Psi4 exiting successfully. Buy a developer a beer!
