                               Psi4 1.4a3.dev225

  ==> Input File <==

--------------------------------------------------------------------------
#psi4
#
memory 32 gb

molecule  {
0 1
  O       -2.5416370     0.0659770    -0.3927070
  N       -0.7122740    -1.2241950    -0.0249760
  C        1.8380290     0.7314390    -0.0343340
  C        1.7187040    -0.7521010    -0.3806110
  C        0.5749500     1.5632640    -0.2598230
  C        0.6466580    -1.4925250     0.4187290
  C       -0.6257670     1.1444980     0.6024810
  C       -1.3400559    -0.0390494     0.0479093
  H        2.6566510     1.1652070    -0.6217190
  H        2.1344690     0.8237010     1.0199600
  H        1.5025340    -0.8781880    -1.4483810
  H        2.6863370    -1.2343500    -0.1898600
  H        0.2863390     1.5300770    -1.3181450
  H        0.8108260     2.6104720    -0.0371320
  H        0.7923570    -2.5718330     0.3164690
  H        0.7525260    -1.2638240     1.4882170
  H       -1.3561390     1.9546950     0.6612310
  H       -0.2921570     0.9237120     1.6255030
  H       -1.2491170    -1.9758090    -0.4428220
units angstrom
no_reorient  #important for SAPT in psi4, default
symmetry c1  #important for SAPT in psi4, default
}

set PROPERTIES_ORIGIN ["COM"]
properties('MP2/aug-cc-pvtz', properties = ['dipole'])
--------------------------------------------------------------------------

    Molecular point group: c1
  Charge       = 0
  Multiplicity = 1
  Basis Set: AUG-CC-PVTZ
    Blend: AUG-CC-PVTZ
  Basis Set: (AUG-CC-PVTZ AUX)
    Blend: AUG-CC-PVTZ-JKFIT

    Orbital Energies [Eh]
    ---------------------

    Doubly Occupied:

       1A    -20.499109     2A    -15.586276     3A    -11.343930
       4A    -11.280170     5A    -11.238541     6A    -11.237756
       7A    -11.237186     8A    -11.235187     9A     -1.338101
      10A     -1.229528    11A     -1.097923    12A     -1.046889
      13A     -0.950860    14A     -0.893632    15A     -0.798806
      16A     -0.772720    17A     -0.690597    18A     -0.676037
      19A     -0.629538    20A     -0.613792    21A     -0.604354
      22A     -0.584467    23A     -0.571544    24A     -0.539830
      25A     -0.516841    26A     -0.514545    27A     -0.483337
      28A     -0.472974    29A     -0.466706    30A     -0.406014
      31A     -0.379737

  @DF-RHF Final Energy:  -363.06814869261063

   => Energetics <=

    Nuclear Repulsion Energy =            394.2972706008650334
    One-Electron Energy =               -1274.8569806600519314
    Two-Electron Energy =                 517.4915613665763203
    Total Energy =                       -363.0681486926106345
  Basis Set: (AUG-CC-PVTZ AUX)
    Blend: AUG-CC-PVTZ-RI
    Molecular point group: c1

    Geometry (in Angstrom), charge = 0, multiplicity = 1:

       Center              X                  Y                   Z               Mass
    ------------   -----------------  -----------------  -----------------  -----------------
         O           -2.470148778067     0.075956728530    -0.385302978499    15.994914619570
         N           -0.640785778067    -1.214215271470    -0.017571978499    14.003074004430
         C            1.909517221933     0.741418728530    -0.026929978499    12.000000000000
         C            1.790192221933    -0.742121271470    -0.373206978499    12.000000000000
         C            0.646438221933     1.573243728530    -0.252418978499    12.000000000000
         C            0.718146221933    -1.482545271470     0.426133021501    12.000000000000
         C           -0.554278778067     1.154477728530     0.609885021501    12.000000000000
         C           -1.268567678067    -0.029069671470     0.055313321501    12.000000000000
         H            2.728139221933     1.175186728530    -0.614314978499     1.007825032230
         H            2.205957221933     0.833680728530     1.027364021501     1.007825032230
         H            1.574022221933    -0.868208271470    -1.440976978499     1.007825032230
         H            2.757825221933    -1.224370271470    -0.182455978499     1.007825032230
         H            0.357827221933     1.540056728530    -1.310740978499     1.007825032230
         H            0.882314221933     2.620451728530    -0.029727978499     1.007825032230
         H            0.863845221933    -2.561853271470     0.323873021501     1.007825032230
         H            0.824014221933    -1.253844271470     1.495621021501     1.007825032230
         H           -1.284650778067     1.964674728530     0.668635021501     1.007825032230
         H           -0.220668778067     0.933691728530     1.632907021501     1.007825032230
         H           -1.177628778067    -1.965829271470    -0.435417978499     1.007825032230

  Basis Set: AUG-CC-PVTZ
    Blend: AUG-CC-PVTZ
  Basis Set: (AUG-CC-PVTZ AUX)
    Blend: AUG-CC-PVTZ-JKFIT
	 Reference Energy          =    -363.0681486926106345 [Eh]
	 Singles Energy            =      -0.0000000000000000 [Eh]
	 Same-Spin Energy          =      -0.3788510223028416 [Eh]
	 Opposite-Spin Energy      =      -1.2497608673840421 [Eh]
	 Correlation Energy        =      -1.6286118896868838 [Eh]
	 Total Energy              =    -364.6967605822975429 [Eh]

	 ================> DF-SCS-MP2 Energies <==================
	-----------------------------------------------------------
	 SCS Same-Spin Scale       =       0.3333333333333333 [-]
	 SCS Opposite-Spin Scale   =       1.2000000000000000 [-]
	 SCS Same-Spin Energy      =      -0.1262836741009472 [Eh]
	 SCS Opposite-Spin Energy  =      -1.4997130408608506 [Eh]
	 SCS Correlation Energy    =      -1.6259967149617978 [Eh]
	 SCS Total Energy          =    -364.6941454075724209 [Eh]
	-----------------------------------------------------------

  Dipole Moment: [D]
     X:     4.4452      Y:    -1.1433      Z:     0.9840     Total:     4.6942

*** Psi4 exiting successfully. Buy a developer a beer!
