                               Psi4 1.3.2 release

  ==> Input File <==

--------------------------------------------------------------------------
#psi4
#
memory 32 gb

molecule  {
0 1
  O       -2.5416370     0.0659770    -0.3927070
  N       -0.7122740    -1.2241950    -0.0249760
  C        1.7515637     0.6038485    -0.0774807
  C        1.7187040    -0.7521010    -0.3806110
  C        0.5749500     1.5632640    -0.2598230
  C        0.6466580    -1.4925250     0.4187290
  C       -0.6257670     1.1444980     0.6024810
  C       -1.3868420    -0.0349600     0.0307530
  H        2.6566510     1.1652070    -0.6217190
  H        2.1344690     0.8237010     1.0199600
  H        1.5025340    -0.8781880    -1.4483810
  H        2.6863370    -1.2343500    -0.1898600
  H        0.2863390     1.5300770    -1.3181450
  H        0.8108260     2.6104720    -0.0371320
  H        0.7923570    -2.5718330     0.3164690
  H        0.7525260    -1.2638240     1.4882170
  H       -1.3561390     1.9546950     0.6612310
  H       -0.2921570     0.9237120     1.6255030
  H       -1.2491170    -1.9758090    -0.4428220
units angstrom
no_reorient  #important for SAPT in psi4, default
symmetry c1  #important for SAPT in psi4, default
}

set PROPERTIES_ORIGIN ["COM"]
properties('MP2/aug-cc-pvtz', properties = ['dipole'])
--------------------------------------------------------------------------

    Molecular point group: c1
  Charge       = 0
  Multiplicity = 1
  Basis Set: AUG-CC-PVTZ
    Blend: AUG-CC-PVTZ
  Basis Set: (AUG-CC-PVTZ AUX)
    Blend: AUG-CC-PVTZ-JKFIT

    Orbital Energies [Eh]
    ---------------------

    Doubly Occupied:

       1A    -20.509627     2A    -15.580083     3A    -11.343759
       4A    -11.277852     5A    -11.243247     6A    -11.240111
       7A    -11.234944     8A    -11.230561     9A     -1.364139
      10A     -1.231028    11A     -1.110450    12A     -1.051785
      13A     -0.941573    14A     -0.898957    15A     -0.785167
      16A     -0.764953    17A     -0.694112    18A     -0.675964
      19A     -0.632037    20A     -0.621497    21A     -0.604029
      22A     -0.596440    23A     -0.566497    24A     -0.547474
      25A     -0.520423    26A     -0.515453    27A     -0.501447
      28A     -0.459645    29A     -0.442364    30A     -0.409942
      31A     -0.382479

  @DF-RHF Final Energy:  -363.04523385555444

   => Energetics <=

    Nuclear Repulsion Energy =            396.3819568704736866
    One-Electron Energy =               -1278.8983057415673557
    Two-Electron Energy =                 519.4711150155392261
    Total Energy =                       -363.0452338555544429
  Basis Set: (AUG-CC-PVTZ AUX)
    Blend: AUG-CC-PVTZ-RI
    Molecular point group: c1

    Geometry (in Angstrom), charge = 0, multiplicity = 1:

       Center              X                  Y                   Z               Mass
    ------------   -----------------  -----------------  -----------------  -----------------
         O           -2.456008706127     0.089062140096    -0.378903880567    15.994914619570
         N           -0.626645706127    -1.201109859904    -0.011172880567    14.003074004430
         C            1.837191993873     0.626933640096    -0.063677580567    12.000000000000
         C            1.804332293873    -0.729015859904    -0.366807880567    12.000000000000
         C            0.660578293873     1.586349140096    -0.246019880567    12.000000000000
         C            0.732286293873    -1.469439859904     0.432532119433    12.000000000000
         C           -0.540138706127     1.167583140096     0.616284119433    12.000000000000
         C           -1.301213706127    -0.011874859904     0.044556119433    12.000000000000
         H            2.742279293873     1.188292140096    -0.607915880567     1.007825032230
         H            2.220097293873     0.846786140096     1.033763119433     1.007825032230
         H            1.588162293873    -0.855102859904    -1.434577880567     1.007825032230
         H            2.771965293873    -1.211264859904    -0.176056880567     1.007825032230
         H            0.371967293873     1.553162140096    -1.304341880567     1.007825032230
         H            0.896454293873     2.633557140096    -0.023328880567     1.007825032230
         H            0.877985293873    -2.548747859904     0.330272119433     1.007825032230
         H            0.838154293873    -1.240738859904     1.502020119433     1.007825032230
         H           -1.270510706127     1.977780140096     0.675034119433     1.007825032230
         H           -0.206528706127     0.946797140096     1.639306119433     1.007825032230
         H           -1.163488706127    -1.952723859904    -0.429018880567     1.007825032230

  Basis Set: AUG-CC-PVTZ
    Blend: AUG-CC-PVTZ
  Basis Set: (AUG-CC-PVTZ AUX)
    Blend: AUG-CC-PVTZ-JKFIT
	 Reference Energy          =    -363.0452338555544429 [Eh]
	 Singles Energy            =      -0.0000000000000000 [Eh]
	 Same-Spin Energy          =      -0.3797112342999641 [Eh]
	 Opposite-Spin Energy      =      -1.2505643873568935 [Eh]
	 Correlation Energy        =      -1.6302756216568577 [Eh]
	 Total Energy              =    -364.6755094772112784 [Eh]

	 ================> DF-SCS-MP2 Energies <==================
	-----------------------------------------------------------
	 SCS Same-Spin Scale       =       0.3333333333333333 [-]
	 SCS Opposite-Spin Scale   =       1.2000000000000000 [-]
	 SCS Same-Spin Energy      =      -0.1265704114333214 [Eh]
	 SCS Opposite-Spin Energy  =      -1.5006772648282720 [Eh]
	 SCS Correlation Energy    =      -1.6272476762615935 [Eh]
	 SCS Total Energy          =    -364.6724815318160609 [Eh]
	-----------------------------------------------------------

  Dipole Moment: [D]
     X:     4.0000      Y:    -1.1028      Z:     0.8469     Total:     4.2347

*** Psi4 exiting successfully. Buy a developer a beer!
