                               Psi4 1.3.2 release

  ==> Input File <==

--------------------------------------------------------------------------
#psi4
#
memory 32 gb

molecule  {
0 1
 Br       -2.5509741    -0.0000119     0.9131087
 Br       -0.5280640    -1.5862110    -0.9362640
 Br       -0.5280770     1.5862250    -0.9362460
  C        0.2865210    -0.0000040     1.3350980
  C        1.7253110    -0.0000010     0.8978270
  C       -0.7275630    -0.0000010     0.1866520
  C        2.4064250    -1.2084570     0.6972750
  C        2.4064210     1.2084560     0.6972700
  C        3.7400270    -1.2080000     0.2881000
  C        3.7400230     1.2080010     0.2880960
  C        4.4087440     0.0000010     0.0783490
  H        0.0657210     0.8845180     1.9439930
  H        0.0657230    -0.8845300     1.9439880
  H        1.8907430    -2.1510710     0.8652730
  H        1.8907350     2.1510690     0.8652640
  H        4.2591870    -2.1516120     0.1385310
  H        4.2591800     2.1516140     0.1385230
  H        5.4488490     0.0000020    -0.2384650
units angstrom
no_reorient  #important for SAPT in psi4, default
symmetry c1  #important for SAPT in psi4, default
}

set PROPERTIES_ORIGIN ["COM"]
properties('MP2/aug-cc-pvtz', properties = ['dipole'])
--------------------------------------------------------------------------

    Molecular point group: c1
  Charge       = 0
  Multiplicity = 1
  Basis Set: AUG-CC-PVTZ
    Blend: AUG-CC-PVTZ
  Basis Set: (AUG-CC-PVTZ AUX)
    Blend: AUG-CC-PVTZ-JKFIT

    Orbital Energies [Eh]
    ---------------------

    Doubly Occupied:

       1A   -490.040492     2A   -490.038736     3A   -490.038736
       4A    -65.180220     5A    -65.178555     6A    -65.178555
       7A    -58.535619     8A    -58.533977     9A    -58.533975
      10A    -58.533954    11A    -58.533954    12A    -58.532319
      13A    -58.532319    14A    -58.532291    15A    -58.532291
      16A    -11.422136    17A    -11.274087    18A    -11.255114
      19A    -11.245593    20A    -11.245574    21A    -11.244956
      22A    -11.243051    23A    -11.242697    24A     -9.852854
      25A     -9.851264    26A     -9.851259    27A     -7.464785
      28A     -7.463245    29A     -7.463242    30A     -7.457178
      31A     -7.457174    32A     -7.455649    33A     -7.455647
      34A     -7.455521    35A     -7.455519    36A     -3.208712
      37A     -3.207195    38A     -3.207174    39A     -3.204790
      40A     -3.204774    41A     -3.203299    42A     -3.203293
      43A     -3.203118    44A     -3.203115    45A     -3.194920
      46A     -3.194917    47A     -3.193293    48A     -3.193291
      49A     -3.193290    50A     -3.193288    51A     -1.181152
      52A     -1.148866    53A     -1.055422    54A     -1.024654
      55A     -1.016065    56A     -1.014753    57A     -0.966810
      58A     -0.836961    59A     -0.826602    60A     -0.770987
      61A     -0.703255    62A     -0.660494    63A     -0.651802
      64A     -0.613793    65A     -0.602604    66A     -0.595802
      67A     -0.593432    68A     -0.543554    69A     -0.521776
      70A     -0.504351    71A     -0.500479    72A     -0.498340
      73A     -0.449152    74A     -0.446174    75A     -0.430527
      76A     -0.410663    77A     -0.409172    78A     -0.398459
      79A     -0.341822    80A     -0.340080

  @DF-RHF Final Energy: -8024.48441244251990

   => Energetics <=

    Nuclear Repulsion Energy =           1735.1262759714259118
    One-Electron Energy =              -14624.4633521712166839
    Two-Electron Energy =                4864.8526637572704203
    Total Energy =                      -8024.4844124425198970
  Basis Set: (AUG-CC-PVTZ AUX)
    Blend: AUG-CC-PVTZ-RI
    Molecular point group: c1

    Geometry (in Angstrom), charge = 0, multiplicity = 1:

       Center              X                  Y                   Z               Mass
    ------------   -----------------  -----------------  -----------------  -----------------
         BR          -2.401429942185    -0.000012181482     0.961338557468    78.918337600000
         BR          -0.378519842185    -1.586211281482    -0.888034142532    78.918337600000
         BR          -0.378532842185     1.586224718518    -0.888016142532    78.918337600000
         C            0.436065157815    -0.000004281482     1.383327857468    12.000000000000
         C            1.874855157815    -0.000001281482     0.946056857468    12.000000000000
         C           -0.578018842185    -0.000001281482     0.234881857468    12.000000000000
         C            2.555969157815    -1.208457281482     0.745504857468    12.000000000000
         C            2.555965157815     1.208455718518     0.745499857468    12.000000000000
         C            3.889571157815    -1.208000281482     0.336329857468    12.000000000000
         C            3.889567157815     1.208000718518     0.336325857468    12.000000000000
         C            4.558288157815     0.000000718518     0.126578857468    12.000000000000
         H            0.215265157815     0.884517718518     1.992222857468     1.007825032230
         H            0.215267157815    -0.884530281482     1.992217857468     1.007825032230
         H            2.040287157815    -2.151071281482     0.913502857468     1.007825032230
         H            2.040279157815     2.151068718518     0.913493857468     1.007825032230
         H            4.408731157815    -2.151612281482     0.186760857468     1.007825032230
         H            4.408724157815     2.151613718518     0.186752857468     1.007825032230
         H            5.598393157815     0.000001718518    -0.190235142532     1.007825032230

  Basis Set: AUG-CC-PVTZ
    Blend: AUG-CC-PVTZ
  Basis Set: (AUG-CC-PVTZ AUX)
    Blend: AUG-CC-PVTZ-JKFIT
	 Reference Energy          =   -8024.4844124425198970 [Eh]
	 Singles Energy            =      -0.0000000000000000 [Eh]
	 Same-Spin Energy          =      -0.6290105885228309 [Eh]
	 Opposite-Spin Energy      =      -1.7177309332972317 [Eh]
	 Correlation Energy        =      -2.3467415218200625 [Eh]
	 Total Energy              =   -8026.8311539643400465 [Eh]

	 ================> DF-SCS-MP2 Energies <==================
	-----------------------------------------------------------
	 SCS Same-Spin Scale       =       0.3333333333333333 [-]
	 SCS Opposite-Spin Scale   =       1.2000000000000000 [-]
	 SCS Same-Spin Energy      =      -0.2096701961742770 [Eh]
	 SCS Opposite-Spin Energy  =      -2.0612771199566780 [Eh]
	 SCS Correlation Energy    =      -2.2709473161309548 [Eh]
	 SCS Total Energy          =   -8026.7553597586511387 [Eh]
	-----------------------------------------------------------

  Dipole Moment: [D]
     X:     1.5948      Y:    -0.0000      Z:     0.8970     Total:     1.8298

*** Psi4 exiting successfully. Buy a developer a beer!
