                               Psi4 1.3.2 release

  ==> Input File <==

--------------------------------------------------------------------------
#psi4
#
memory 32 gb

molecule  {
0 1
 Br       -2.5380180    -0.0000120     0.9448210
 Br       -0.5280640    -1.5862110    -0.9362640
 Br       -0.5280770     1.5862250    -0.9362460
  C        0.2865210    -0.0000040     1.3350980
  C        1.7253110    -0.0000010     0.8978270
  C       -0.7486165     0.0449780     0.2064876
  C        2.4064250    -1.2084570     0.6972750
  C        2.4064210     1.2084560     0.6972700
  C        3.7400270    -1.2080000     0.2881000
  C        3.7400230     1.2080010     0.2880960
  C        4.4087440     0.0000010     0.0783490
  H        0.0657210     0.8845180     1.9439930
  H        0.0657230    -0.8845300     1.9439880
  H        1.8907430    -2.1510710     0.8652730
  H        1.8907350     2.1510690     0.8652640
  H        4.2591870    -2.1516120     0.1385310
  H        4.2591800     2.1516140     0.1385230
  H        5.4488490     0.0000020    -0.2384650
units angstrom
no_reorient  #important for SAPT in psi4, default
symmetry c1  #important for SAPT in psi4, default
}

set PROPERTIES_ORIGIN ["COM"]
properties('MP2/aug-cc-pvtz', properties = ['dipole'])
--------------------------------------------------------------------------

    Molecular point group: c1
  Charge       = 0
  Multiplicity = 1
  Basis Set: AUG-CC-PVTZ
    Blend: AUG-CC-PVTZ
  Basis Set: (AUG-CC-PVTZ AUX)
    Blend: AUG-CC-PVTZ-JKFIT

    Orbital Energies [Eh]
    ---------------------

    Doubly Occupied:

       1A   -490.043835     2A   -490.041904     3A   -490.032863
       4A    -65.183635     5A    -65.181771     6A    -65.172568
       7A    -58.539026     8A    -58.537393     9A    -58.537385
      10A    -58.537165    11A    -58.535533    12A    -58.535503
      13A    -58.527974    14A    -58.526338    15A    -58.526312
      16A    -11.422423    17A    -11.273902    18A    -11.254933
      19A    -11.245462    20A    -11.245196    21A    -11.244713
      22A    -11.242751    23A    -11.242373    24A     -9.856402
      25A     -9.854583    26A     -9.845048    27A     -7.468394
      28A     -7.466619    29A     -7.460731    30A     -7.460713
      31A     -7.458961    32A     -7.458831    33A     -7.456903
      34A     -7.449454    35A     -7.449332    36A     -3.212362
      37A     -3.210602    38A     -3.208359    39A     -3.208337
      40A     -3.206639    41A     -3.206451    42A     -3.200756
      43A     -3.198447    44A     -3.198444    45A     -3.197028
      46A     -3.196858    47A     -3.196585    48A     -3.196581
      49A     -3.187160    50A     -3.187157    51A     -1.181148
      52A     -1.149339    53A     -1.055564    54A     -1.024978
      55A     -1.020908    56A     -1.009109    57A     -0.966806
      58A     -0.836645    59A     -0.826860    60A     -0.770565
      61A     -0.702916    62A     -0.660251    63A     -0.651762
      64A     -0.614084    65A     -0.602449    66A     -0.596009
      67A     -0.592994    68A     -0.544841    69A     -0.520554
      70A     -0.504648    71A     -0.499956    72A     -0.497829
      73A     -0.450244    74A     -0.445163    75A     -0.429074
      76A     -0.413478    77A     -0.407883    78A     -0.398285
      79A     -0.341507    80A     -0.339713

  @DF-RHF Final Energy: -8024.48323867787349

   => Energetics <=

    Nuclear Repulsion Energy =           1734.2459577267095483
    One-Electron Energy =              -14622.6898828995272197
    Two-Electron Energy =                4863.9606864949446390
    Total Energy =                      -8024.4832386778734872
  Basis Set: (AUG-CC-PVTZ AUX)
    Blend: AUG-CC-PVTZ-RI
    Molecular point group: c1

    Geometry (in Angstrom), charge = 0, multiplicity = 1:

       Center              X                  Y                   Z               Mass
    ------------   -----------------  -----------------  -----------------  -----------------
         BR          -2.390739320993    -0.001600640991     0.984985435888    78.918337600000
         BR          -0.380785320993    -1.587799640991    -0.896099564112    78.918337600000
         BR          -0.380798320993     1.584636359009    -0.896081564112    78.918337600000
         C            0.433799679007    -0.001592640991     1.375262435888    12.000000000000
         C            1.872589679007    -0.001589640991     0.937991435888    12.000000000000
         C           -0.601337820993     0.043389359009     0.246652035888    12.000000000000
         C            2.553703679007    -1.210045640991     0.737439435888    12.000000000000
         C            2.553699679007     1.206867359009     0.737434435888    12.000000000000
         C            3.887305679007    -1.209588640991     0.328264435888    12.000000000000
         C            3.887301679007     1.206412359009     0.328260435888    12.000000000000
         C            4.556022679007    -0.001587640991     0.118513435888    12.000000000000
         H            0.212999679007     0.882929359009     1.984157435888     1.007825032230
         H            0.213001679007    -0.886118640991     1.984152435888     1.007825032230
         H            2.038021679007    -2.152659640991     0.905437435888     1.007825032230
         H            2.038013679007     2.149480359009     0.905428435888     1.007825032230
         H            4.406465679007    -2.153200640991     0.178695435888     1.007825032230
         H            4.406458679007     2.150025359009     0.178687435888     1.007825032230
         H            5.596127679007    -0.001586640991    -0.198300564112     1.007825032230

  Basis Set: AUG-CC-PVTZ
    Blend: AUG-CC-PVTZ
  Basis Set: (AUG-CC-PVTZ AUX)
    Blend: AUG-CC-PVTZ-JKFIT
	 Reference Energy          =   -8024.4832386778734872 [Eh]
	 Singles Energy            =      -0.0000000000000000 [Eh]
	 Same-Spin Energy          =      -0.6290714432902116 [Eh]
	 Opposite-Spin Energy      =      -1.7178454859579191 [Eh]
	 Correlation Energy        =      -2.3469169292481307 [Eh]
	 Total Energy              =   -8026.8301556071219238 [Eh]

	 ================> DF-SCS-MP2 Energies <==================
	-----------------------------------------------------------
	 SCS Same-Spin Scale       =       0.3333333333333333 [-]
	 SCS Opposite-Spin Scale   =       1.2000000000000000 [-]
	 SCS Same-Spin Energy      =      -0.2096904810967372 [Eh]
	 SCS Opposite-Spin Energy  =      -2.0614145831495030 [Eh]
	 SCS Correlation Energy    =      -2.2711050642462403 [Eh]
	 SCS Total Energy          =   -8026.7543437421199997 [Eh]
	-----------------------------------------------------------

  Dipole Moment: [D]
     X:     1.4883      Y:     0.2015      Z:     0.9737     Total:     1.7899

*** Psi4 exiting successfully. Buy a developer a beer!
