                               Psi4 1.3.2 release

  ==> Input File <==

--------------------------------------------------------------------------
#psi4
#
memory 32 gb

molecule  {
0 1
 Br       -2.5380180    -0.0000120     0.9448210
 Br       -0.5280640    -1.5862110    -0.9362640
 Br       -0.5280770     1.5862250    -0.9362460
  C        0.2865210    -0.0000040     1.3350980
  C        1.7253110    -0.0000010     0.8978270
  C       -0.7869161     0.1347170     0.2502581
  C        2.4064250    -1.2084570     0.6972750
  C        2.4064210     1.2084560     0.6972700
  C        3.7400270    -1.2080000     0.2881000
  C        3.7400230     1.2080010     0.2880960
  C        4.4087440     0.0000010     0.0783490
  H        0.0657210     0.8845180     1.9439930
  H        0.0657230    -0.8845300     1.9439880
  H        1.8907430    -2.1510710     0.8652730
  H        1.8907350     2.1510690     0.8652640
  H        4.2591870    -2.1516120     0.1385310
  H        4.2591800     2.1516140     0.1385230
  H        5.4488490     0.0000020    -0.2384650
units angstrom
no_reorient  #important for SAPT in psi4, default
symmetry c1  #important for SAPT in psi4, default
}

set PROPERTIES_ORIGIN ["COM"]
properties('MP2/aug-cc-pvtz', properties = ['dipole'])
--------------------------------------------------------------------------

    Molecular point group: c1
  Charge       = 0
  Multiplicity = 1
  Basis Set: AUG-CC-PVTZ
    Blend: AUG-CC-PVTZ
  Basis Set: (AUG-CC-PVTZ AUX)
    Blend: AUG-CC-PVTZ-JKFIT

    Orbital Energies [Eh]
    ---------------------

    Doubly Occupied:

       1A   -490.050711     2A   -490.047855     3A   -490.018507
       4A    -65.190654     5A    -65.187831     6A    -65.158161
       7A    -58.546027     8A    -58.544411     9A    -58.544390
      10A    -58.543210    11A    -58.541591    12A    -58.541549
      13A    -58.513532    14A    -58.511956    15A    -58.511929
      16A    -11.425452    17A    -11.275560    18A    -11.255501
      19A    -11.245774    20A    -11.244944    21A    -11.244642
      22A    -11.242595    23A    -11.242000    24A     -9.863706
      25A     -9.860869    26A     -9.830406    27A     -7.475823
      28A     -7.473007    29A     -7.468037    30A     -7.467974
      31A     -7.465244    32A     -7.465074    33A     -7.441953
      34A     -7.434944    35A     -7.434817    36A     -3.219881
      37A     -3.217069    38A     -3.215736    39A     -3.215638
      40A     -3.212989    41A     -3.212732    42A     -3.205690
      43A     -3.205685    44A     -3.202812    45A     -3.202806
      46A     -3.185578    47A     -3.182217    48A     -3.182044
      49A     -3.172859    50A     -3.172856    51A     -1.183464
      52A     -1.152148    53A     -1.058101    54A     -1.034974
      55A     -1.022138    56A     -0.994018    57A     -0.967751
      58A     -0.836552    59A     -0.828030    60A     -0.770560
      61A     -0.702824    62A     -0.660380    63A     -0.652192
      64A     -0.617595    65A     -0.603241    66A     -0.597889
      67A     -0.592518    68A     -0.549021    69A     -0.519649
      70A     -0.506180    71A     -0.499475    72A     -0.496763
      73A     -0.455113    74A     -0.445759    75A     -0.420892
      76A     -0.417885    77A     -0.399515    78A     -0.393755
      79A     -0.341341    80A     -0.339067

  @DF-RHF Final Energy: -8024.47373028779202

   => Energetics <=

    Nuclear Repulsion Energy =           1733.9015030762761853
    One-Electron Energy =              -14621.9984203163257916
    Two-Electron Energy =                4863.6231869522571287
    Total Energy =                      -8024.4737302877920229
  Basis Set: (AUG-CC-PVTZ AUX)
    Blend: AUG-CC-PVTZ-RI
    Molecular point group: c1

    Geometry (in Angstrom), charge = 0, multiplicity = 1:

       Center              X                  Y                   Z               Mass
    ------------   -----------------  -----------------  -----------------  -----------------
         BR          -2.389386813749    -0.004769672720     0.983439729971    78.918337600000
         BR          -0.379432813749    -1.590968672720    -0.897645270029    78.918337600000
         BR          -0.379445813749     1.581467327280    -0.897627270029    78.918337600000
         C            0.435152186251    -0.004761672720     1.373716729971    12.000000000000
         C            1.873942186251    -0.004758672720     0.936445729971    12.000000000000
         C           -0.638284913749     0.129959327280     0.288876829971    12.000000000000
         C            2.555056186251    -1.213214672720     0.735893729971    12.000000000000
         C            2.555052186251     1.203698327280     0.735888729971    12.000000000000
         C            3.888658186251    -1.212757672720     0.326718729971    12.000000000000
         C            3.888654186251     1.203243327280     0.326714729971    12.000000000000
         C            4.557375186251    -0.004756672720     0.116967729971    12.000000000000
         H            0.214352186251     0.879760327280     1.982611729971     1.007825032230
         H            0.214354186251    -0.889287672720     1.982606729971     1.007825032230
         H            2.039374186251    -2.155828672720     0.903891729971     1.007825032230
         H            2.039366186251     2.146311327280     0.903882729971     1.007825032230
         H            4.407818186251    -2.156369672720     0.177149729971     1.007825032230
         H            4.407811186251     2.146856327280     0.177141729971     1.007825032230
         H            5.597480186251    -0.004755672720    -0.199846270029     1.007825032230

  Basis Set: AUG-CC-PVTZ
    Blend: AUG-CC-PVTZ
  Basis Set: (AUG-CC-PVTZ AUX)
    Blend: AUG-CC-PVTZ-JKFIT
	 Reference Energy          =   -8024.4737302877920229 [Eh]
	 Singles Energy            =      -0.0000000000000000 [Eh]
	 Same-Spin Energy          =      -0.6296639309699418 [Eh]
	 Opposite-Spin Energy      =      -1.7185667157660354 [Eh]
	 Correlation Energy        =      -2.3482306467359773 [Eh]
	 Total Energy              =   -8026.8219609345278514 [Eh]

	 ================> DF-SCS-MP2 Energies <==================
	-----------------------------------------------------------
	 SCS Same-Spin Scale       =       0.3333333333333333 [-]
	 SCS Opposite-Spin Scale   =       1.2000000000000000 [-]
	 SCS Same-Spin Energy      =      -0.2098879769899806 [Eh]
	 SCS Opposite-Spin Energy  =      -2.0622800589192423 [Eh]
	 SCS Correlation Energy    =      -2.2721680359092229 [Eh]
	 SCS Total Energy          =   -8026.7458983237011125 [Eh]
	-----------------------------------------------------------

  Dipole Moment: [D]
     X:     1.3007      Y:     0.6079      Z:     1.1669     Total:     1.8502

*** Psi4 exiting successfully. Buy a developer a beer!
