                               Psi4 1.3.2 release

  ==> Input File <==

--------------------------------------------------------------------------
#psi4
#
memory 32 gb

molecule  {
0 1
 Br       -2.5380180    -0.0000120     0.9448210
 Br       -0.5280640    -1.5862110    -0.9362640
 Br       -0.5280770     1.5862250    -0.9362460
  C        0.2865210    -0.0000040     1.3350980
  C        1.6717219    -0.0000005     0.7498279
  C       -0.7275630    -0.0000010     0.1866520
  C        2.4064250    -1.2084570     0.6972750
  C        2.4064210     1.2084560     0.6972700
  C        3.7400270    -1.2080000     0.2881000
  C        3.7400230     1.2080010     0.2880960
  C        4.4087440     0.0000010     0.0783490
  H        0.0657210     0.8845180     1.9439930
  H        0.0657230    -0.8845300     1.9439880
  H        1.8907430    -2.1510710     0.8652730
  H        1.8907350     2.1510690     0.8652640
  H        4.2591870    -2.1516120     0.1385310
  H        4.2591800     2.1516140     0.1385230
  H        5.4488490     0.0000020    -0.2384650
units angstrom
no_reorient  #important for SAPT in psi4, default
symmetry c1  #important for SAPT in psi4, default
}

set PROPERTIES_ORIGIN ["COM"]
properties('MP2/aug-cc-pvtz', properties = ['dipole'])
--------------------------------------------------------------------------

    Molecular point group: c1
  Charge       = 0
  Multiplicity = 1
  Basis Set: AUG-CC-PVTZ
    Blend: AUG-CC-PVTZ
  Basis Set: (AUG-CC-PVTZ AUX)
    Blend: AUG-CC-PVTZ-JKFIT

    Orbital Energies [Eh]
    ---------------------

    Doubly Occupied:

       1A   -490.038730     2A   -490.038730     3A   -490.038310
       4A    -65.178543     5A    -65.178542     6A    -65.178075
       7A    -58.533943     8A    -58.533943     9A    -58.533456
      10A    -58.532306    11A    -58.532306    12A    -58.532277
      13A    -58.532277    14A    -58.531847    15A    -58.531840
      16A    -11.420022    17A    -11.275065    18A    -11.257417
      19A    -11.248166    20A    -11.248090    21A    -11.245940
      22A    -11.242850    23A    -11.242611    24A     -9.851239
      25A     -9.851234    26A     -9.850732    27A     -7.463224
      28A     -7.463220    29A     -7.462599    30A     -7.455624
      31A     -7.455622    32A     -7.455489    33A     -7.455487
      34A     -7.455120    35A     -7.455105    36A     -3.207180
      37A     -3.207159    38A     -3.206485    39A     -3.203283
      40A     -3.203278    41A     -3.203090    42A     -3.203087
      43A     -3.202619    44A     -3.202615    45A     -3.193259
      46A     -3.193256    47A     -3.193255    48A     -3.193252
      49A     -3.192917    50A     -3.192913    51A     -1.181875
      52A     -1.147489    53A     -1.054247    54A     -1.024269
      55A     -1.015792    56A     -1.014461    57A     -0.965769
      58A     -0.834855    59A     -0.825142    60A     -0.769168
      61A     -0.704556    62A     -0.660035    63A     -0.655679
      64A     -0.614119    65A     -0.600911    66A     -0.593345
      67A     -0.592767    68A     -0.543929    69A     -0.521283
      70A     -0.507677    71A     -0.496928    72A     -0.496596
      73A     -0.448582    74A     -0.446162    75A     -0.427344
      76A     -0.410821    77A     -0.409504    78A     -0.398234
      79A     -0.340797    80A     -0.338347

  @DF-RHF Final Energy: -8024.47371191749608

   => Energetics <=

    Nuclear Repulsion Energy =           1736.9792960982422301
    One-Electron Energy =              -14628.2294024784514477
    Two-Electron Energy =                4866.7763944627122328
    Total Energy =                      -8024.4737119174960753
  Basis Set: (AUG-CC-PVTZ AUX)
    Blend: AUG-CC-PVTZ-RI
    Molecular point group: c1

    Geometry (in Angstrom), charge = 0, multiplicity = 1:

       Center              X                  Y                   Z               Mass
    ------------   -----------------  -----------------  -----------------  -----------------
         BR          -2.389590362918    -0.000012275914     0.990912329318    78.918337600000
         BR          -0.379636362918    -1.586211275914    -0.890172670682    78.918337600000
         BR          -0.379649362918     1.586224724086    -0.890154670682    78.918337600000
         C            0.434948637082    -0.000004275914     1.381189329318    12.000000000000
         C            1.820149537082    -0.000000775914     0.795919229318    12.000000000000
         C           -0.579135362918    -0.000001275914     0.232743329318    12.000000000000
         C            2.554852637082    -1.208457275914     0.743366329318    12.000000000000
         C            2.554848637082     1.208455724086     0.743361329318    12.000000000000
         C            3.888454637082    -1.208000275914     0.334191329318    12.000000000000
         C            3.888450637082     1.208000724086     0.334187329318    12.000000000000
         C            4.557171637082     0.000000724086     0.124440329318    12.000000000000
         H            0.214148637082     0.884517724086     1.990084329318     1.007825032230
         H            0.214150637082    -0.884530275914     1.990079329318     1.007825032230
         H            2.039170637082    -2.151071275914     0.911364329318     1.007825032230
         H            2.039162637082     2.151068724086     0.911355329318     1.007825032230
         H            4.407614637082    -2.151612275914     0.184622329318     1.007825032230
         H            4.407607637082     2.151613724086     0.184614329318     1.007825032230
         H            5.597276637082     0.000001724086    -0.192373670682     1.007825032230

  Basis Set: AUG-CC-PVTZ
    Blend: AUG-CC-PVTZ
  Basis Set: (AUG-CC-PVTZ AUX)
    Blend: AUG-CC-PVTZ-JKFIT
	 Reference Energy          =   -8024.4737119174960753 [Eh]
	 Singles Energy            =      -0.0000000000000000 [Eh]
	 Same-Spin Energy          =      -0.6302649970319880 [Eh]
	 Opposite-Spin Energy      =      -1.7202291469153188 [Eh]
	 Correlation Energy        =      -2.3504941439473068 [Eh]
	 Total Energy              =   -8026.8242060614429647 [Eh]

	 ================> DF-SCS-MP2 Energies <==================
	-----------------------------------------------------------
	 SCS Same-Spin Scale       =       0.3333333333333333 [-]
	 SCS Opposite-Spin Scale   =       1.2000000000000000 [-]
	 SCS Same-Spin Energy      =      -0.2100883323439960 [Eh]
	 SCS Opposite-Spin Energy  =      -2.0642749762983823 [Eh]
	 SCS Correlation Energy    =      -2.2743633086423785 [Eh]
	 SCS Total Energy          =   -8026.7480752261380985 [Eh]
	-----------------------------------------------------------

  Dipole Moment: [D]
     X:     1.7067      Y:    -0.0000      Z:     0.9366     Total:     1.9468

*** Psi4 exiting successfully. Buy a developer a beer!
