                               Psi4 1.3.2 release

  ==> Input File <==

--------------------------------------------------------------------------
#psi4
#
memory 32 gb

molecule  {
0 1
 Br       -2.5104554    -0.0000123     1.0075431
 Br       -0.5280640    -1.5862110    -0.9362640
 Br       -0.5280770     1.5862250    -0.9362460
  C        0.2865210    -0.0000040     1.3350980
  C        1.7253110    -0.0000010     0.8978270
  C       -0.7275630    -0.0000010     0.1866520
  C        2.4064250    -1.2084570     0.6972750
  C        2.4064210     1.2084560     0.6972700
  C        3.7400270    -1.2080000     0.2881000
  C        3.7400230     1.2080010     0.2880960
  C        4.4087440     0.0000010     0.0783490
  H        0.0657210     0.8845180     1.9439930
  H        0.0657230    -0.8845300     1.9439880
  H        1.8907430    -2.1510710     0.8652730
  H        1.8907350     2.1510690     0.8652640
  H        4.2591870    -2.1516120     0.1385310
  H        4.2591800     2.1516140     0.1385230
  H        5.4488490     0.0000020    -0.2384650
units angstrom
no_reorient  #important for SAPT in psi4, default
symmetry c1  #important for SAPT in psi4, default
}

set PROPERTIES_ORIGIN ["COM"]
properties('MP2/aug-cc-pvtz', properties = ['dipole'])
--------------------------------------------------------------------------

    Molecular point group: c1
  Charge       = 0
  Multiplicity = 1
  Basis Set: AUG-CC-PVTZ
    Blend: AUG-CC-PVTZ
  Basis Set: (AUG-CC-PVTZ AUX)
    Blend: AUG-CC-PVTZ-JKFIT

    Orbital Energies [Eh]
    ---------------------

    Doubly Occupied:

       1A   -490.040555     2A   -490.039860     3A   -490.039860
       4A    -65.180295     5A    -65.179641     6A    -65.179641
       7A    -58.535691     8A    -58.535047     9A    -58.535047
      10A    -58.534060    11A    -58.534048    12A    -58.533404
      13A    -58.533404    14A    -58.533380    15A    -58.533380
      16A    -11.422032    17A    -11.272897    18A    -11.254232
      19A    -11.245146    20A    -11.245145    21A    -11.244569
      22A    -11.242771    23A    -11.242404    24A     -9.852930
      25A     -9.852312    26A     -9.852307    27A     -7.464849
      28A     -7.464300    29A     -7.464296    30A     -7.457284
      31A     -7.457249    32A     -7.456677    33A     -7.456675
      34A     -7.456568    35A     -7.456565    36A     -3.208764
      37A     -3.208260    38A     -3.208240    39A     -3.204866
      40A     -3.204830    41A     -3.204339    42A     -3.204334
      43A     -3.204187    44A     -3.204184    45A     -3.195024
      46A     -3.195019    47A     -3.194324    48A     -3.194322
      49A     -3.194321    50A     -3.194319    51A     -1.181160
      52A     -1.148681    53A     -1.054248    54A     -1.024500
      55A     -1.018351    56A     -1.015074    57A     -0.965359
      58A     -0.836593    59A     -0.826180    60A     -0.771094
      61A     -0.703040    62A     -0.660287    63A     -0.651695
      64A     -0.612382    65A     -0.602594    66A     -0.595792
      67A     -0.593165    68A     -0.544314    69A     -0.520816
      70A     -0.503789    71A     -0.500705    72A     -0.497802
      73A     -0.448519    74A     -0.446673    75A     -0.428306
      76A     -0.412093    77A     -0.411613    78A     -0.400025
      79A     -0.341606    80A     -0.339730

  @DF-RHF Final Energy: -8024.48430063142496

   => Energetics <=

    Nuclear Repulsion Energy =           1733.0447971713854258
    One-Electron Energy =              -14620.2501042547992256
    Two-Electron Energy =                4862.7210064519886146
    Total Energy =                      -8024.4843006314249578
  Basis Set: (AUG-CC-PVTZ AUX)
    Blend: AUG-CC-PVTZ-RI
    Molecular point group: c1

    Geometry (in Angstrom), charge = 0, multiplicity = 1:

       Center              X                  Y                   Z               Mass
    ------------   -----------------  -----------------  -----------------  -----------------
         BR          -2.370321413870    -0.000012488585     1.033841258845    78.918337600000
         BR          -0.387930013870    -1.586211188585    -0.909965841155    78.918337600000
         BR          -0.387943013870     1.586224811415    -0.909947841155    78.918337600000
         C            0.426654986130    -0.000004188585     1.361396158845    12.000000000000
         C            1.865444986130    -0.000001188585     0.924125158845    12.000000000000
         C           -0.587429013870    -0.000001188585     0.212950158845    12.000000000000
         C            2.546558986130    -1.208457188585     0.723573158845    12.000000000000
         C            2.546554986130     1.208455811415     0.723568158845    12.000000000000
         C            3.880160986130    -1.208000188585     0.314398158845    12.000000000000
         C            3.880156986130     1.208000811415     0.314394158845    12.000000000000
         C            4.548877986130     0.000000811415     0.104647158845    12.000000000000
         H            0.205854986130     0.884517811415     1.970291158845     1.007825032230
         H            0.205856986130    -0.884530188585     1.970286158845     1.007825032230
         H            2.030876986130    -2.151071188585     0.891571158845     1.007825032230
         H            2.030868986130     2.151068811415     0.891562158845     1.007825032230
         H            4.399320986130    -2.151612188585     0.164829158845     1.007825032230
         H            4.399313986130     2.151613811415     0.164821158845     1.007825032230
         H            5.588982986130     0.000001811415    -0.212166841155     1.007825032230

  Basis Set: AUG-CC-PVTZ
    Blend: AUG-CC-PVTZ
  Basis Set: (AUG-CC-PVTZ AUX)
    Blend: AUG-CC-PVTZ-JKFIT
	 Reference Energy          =   -8024.4843006314249578 [Eh]
	 Singles Energy            =      -0.0000000000000000 [Eh]
	 Same-Spin Energy          =      -0.6290425132180042 [Eh]
	 Opposite-Spin Energy      =      -1.7179112749434493 [Eh]
	 Correlation Energy        =      -2.3469537881614535 [Eh]
	 Total Energy              =   -8026.8312544195860028 [Eh]

	 ================> DF-SCS-MP2 Energies <==================
	-----------------------------------------------------------
	 SCS Same-Spin Scale       =       0.3333333333333333 [-]
	 SCS Opposite-Spin Scale   =       1.2000000000000000 [-]
	 SCS Same-Spin Energy      =      -0.2096808377393347 [Eh]
	 SCS Opposite-Spin Energy  =      -2.0614935299321391 [Eh]
	 SCS Correlation Energy    =      -2.2711743676714740 [Eh]
	 SCS Total Energy          =   -8026.7554749990968048 [Eh]
	-----------------------------------------------------------

  Dipole Moment: [D]
     X:     1.5764      Y:    -0.0000      Z:     0.8554     Total:     1.7935

*** Psi4 exiting successfully. Buy a developer a beer!
