                               Psi4 1.3.2 release

  ==> Input File <==

--------------------------------------------------------------------------
#psi4
#
memory 32 gb

molecule  {
0 1
 Br       -2.5380180    -0.0000120     0.9448210
 Br       -0.5280640    -1.5862110    -0.9362640
 Br       -0.5280770     1.5862250    -0.9362460
  C        0.2865210    -0.0000040     1.3350980
  C        1.7253110    -0.0000010     0.8978270
  C       -0.7165712    -0.0224939     0.1772575
  C        2.4064250    -1.2084570     0.6972750
  C        2.4064210     1.2084560     0.6972700
  C        3.7400270    -1.2080000     0.2881000
  C        3.7400230     1.2080010     0.2880960
  C        4.4087440     0.0000010     0.0783490
  H        0.0657210     0.8845180     1.9439930
  H        0.0657230    -0.8845300     1.9439880
  H        1.8907430    -2.1510710     0.8652730
  H        1.8907350     2.1510690     0.8652640
  H        4.2591870    -2.1516120     0.1385310
  H        4.2591800     2.1516140     0.1385230
  H        5.4488490     0.0000020    -0.2384650
units angstrom
no_reorient  #important for SAPT in psi4, default
symmetry c1  #important for SAPT in psi4, default
}

set PROPERTIES_ORIGIN ["COM"]
properties('MP2/aug-cc-pvtz', properties = ['dipole'])
--------------------------------------------------------------------------

    Molecular point group: c1
  Charge       = 0
  Multiplicity = 1
  Basis Set: AUG-CC-PVTZ
    Blend: AUG-CC-PVTZ
  Basis Set: (AUG-CC-PVTZ AUX)
    Blend: AUG-CC-PVTZ-JKFIT

    Orbital Energies [Eh]
    ---------------------

    Doubly Occupied:

       1A   -490.042063     2A   -490.038860     3A   -490.037731
       4A    -65.181940     5A    -65.178559     6A    -65.177506
       7A    -58.537333     8A    -58.535701     9A    -58.535674
      10A    -58.533960    11A    -58.532911    12A    -58.532320
      13A    -58.532316    14A    -58.531270    15A    -58.531245
      16A    -11.422234    17A    -11.273734    18A    -11.254822
      19A    -11.245593    20A    -11.245462    21A    -11.244912
      22A    -11.243103    23A    -11.242727    24A     -9.854767
      25A     -9.851128    26A     -9.850141    27A     -7.466810
      28A     -7.463021    29A     -7.462098    30A     -7.459143
      31A     -7.459021    32A     -7.455463    33A     -7.455458
      34A     -7.454522    35A     -7.454402    36A     -3.210796
      37A     -3.206920    38A     -3.206817    39A     -3.206646
      40A     -3.206024    41A     -3.203044    42A     -3.203037
      43A     -3.202162    44A     -3.201998    45A     -3.196768
      46A     -3.196766    47A     -3.193224    48A     -3.193220
      49A     -3.192177    50A     -3.192175    51A     -1.181448
      52A     -1.148851    53A     -1.055127    54A     -1.025232
      55A     -1.017850    56A     -1.013421    57A     -0.966146
      58A     -0.836977    59A     -0.826309    60A     -0.771345
      61A     -0.703369    62A     -0.660548    63A     -0.651815
      64A     -0.613287    65A     -0.602790    66A     -0.596010
      67A     -0.593451    68A     -0.543597    69A     -0.521997
      70A     -0.504046    71A     -0.500884    72A     -0.498303
      73A     -0.450252    74A     -0.445136    75A     -0.429333
      76A     -0.412136    77A     -0.408751    78A     -0.398915
      79A     -0.341921    80A     -0.340083

  @DF-RHF Final Energy: -8024.48413268867716

   => Energetics <=

    Nuclear Repulsion Energy =           1734.4537184316238836
    One-Electron Energy =              -14623.0975961825497507
    Two-Electron Energy =                4864.1597450622493852
    Total Energy =                      -8024.4841326886771640
  Basis Set: (AUG-CC-PVTZ AUX)
    Blend: AUG-CC-PVTZ-RI
    Molecular point group: c1

    Geometry (in Angstrom), charge = 0, multiplicity = 1:

       Center              X                  Y                   Z               Mass
    ------------   -----------------  -----------------  -----------------  -----------------
         BR          -2.391870964676     0.000782053176     0.986017663953    78.918337600000
         BR          -0.381916964676    -1.585416946824    -0.895067336047    78.918337600000
         BR          -0.381929964676     1.587019053176    -0.895049336047    78.918337600000
         C            0.432668035324     0.000790053176     1.376294663953    12.000000000000
         C            1.871458035324     0.000793053176     0.939023663953    12.000000000000
         C           -0.570424164676    -0.021699846824     0.218454163953    12.000000000000
         C            2.552572035324    -1.207662946824     0.738471663953    12.000000000000
         C            2.552568035324     1.209250053176     0.738466663953    12.000000000000
         C            3.886174035324    -1.207205946824     0.329296663953    12.000000000000
         C            3.886170035324     1.208795053176     0.329292663953    12.000000000000
         C            4.554891035324     0.000795053176     0.119545663953    12.000000000000
         H            0.211868035324     0.885312053176     1.985189663953     1.007825032230
         H            0.211870035324    -0.883735946824     1.985184663953     1.007825032230
         H            2.036890035324    -2.150276946824     0.906469663953     1.007825032230
         H            2.036882035324     2.151863053176     0.906460663953     1.007825032230
         H            4.405334035324    -2.150817946824     0.179727663953     1.007825032230
         H            4.405327035324     2.152408053176     0.179719663953     1.007825032230
         H            5.594996035324     0.000796053176    -0.197268336047     1.007825032230

  Basis Set: AUG-CC-PVTZ
    Blend: AUG-CC-PVTZ
  Basis Set: (AUG-CC-PVTZ AUX)
    Blend: AUG-CC-PVTZ-JKFIT
	 Reference Energy          =   -8024.4841326886771640 [Eh]
	 Singles Energy            =      -0.0000000000000000 [Eh]
	 Same-Spin Energy          =      -0.6290527343914258 [Eh]
	 Opposite-Spin Energy      =      -1.7178338064531256 [Eh]
	 Correlation Energy        =      -2.3468865408445514 [Eh]
	 Total Energy              =   -8026.8310192295220986 [Eh]

	 ================> DF-SCS-MP2 Energies <==================
	-----------------------------------------------------------
	 SCS Same-Spin Scale       =       0.3333333333333333 [-]
	 SCS Opposite-Spin Scale   =       1.2000000000000000 [-]
	 SCS Same-Spin Energy      =      -0.2096842447971419 [Eh]
	 SCS Opposite-Spin Energy  =      -2.0614005677437506 [Eh]
	 SCS Correlation Energy    =      -2.2710848125408925 [Eh]
	 SCS Total Energy          =   -8026.7552175012178850 [Eh]
	-----------------------------------------------------------

  Dipole Moment: [D]
     X:     1.6412      Y:    -0.1016      Z:     0.8390     Total:     1.8460

*** Psi4 exiting successfully. Buy a developer a beer!
