                               Psi4 1.3.2 release

  ==> Input File <==

--------------------------------------------------------------------------
#psi4
#
memory 32 gb

molecule  {
0 1
 Br       -2.5380180    -0.0000120     0.9448210
 Br       -0.5280640    -1.5862110    -0.9362640
 Br       -0.5280770     1.5862250    -0.9362460
  C        0.2865210    -0.0000040     1.3350980
  C        1.6913037    -0.0000007     0.7985273
  C       -0.7275630    -0.0000010     0.1866520
  C        2.4064250    -1.2084570     0.6972750
  C        2.4064210     1.2084560     0.6972700
  C        3.7400270    -1.2080000     0.2881000
  C        3.7400230     1.2080010     0.2880960
  C        4.4087440     0.0000010     0.0783490
  H        0.0657210     0.8845180     1.9439930
  H        0.0657230    -0.8845300     1.9439880
  H        1.8907430    -2.1510710     0.8652730
  H        1.8907350     2.1510690     0.8652640
  H        4.2591870    -2.1516120     0.1385310
  H        4.2591800     2.1516140     0.1385230
  H        5.4488490     0.0000020    -0.2384650
units angstrom
no_reorient  #important for SAPT in psi4, default
symmetry c1  #important for SAPT in psi4, default
}

set PROPERTIES_ORIGIN ["COM"]
properties('MP2/aug-cc-pvtz', properties = ['dipole'])
--------------------------------------------------------------------------

    Molecular point group: c1
  Charge       = 0
  Multiplicity = 1
  Basis Set: AUG-CC-PVTZ
    Blend: AUG-CC-PVTZ
  Basis Set: (AUG-CC-PVTZ AUX)
    Blend: AUG-CC-PVTZ-JKFIT

    Orbital Energies [Eh]
    ---------------------

    Doubly Occupied:

       1A   -490.039148     2A   -490.038893     3A   -490.038893
       4A    -65.178899     5A    -65.178704     6A    -65.178703
       7A    -58.534287     8A    -58.534104     9A    -58.534104
      10A    -58.532667    11A    -58.532661    12A    -58.532467
      13A    -58.532467    14A    -58.532439    15A    -58.532439
      16A    -11.420763    17A    -11.274638    18A    -11.256093
      19A    -11.246673    20A    -11.246602    21A    -11.245261
      22A    -11.242906    23A    -11.242600    24A     -9.851546
      25A     -9.851399    26A     -9.851395    27A     -7.463434
      28A     -7.463384    29A     -7.463381    30A     -7.455915
      31A     -7.455902    32A     -7.455782    33A     -7.455780
      34A     -7.455652    35A     -7.455649    36A     -3.207351
      37A     -3.207322    38A     -3.207319    39A     -3.203447
      40A     -3.203445    41A     -3.203439    42A     -3.203435
      43A     -3.203254    44A     -3.203252    45A     -3.193693
      46A     -3.193690    47A     -3.193421    48A     -3.193418
      49A     -3.193417    50A     -3.193414    51A     -1.181780
      52A     -1.148108    53A     -1.054587    54A     -1.024468
      55A     -1.016197    56A     -1.014634    57A     -0.966193
      58A     -0.835904    59A     -0.825508    60A     -0.769892
      61A     -0.704142    62A     -0.660284    63A     -0.654143
      64A     -0.613986    65A     -0.601877    66A     -0.594000
      67A     -0.593363    68A     -0.543918    69A     -0.521361
      70A     -0.505853    71A     -0.499180    72A     -0.497553
      73A     -0.448775    74A     -0.446297    75A     -0.428250
      76A     -0.410984    77A     -0.409704    78A     -0.398547
      79A     -0.341276    80A     -0.339028

  @DF-RHF Final Energy: -8024.47955668640770

   => Energetics <=

    Nuclear Repulsion Energy =           1736.1543056686684849
    One-Electron Energy =              -14626.5502421103647066
    Two-Electron Energy =                4865.9163797552891992
    Total Energy =                      -8024.4795566864077045
  Basis Set: (AUG-CC-PVTZ AUX)
    Blend: AUG-CC-PVTZ-RI
    Molecular point group: c1

    Geometry (in Angstrom), charge = 0, multiplicity = 1:

       Center              X                  Y                   Z               Mass
    ------------   -----------------  -----------------  -----------------  -----------------
         BR          -2.390281872134    -0.000012268852     0.989192564848    78.918337600000
         BR          -0.380327872134    -1.586211268852    -0.891892435152    78.918337600000
         BR          -0.380340872134     1.586224731148    -0.891874435152    78.918337600000
         C            0.434257127866    -0.000004268852     1.379469564848    12.000000000000
         C            1.839039827866    -0.000000968852     0.842898864848    12.000000000000
         C           -0.579826872134    -0.000001268852     0.231023564848    12.000000000000
         C            2.554161127866    -1.208457268852     0.741646564848    12.000000000000
         C            2.554157127866     1.208455731148     0.741641564848    12.000000000000
         C            3.887763127866    -1.208000268852     0.332471564848    12.000000000000
         C            3.887759127866     1.208000731148     0.332467564848    12.000000000000
         C            4.556480127866     0.000000731148     0.122720564848    12.000000000000
         H            0.213457127866     0.884517731148     1.988364564848     1.007825032230
         H            0.213459127866    -0.884530268852     1.988359564848     1.007825032230
         H            2.038479127866    -2.151071268852     0.909644564848     1.007825032230
         H            2.038471127866     2.151068731148     0.909635564848     1.007825032230
         H            4.406923127866    -2.151612268852     0.182902564848     1.007825032230
         H            4.406916127866     2.151613731148     0.182894564848     1.007825032230
         H            5.596585127866     0.000001731148    -0.194093435152     1.007825032230

  Basis Set: AUG-CC-PVTZ
    Blend: AUG-CC-PVTZ
  Basis Set: (AUG-CC-PVTZ AUX)
    Blend: AUG-CC-PVTZ-JKFIT
	 Reference Energy          =   -8024.4795566864077045 [Eh]
	 Singles Energy            =      -0.0000000000000000 [Eh]
	 Same-Spin Energy          =      -0.6297046287889265 [Eh]
	 Opposite-Spin Energy      =      -1.7190818364990474 [Eh]
	 Correlation Energy        =      -2.3487864652879740 [Eh]
	 Total Energy              =   -8026.8283431516956625 [Eh]

	 ================> DF-SCS-MP2 Energies <==================
	-----------------------------------------------------------
	 SCS Same-Spin Scale       =       0.3333333333333333 [-]
	 SCS Opposite-Spin Scale   =       1.2000000000000000 [-]
	 SCS Same-Spin Energy      =      -0.2099015429296422 [Eh]
	 SCS Opposite-Spin Energy  =      -2.0628982037988570 [Eh]
	 SCS Correlation Energy    =      -2.2727997467284990 [Eh]
	 SCS Total Energy          =   -8026.7523564331359012 [Eh]
	-----------------------------------------------------------

  Dipole Moment: [D]
     X:     1.6547      Y:    -0.0000      Z:     0.9220     Total:     1.8942

*** Psi4 exiting successfully. Buy a developer a beer!
