                               Psi4 1.3.2 release

  ==> Input File <==

--------------------------------------------------------------------------
#psi4
#
memory 32 gb

molecule  {
0 1
 Br       -2.4488499    -0.0000128     1.1299117
 Br       -0.5280640    -1.5862110    -0.9362640
 Br       -0.5280770     1.5862250    -0.9362460
  C        0.2865210    -0.0000040     1.3350980
  C        1.7253110    -0.0000010     0.8978270
  C       -0.7275630    -0.0000010     0.1866520
  C        2.4064250    -1.2084570     0.6972750
  C        2.4064210     1.2084560     0.6972700
  C        3.7400270    -1.2080000     0.2881000
  C        3.7400230     1.2080010     0.2880960
  C        4.4087440     0.0000010     0.0783490
  H        0.0657210     0.8845180     1.9439930
  H        0.0657230    -0.8845300     1.9439880
  H        1.8907430    -2.1510710     0.8652730
  H        1.8907350     2.1510690     0.8652640
  H        4.2591870    -2.1516120     0.1385310
  H        4.2591800     2.1516140     0.1385230
  H        5.4488490     0.0000020    -0.2384650
units angstrom
no_reorient  #important for SAPT in psi4, default
symmetry c1  #important for SAPT in psi4, default
}

set PROPERTIES_ORIGIN ["COM"]
properties('MP2/aug-cc-pvtz', properties = ['dipole'])
--------------------------------------------------------------------------

    Molecular point group: c1
  Charge       = 0
  Multiplicity = 1
  Basis Set: AUG-CC-PVTZ
    Blend: AUG-CC-PVTZ
  Basis Set: (AUG-CC-PVTZ AUX)
    Blend: AUG-CC-PVTZ-JKFIT

    Orbital Energies [Eh]
    ---------------------

    Doubly Occupied:

       1A   -490.041354     2A   -490.041354     3A   -490.040507
       4A    -65.181086     5A    -65.181086     6A    -65.180278
       7A    -58.536501     8A    -58.536501     9A    -58.535671
      10A    -58.534848    11A    -58.534848    12A    -58.534828
      13A    -58.534828    14A    -58.534050    15A    -58.534021
      16A    -11.421790    17A    -11.271326    18A    -11.252939
      19A    -11.244546    20A    -11.244509    21A    -11.244002
      22A    -11.242358    23A    -11.241974    24A     -9.853709
      25A     -9.853705    26A     -9.852935    27A     -7.465708
      28A     -7.465704    29A     -7.464850    30A     -7.458047
      31A     -7.458045    32A     -7.457959    33A     -7.457957
      34A     -7.457323    35A     -7.457235    36A     -3.209683
      37A     -3.209663    38A     -3.208757    39A     -3.205731
      40A     -3.205727    41A     -3.205612    42A     -3.205609
      43A     -3.204903    44A     -3.204796    45A     -3.195695
      46A     -3.195692    47A     -3.195691    48A     -3.195688
      49A     -3.195039    50A     -3.195032    51A     -1.181349
      52A     -1.148533    53A     -1.052714    54A     -1.024318
      55A     -1.021454    56A     -1.015472    57A     -0.963168
      58A     -0.836064    59A     -0.825576    60A     -0.771363
      61A     -0.702775    62A     -0.660082    63A     -0.651578
      64A     -0.610497    65A     -0.602651    66A     -0.595785
      67A     -0.592783    68A     -0.545233    69A     -0.519542
      70A     -0.502972    71A     -0.501131    72A     -0.497060
      73A     -0.447864    74A     -0.447334    75A     -0.424877
      76A     -0.414505    77A     -0.413936    78A     -0.401902
      79A     -0.341270    80A     -0.339200

  @DF-RHF Final Energy: -8024.48218202936823

   => Energetics <=

    Nuclear Repulsion Energy =           1730.9155285455167359
    One-Electron Energy =              -14615.9260463482496561
    Two-Electron Energy =                4860.5283357733651428
    Total Energy =                      -8024.4821820293682322
  Basis Set: (AUG-CC-PVTZ AUX)
    Blend: AUG-CC-PVTZ-RI
    Molecular point group: c1

    Geometry (in Angstrom), charge = 0, multiplicity = 1:

       Center              X                  Y                   Z               Mass
    ------------   -----------------  -----------------  -----------------  -----------------
         BR          -2.323023340608    -0.000012872463     1.127790646607    78.918337600000
         BR          -0.402237440608    -1.586211072463    -0.938385053393    78.918337600000
         BR          -0.402250440608     1.586224927537    -0.938367053393    78.918337600000
         C            0.412347559392    -0.000004072463     1.332976946607    12.000000000000
         C            1.851137559392    -0.000001072463     0.895705946607    12.000000000000
         C           -0.601736440608    -0.000001072463     0.184530946607    12.000000000000
         C            2.532251559392    -1.208457072463     0.695153946607    12.000000000000
         C            2.532247559392     1.208455927537     0.695148946607    12.000000000000
         C            3.865853559392    -1.208000072463     0.285978946607    12.000000000000
         C            3.865849559392     1.208000927537     0.285974946607    12.000000000000
         C            4.534570559392     0.000000927537     0.076227946607    12.000000000000
         H            0.191547559392     0.884517927537     1.941871946607     1.007825032230
         H            0.191549559392    -0.884530072463     1.941866946607     1.007825032230
         H            2.016569559392    -2.151071072463     0.863151946607     1.007825032230
         H            2.016561559392     2.151068927537     0.863142946607     1.007825032230
         H            4.385013559392    -2.151612072463     0.136409946607     1.007825032230
         H            4.385006559392     2.151613927537     0.136401946607     1.007825032230
         H            5.574675559392     0.000001927537    -0.240586053393     1.007825032230

  Basis Set: AUG-CC-PVTZ
    Blend: AUG-CC-PVTZ
  Basis Set: (AUG-CC-PVTZ AUX)
    Blend: AUG-CC-PVTZ-JKFIT
	 Reference Energy          =   -8024.4821820293682322 [Eh]
	 Singles Energy            =      -0.0000000000000000 [Eh]
	 Same-Spin Energy          =      -0.6292285241465854 [Eh]
	 Opposite-Spin Energy      =      -1.7183962189818058 [Eh]
	 Correlation Energy        =      -2.3476247431283914 [Eh]
	 Total Energy              =   -8026.8298067724963403 [Eh]

	 ================> DF-SCS-MP2 Energies <==================
	-----------------------------------------------------------
	 SCS Same-Spin Scale       =       0.3333333333333333 [-]
	 SCS Opposite-Spin Scale   =       1.2000000000000000 [-]
	 SCS Same-Spin Energy      =      -0.2097428413821951 [Eh]
	 SCS Opposite-Spin Energy  =      -2.0620754627781670 [Eh]
	 SCS Correlation Energy    =      -2.2718183041603623 [Eh]
	 SCS Total Energy          =   -8026.7540003335288930 [Eh]
	-----------------------------------------------------------

  Dipole Moment: [D]
     X:     1.5522      Y:    -0.0000      Z:     0.7982     Total:     1.7455

*** Psi4 exiting successfully. Buy a developer a beer!
