                               Psi4 1.3.2 release

  ==> Input File <==

--------------------------------------------------------------------------
#psi4
#
memory 32 gb

molecule  {
0 1
 Br       -2.5864950    -0.0000114     0.8166832
 Br       -0.5280640    -1.5862110    -0.9362640
 Br       -0.5280770     1.5862250    -0.9362460
  C        0.2865210    -0.0000040     1.3350980
  C        1.7253110    -0.0000010     0.8978270
  C       -0.7275630    -0.0000010     0.1866520
  C        2.4064250    -1.2084570     0.6972750
  C        2.4064210     1.2084560     0.6972700
  C        3.7400270    -1.2080000     0.2881000
  C        3.7400230     1.2080010     0.2880960
  C        4.4087440     0.0000010     0.0783490
  H        0.0657210     0.8845180     1.9439930
  H        0.0657230    -0.8845300     1.9439880
  H        1.8907430    -2.1510710     0.8652730
  H        1.8907350     2.1510690     0.8652640
  H        4.2591870    -2.1516120     0.1385310
  H        4.2591800     2.1516140     0.1385230
  H        5.4488490     0.0000020    -0.2384650
units angstrom
no_reorient  #important for SAPT in psi4, default
symmetry c1  #important for SAPT in psi4, default
}

set PROPERTIES_ORIGIN ["COM"]
properties('MP2/aug-cc-pvtz', properties = ['dipole'])
--------------------------------------------------------------------------

    Molecular point group: c1
  Charge       = 0
  Multiplicity = 1
  Basis Set: AUG-CC-PVTZ
    Blend: AUG-CC-PVTZ
  Basis Set: (AUG-CC-PVTZ AUX)
    Blend: AUG-CC-PVTZ-JKFIT

    Orbital Energies [Eh]
    ---------------------

    Doubly Occupied:

       1A   -490.040349     2A   -490.037608     3A   -490.037608
       4A    -65.180074     5A    -65.177467     6A    -65.177466
       7A    -58.535477     8A    -58.533828     9A    -58.533819
      10A    -58.532859    11A    -58.532859    12A    -58.531231
      13A    -58.531231    14A    -58.531198    15A    -58.531198
      16A    -11.422176    17A    -11.275280    18A    -11.255928
      19A    -11.246014    20A    -11.245983    21A    -11.245316
      22A    -11.243307    23A    -11.242965    24A     -9.852719
      25A     -9.850216    26A     -9.850212    27A     -7.464672
      28A     -7.462192    29A     -7.462189    30A     -7.457041
      31A     -7.456998    32A     -7.454622    33A     -7.454620
      34A     -7.454473    35A     -7.454471    36A     -3.208612
      37A     -3.206132    38A     -3.206110    39A     -3.204695
      40A     -3.204631    41A     -3.202260    42A     -3.202254
      43A     -3.202048    44A     -3.202046    45A     -3.194741
      46A     -3.194739    47A     -3.192260    48A     -3.192258
      49A     -3.192257    50A     -3.192256    51A     -1.181236
      52A     -1.149118    53A     -1.056608    54A     -1.024817
      55A     -1.014427    56A     -1.013795    57A     -0.968113
      58A     -0.837303    59A     -0.827000    60A     -0.770942
      61A     -0.703480    62A     -0.660730    63A     -0.651921
      64A     -0.615181    65A     -0.602645    66A     -0.595829
      67A     -0.593683    68A     -0.542723    69A     -0.522743
      70A     -0.504867    71A     -0.500309    72A     -0.498858
      73A     -0.449919    74A     -0.445719    75A     -0.432469
      76A     -0.409228    77A     -0.406509    78A     -0.396723
      79A     -0.342006    80A     -0.340390

  @DF-RHF Final Energy: -8024.48334476017499

   => Energetics <=

    Nuclear Repulsion Energy =           1737.6213326471911387
    One-Electron Energy =              -14629.5048492230034753
    Two-Electron Energy =                4867.4001718156368952
    Total Energy =                      -8024.4833447601749867
  Basis Set: (AUG-CC-PVTZ AUX)
    Blend: AUG-CC-PVTZ-RI
    Molecular point group: c1

    Geometry (in Angstrom), charge = 0, multiplicity = 1:

       Center              X                  Y                   Z               Mass
    ------------   -----------------  -----------------  -----------------  -----------------
         BR          -2.428701372991    -0.000011797603     0.887307174502    78.918337600000
         BR          -0.370270372991    -1.586211397603    -0.865640025498    78.918337600000
         BR          -0.370283372991     1.586224602397    -0.865622025498    78.918337600000
         C            0.444314627009    -0.000004397603     1.405721974502    12.000000000000
         C            1.883104627009    -0.000001397603     0.968450974502    12.000000000000
         C           -0.569769372991    -0.000001397603     0.257275974502    12.000000000000
         C            2.564218627009    -1.208457397603     0.767898974502    12.000000000000
         C            2.564214627009     1.208455602397     0.767893974502    12.000000000000
         C            3.897820627009    -1.208000397603     0.358723974502    12.000000000000
         C            3.897816627009     1.208000602397     0.358719974502    12.000000000000
         C            4.566537627009     0.000000602397     0.148972974502    12.000000000000
         H            0.223514627009     0.884517602397     2.014616974502     1.007825032230
         H            0.223516627009    -0.884530397603     2.014611974502     1.007825032230
         H            2.048536627009    -2.151071397603     0.935896974502     1.007825032230
         H            2.048528627009     2.151068602397     0.935887974502     1.007825032230
         H            4.416980627009    -2.151612397603     0.209154974502     1.007825032230
         H            4.416973627009     2.151613602397     0.209146974502     1.007825032230
         H            5.606642627009     0.000001602397    -0.167841025498     1.007825032230

  Basis Set: AUG-CC-PVTZ
    Blend: AUG-CC-PVTZ
  Basis Set: (AUG-CC-PVTZ AUX)
    Blend: AUG-CC-PVTZ-JKFIT
	 Reference Energy          =   -8024.4833447601749867 [Eh]
	 Singles Energy            =      -0.0000000000000000 [Eh]
	 Same-Spin Energy          =      -0.6290652972561890 [Eh]
	 Opposite-Spin Energy      =      -1.7176972986881380 [Eh]
	 Correlation Energy        =      -2.3467625959443268 [Eh]
	 Total Energy              =   -8026.8301073561196972 [Eh]

	 ================> DF-SCS-MP2 Energies <==================
	-----------------------------------------------------------
	 SCS Same-Spin Scale       =       0.3333333333333333 [-]
	 SCS Opposite-Spin Scale   =       1.2000000000000000 [-]
	 SCS Same-Spin Energy      =      -0.2096884324187296 [Eh]
	 SCS Opposite-Spin Energy  =      -2.0612367584257654 [Eh]
	 SCS Correlation Energy    =      -2.2709251908444950 [Eh]
	 SCS Total Energy          =   -8026.7542699510195234 [Eh]
	-----------------------------------------------------------

  Dipole Moment: [D]
     X:     1.6134      Y:    -0.0000      Z:     0.9373     Total:     1.8659

*** Psi4 exiting successfully. Buy a developer a beer!
