                               Psi4 1.3.2 release

  ==> Input File <==

--------------------------------------------------------------------------
#psi4
#
memory 32 gb

molecule  {
0 1
 Br       -2.6073504    -0.0000111     0.7514236
 Br       -0.5280640    -1.5862110    -0.9362640
 Br       -0.5280770     1.5862250    -0.9362460
  C        0.2865210    -0.0000040     1.3350980
  C        1.7253110    -0.0000010     0.8978270
  C       -0.7275630    -0.0000010     0.1866520
  C        2.4064250    -1.2084570     0.6972750
  C        2.4064210     1.2084560     0.6972700
  C        3.7400270    -1.2080000     0.2881000
  C        3.7400230     1.2080010     0.2880960
  C        4.4087440     0.0000010     0.0783490
  H        0.0657210     0.8845180     1.9439930
  H        0.0657230    -0.8845300     1.9439880
  H        1.8907430    -2.1510710     0.8652730
  H        1.8907350     2.1510690     0.8652640
  H        4.2591870    -2.1516120     0.1385310
  H        4.2591800     2.1516140     0.1385230
  H        5.4488490     0.0000020    -0.2384650
units angstrom
no_reorient  #important for SAPT in psi4, default
symmetry c1  #important for SAPT in psi4, default
}

set PROPERTIES_ORIGIN ["COM"]
properties('MP2/aug-cc-pvtz', properties = ['dipole'])
--------------------------------------------------------------------------

    Molecular point group: c1
  Charge       = 0
  Multiplicity = 1
  Basis Set: AUG-CC-PVTZ
    Blend: AUG-CC-PVTZ
  Basis Set: (AUG-CC-PVTZ AUX)
    Blend: AUG-CC-PVTZ-JKFIT

    Orbital Energies [Eh]
    ---------------------

    Doubly Occupied:

       1A   -490.040212     2A   -490.036853     3A   -490.036853
       4A    -65.179939     5A    -65.176740     6A    -65.176740
       7A    -58.535345     8A    -58.533691     9A    -58.533675
      10A    -58.532128    11A    -58.532127    12A    -58.530505
      13A    -58.530505    14A    -58.530467    15A    -58.530467
      16A    -11.422170    17A    -11.276074    18A    -11.256435
      19A    -11.246282    20A    -11.246244    21A    -11.245541
      22A    -11.243464    23A    -11.243131    24A     -9.852598
      25A     -9.849518    26A     -9.849514    27A     -7.464569
      28A     -7.461491    29A     -7.461488    30A     -7.456914
      31A     -7.456847    32A     -7.453937    33A     -7.453935
      34A     -7.453774    35A     -7.453771    36A     -3.208522
      37A     -3.205424    38A     -3.205402    39A     -3.204603
      40A     -3.204508    41A     -3.201569    42A     -3.201563
      43A     -3.201335    44A     -3.201333    45A     -3.194581
      46A     -3.194581    47A     -3.191571    48A     -3.191569
      49A     -3.191568    50A     -3.191566    51A     -1.181337
      52A     -1.149324    53A     -1.057403    54A     -1.024928
      55A     -1.014212    56A     -1.012284    57A     -0.968905
      58A     -0.837518    59A     -0.827254    60A     -0.770940
      61A     -0.703632    62A     -0.660897    63A     -0.652005
      64A     -0.616087    65A     -0.602687    66A     -0.595860
      67A     -0.593842    68A     -0.542132    69A     -0.523392
      70A     -0.505185    71A     -0.500214    72A     -0.499191
      73A     -0.450512    74A     -0.445486    75A     -0.433589
      76A     -0.408284    77A     -0.404612    78A     -0.395454
      79A     -0.342108    80A     -0.340572

  @DF-RHF Final Energy: -8024.48200070370967

   => Energetics <=

    Nuclear Repulsion Energy =           1739.5142824854024184
    One-Electron Energy =              -14633.3255901021057070
    Two-Electron Energy =                4869.3293069129931609
    Total Energy =                      -8024.4820007037096730
  Basis Set: (AUG-CC-PVTZ AUX)
    Blend: AUG-CC-PVTZ-RI
    Molecular point group: c1

    Geometry (in Angstrom), charge = 0, multiplicity = 1:

       Center              X                  Y                   Z               Mass
    ------------   -----------------  -----------------  -----------------  -----------------
         BR          -2.444713258896    -0.000011567276     0.837203639235    78.918337600000
         BR          -0.365426858896    -1.586211467276    -0.850483960765    78.918337600000
         BR          -0.365439858896     1.586224532724    -0.850465960765    78.918337600000
         C            0.449158141104    -0.000004467276     1.420878039235    12.000000000000
         C            1.887948141104    -0.000001467276     0.983607039235    12.000000000000
         C           -0.564925858896    -0.000001467276     0.272432039235    12.000000000000
         C            2.569062141104    -1.208457467276     0.783055039235    12.000000000000
         C            2.569058141104     1.208455532724     0.783050039235    12.000000000000
         C            3.902664141104    -1.208000467276     0.373880039235    12.000000000000
         C            3.902660141104     1.208000532724     0.373876039235    12.000000000000
         C            4.571381141104     0.000000532724     0.164129039235    12.000000000000
         H            0.228358141104     0.884517532724     2.029773039235     1.007825032230
         H            0.228360141104    -0.884530467276     2.029768039235     1.007825032230
         H            2.053380141104    -2.151071467276     0.951053039235     1.007825032230
         H            2.053372141104     2.151068532724     0.951044039235     1.007825032230
         H            4.421824141104    -2.151612467276     0.224311039235     1.007825032230
         H            4.421817141104     2.151613532724     0.224303039235     1.007825032230
         H            5.611486141104     0.000001532724    -0.152684960765     1.007825032230

  Basis Set: AUG-CC-PVTZ
    Blend: AUG-CC-PVTZ
  Basis Set: (AUG-CC-PVTZ AUX)
    Blend: AUG-CC-PVTZ-JKFIT
	 Reference Energy          =   -8024.4820007037096730 [Eh]
	 Singles Energy            =      -0.0000000000000000 [Eh]
	 Same-Spin Energy          =      -0.6291476503394751 [Eh]
	 Opposite-Spin Energy      =      -1.7177519378570683 [Eh]
	 Correlation Energy        =      -2.3468995881965435 [Eh]
	 Total Energy              =   -8026.8289002919063932 [Eh]

	 ================> DF-SCS-MP2 Energies <==================
	-----------------------------------------------------------
	 SCS Same-Spin Scale       =       0.3333333333333333 [-]
	 SCS Opposite-Spin Scale   =       1.2000000000000000 [-]
	 SCS Same-Spin Energy      =      -0.2097158834464917 [Eh]
	 SCS Opposite-Spin Energy  =      -2.0613023254284819 [Eh]
	 SCS Correlation Energy    =      -2.2710182088749735 [Eh]
	 SCS Total Energy          =   -8026.7530189125845936 [Eh]
	-----------------------------------------------------------

  Dipole Moment: [D]
     X:     1.6259      Y:    -0.0000      Z:     0.9633     Total:     1.8898

*** Psi4 exiting successfully. Buy a developer a beer!
