                               Psi4 1.3.2 release

  ==> Input File <==

--------------------------------------------------------------------------
#psi4
#
memory 32 gb

molecule  {
0 1
 Br       -2.5633748    -0.0000117     0.8811752
 Br       -0.5280640    -1.5862110    -0.9362640
 Br       -0.5280770     1.5862250    -0.9362460
  C        0.2865210    -0.0000040     1.3350980
  C        1.7253110    -0.0000010     0.8978270
  C       -0.7275630    -0.0000010     0.1866520
  C        2.4064250    -1.2084570     0.6972750
  C        2.4064210     1.2084560     0.6972700
  C        3.7400270    -1.2080000     0.2881000
  C        3.7400230     1.2080010     0.2880960
  C        4.4087440     0.0000010     0.0783490
  H        0.0657210     0.8845180     1.9439930
  H        0.0657230    -0.8845300     1.9439880
  H        1.8907430    -2.1510710     0.8652730
  H        1.8907350     2.1510690     0.8652640
  H        4.2591870    -2.1516120     0.1385310
  H        4.2591800     2.1516140     0.1385230
  H        5.4488490     0.0000020    -0.2384650
units angstrom
no_reorient  #important for SAPT in psi4, default
symmetry c1  #important for SAPT in psi4, default
}

set PROPERTIES_ORIGIN ["COM"]
properties('MP2/aug-cc-pvtz', properties = ['dipole'])
--------------------------------------------------------------------------

    Molecular point group: c1
  Charge       = 0
  Multiplicity = 1
  Basis Set: AUG-CC-PVTZ
    Blend: AUG-CC-PVTZ
  Basis Set: (AUG-CC-PVTZ AUX)
    Blend: AUG-CC-PVTZ-JKFIT

    Orbital Energies [Eh]
    ---------------------

    Doubly Occupied:

       1A   -490.040453     2A   -490.038360     3A   -490.038360
       4A    -65.180179     5A    -65.178193     6A    -65.178192
       7A    -58.535579     8A    -58.533934     9A    -58.533932
      10A    -58.533589    11A    -58.533589    12A    -58.531956
      13A    -58.531956    14A    -58.531927    15A    -58.531927
      16A    -11.422156    17A    -11.274485    18A    -11.255393
      19A    -11.245736    20A    -11.245712    21A    -11.245079
      22A    -11.243139    23A    -11.242789    24A     -9.852815
      25A     -9.850914    26A     -9.850910    27A     -7.464753
      28A     -7.462894    29A     -7.462890    30A     -7.457140
      31A     -7.457122    32A     -7.455307    33A     -7.455305
      34A     -7.455172    35A     -7.455170    36A     -3.208684
      37A     -3.206840    38A     -3.206819    39A     -3.204764
      40A     -3.204732    41A     -3.202952    42A     -3.202947
      43A     -3.202761    44A     -3.202759    45A     -3.194869
      46A     -3.194866    47A     -3.192949    48A     -3.192947
      49A     -3.192946    50A     -3.192944    51A     -1.181170
      52A     -1.148942    53A     -1.055816    54A     -1.024708
      55A     -1.015307    56A     -1.014644    57A     -0.967260
      58A     -0.837078    59A     -0.826737    60A     -0.770966
      61A     -0.703330    62A     -0.660570    63A     -0.651840
      64A     -0.614259    65A     -0.602615    66A     -0.595808
      67A     -0.593517    68A     -0.543285    69A     -0.522098
      70A     -0.504529    71A     -0.500418    72A     -0.498515
      73A     -0.449392    74A     -0.446014    75A     -0.431206
      76A     -0.410183    77A     -0.408309    78A     -0.397901
      79A     -0.341887    80A     -0.340188

  @DF-RHF Final Energy: -8024.48418482967008

   => Energetics <=

    Nuclear Repulsion Energy =           1735.9120423055219362
    One-Electron Energy =              -14626.0518914028107247
    Two-Electron Energy =                4865.6556642676196134
    Total Energy =                      -8024.4841848296700846
  Basis Set: (AUG-CC-PVTZ AUX)
    Blend: AUG-CC-PVTZ-RI
    Molecular point group: c1

    Geometry (in Angstrom), charge = 0, multiplicity = 1:

       Center              X                  Y                   Z               Mass
    ------------   -----------------  -----------------  -----------------  -----------------
         BR          -2.410950670319    -0.000012027930     0.936821379253    78.918337600000
         BR          -0.375639870319    -1.586211327930    -0.880617820747    78.918337600000
         BR          -0.375652870319     1.586224672070    -0.880599820747    78.918337600000
         C            0.438945129681    -0.000004327930     1.390744179253    12.000000000000
         C            1.877735129681    -0.000001327930     0.953473179253    12.000000000000
         C           -0.575138870319    -0.000001327930     0.242298179253    12.000000000000
         C            2.558849129681    -1.208457327930     0.752921179253    12.000000000000
         C            2.558845129681     1.208455672070     0.752916179253    12.000000000000
         C            3.892451129681    -1.208000327930     0.343746179253    12.000000000000
         C            3.892447129681     1.208000672070     0.343742179253    12.000000000000
         C            4.561168129681     0.000000672070     0.133995179253    12.000000000000
         H            0.218145129681     0.884517672070     1.999639179253     1.007825032230
         H            0.218147129681    -0.884530327930     1.999634179253     1.007825032230
         H            2.043167129681    -2.151071327930     0.920919179253     1.007825032230
         H            2.043159129681     2.151068672070     0.920910179253     1.007825032230
         H            4.411611129681    -2.151612327930     0.194177179253     1.007825032230
         H            4.411604129681     2.151613672070     0.194169179253     1.007825032230
         H            5.601273129681     0.000001672070    -0.182818820747     1.007825032230

  Basis Set: AUG-CC-PVTZ
    Blend: AUG-CC-PVTZ
  Basis Set: (AUG-CC-PVTZ AUX)
    Blend: AUG-CC-PVTZ-JKFIT
	 Reference Energy          =   -8024.4841848296700846 [Eh]
	 Singles Energy            =      -0.0000000000000000 [Eh]
	 Same-Spin Energy          =      -0.6290194298073528 [Eh]
	 Opposite-Spin Energy      =      -1.7177038712638084 [Eh]
	 Correlation Energy        =      -2.3467233010711612 [Eh]
	 Total Energy              =   -8026.8309081307415909 [Eh]

	 ================> DF-SCS-MP2 Energies <==================
	-----------------------------------------------------------
	 SCS Same-Spin Scale       =       0.3333333333333333 [-]
	 SCS Opposite-Spin Scale   =       1.2000000000000000 [-]
	 SCS Same-Spin Energy      =      -0.2096731432691176 [Eh]
	 SCS Opposite-Spin Energy  =      -2.0612446455165698 [Eh]
	 SCS Correlation Energy    =      -2.2709177887856873 [Eh]
	 SCS Total Energy          =   -8026.7551026184555667 [Eh]
	-----------------------------------------------------------

  Dipole Moment: [D]
     X:     1.6010      Y:    -0.0000      Z:     0.9106     Total:     1.8419

*** Psi4 exiting successfully. Buy a developer a beer!
