                               Psi4 1.3.2 release

  ==> Input File <==

--------------------------------------------------------------------------
#psi4
#
memory 32 gb

molecule  {
0 1
 Br       -2.5380180    -0.0000120     0.9448210
 Br       -0.5280640    -1.5862110    -0.9362640
 Br       -0.5280770     1.5862250    -0.9362460
  C        0.2865210    -0.0000040     1.3350980
  C        1.7631364    -0.0000015     1.0506169
  C       -0.7275630    -0.0000010     0.1866520
  C        2.4064250    -1.2084570     0.6972750
  C        2.4064210     1.2084560     0.6972700
  C        3.7400270    -1.2080000     0.2881000
  C        3.7400230     1.2080010     0.2880960
  C        4.4087440     0.0000010     0.0783490
  H        0.0657210     0.8845180     1.9439930
  H        0.0657230    -0.8845300     1.9439880
  H        1.8907430    -2.1510710     0.8652730
  H        1.8907350     2.1510690     0.8652640
  H        4.2591870    -2.1516120     0.1385310
  H        4.2591800     2.1516140     0.1385230
  H        5.4488490     0.0000020    -0.2384650
units angstrom
no_reorient  #important for SAPT in psi4, default
symmetry c1  #important for SAPT in psi4, default
}

set PROPERTIES_ORIGIN ["COM"]
properties('MP2/aug-cc-pvtz', properties = ['dipole'])
--------------------------------------------------------------------------

    Molecular point group: c1
  Charge       = 0
  Multiplicity = 1
  Basis Set: AUG-CC-PVTZ
    Blend: AUG-CC-PVTZ
  Basis Set: (AUG-CC-PVTZ AUX)
    Blend: AUG-CC-PVTZ-JKFIT

    Orbital Energies [Eh]
    ---------------------

    Doubly Occupied:

       1A   -490.041956     2A   -490.039262     3A   -490.039262
       4A    -65.181654     5A    -65.179060     6A    -65.179060
       7A    -58.537067     8A    -58.535405     9A    -58.535401
      10A    -58.534461    11A    -58.534461    12A    -58.532824
      13A    -58.532824    14A    -58.532801    15A    -58.532801
      16A    -11.423746    17A    -11.272154    18A    -11.256525
      19A    -11.247911    20A    -11.247833    21A    -11.246695
      22A    -11.242995    23A    -11.242795    24A     -9.854258
      25A     -9.851749    26A     -9.851745    27A     -7.466233
      28A     -7.463725    29A     -7.463721    30A     -7.458545
      31A     -7.458539    32A     -7.456124    33A     -7.456122
      34A     -7.456018    35A     -7.456016    36A     -3.210188
      37A     -3.207675    38A     -3.207654    39A     -3.206215
      40A     -3.206214    41A     -3.203766    42A     -3.203761
      43A     -3.203618    44A     -3.203615    45A     -3.196247
      46A     -3.196243    47A     -3.193784    48A     -3.193783
      49A     -3.193781    50A     -3.193780    51A     -1.178902
      52A     -1.148452    53A     -1.055170    54A     -1.024060
      55A     -1.017381    56A     -1.014938    57A     -0.964869
      58A     -0.835124    59A     -0.828533    60A     -0.771487
      61A     -0.701728    62A     -0.659610    63A     -0.650079
      64A     -0.611492    65A     -0.600491    66A     -0.596629
      67A     -0.593311    68A     -0.543483    69A     -0.521531
      70A     -0.507651    71A     -0.495795    72A     -0.493491
      73A     -0.448711    74A     -0.445826    75A     -0.431657
      76A     -0.411032    77A     -0.410273    78A     -0.399357
      79A     -0.341099    80A     -0.340412

  @DF-RHF Final Energy: -8024.47562619163091

   => Energetics <=

    Nuclear Repulsion Energy =           1731.4123793241565181
    One-Electron Energy =              -14616.9667232414849423
    Two-Electron Energy =                4861.0787177256979703
    Total Energy =                      -8024.4756261916309086
  Basis Set: (AUG-CC-PVTZ AUX)
    Blend: AUG-CC-PVTZ-RI
    Molecular point group: c1

    Geometry (in Angstrom), charge = 0, multiplicity = 1:

       Center              X                  Y                   Z               Mass
    ------------   -----------------  -----------------  -----------------  -----------------
         BR          -2.392818563043    -0.000012240601     0.980290304505    78.918337600000
         BR          -0.382864563043    -1.586211240601    -0.900794695495    78.918337600000
         BR          -0.382877563043     1.586224759399    -0.900776695495    78.918337600000
         C            0.431720436957    -0.000004240601     1.370567304505    12.000000000000
         C            1.908335836957    -0.000001740601     1.086086204505    12.000000000000
         C           -0.582363563043    -0.000001240601     0.222121304505    12.000000000000
         C            2.551624436957    -1.208457240601     0.732744304505    12.000000000000
         C            2.551620436957     1.208455759399     0.732739304505    12.000000000000
         C            3.885226436957    -1.208000240601     0.323569304505    12.000000000000
         C            3.885222436957     1.208000759399     0.323565304505    12.000000000000
         C            4.553943436957     0.000000759399     0.113818304505    12.000000000000
         H            0.210920436957     0.884517759399     1.979462304505     1.007825032230
         H            0.210922436957    -0.884530240601     1.979457304505     1.007825032230
         H            2.035942436957    -2.151071240601     0.900742304505     1.007825032230
         H            2.035934436957     2.151068759399     0.900733304505     1.007825032230
         H            4.404386436957    -2.151612240601     0.174000304505     1.007825032230
         H            4.404379436957     2.151613759399     0.173992304505     1.007825032230
         H            5.594048436957     0.000001759399    -0.202995695495     1.007825032230

  Basis Set: AUG-CC-PVTZ
    Blend: AUG-CC-PVTZ
  Basis Set: (AUG-CC-PVTZ AUX)
    Blend: AUG-CC-PVTZ-JKFIT
	 Reference Energy          =   -8024.4756261916309086 [Eh]
	 Singles Energy            =      -0.0000000000000000 [Eh]
	 Same-Spin Energy          =      -0.6291117437537557 [Eh]
	 Opposite-Spin Energy      =      -1.7185906524745036 [Eh]
	 Correlation Energy        =      -2.3477023962282590 [Eh]
	 Total Energy              =   -8026.8233285878595780 [Eh]

	 ================> DF-SCS-MP2 Energies <==================
	-----------------------------------------------------------
	 SCS Same-Spin Scale       =       0.3333333333333333 [-]
	 SCS Opposite-Spin Scale   =       1.2000000000000000 [-]
	 SCS Same-Spin Energy      =      -0.2097039145845852 [Eh]
	 SCS Opposite-Spin Energy  =      -2.0623087829694042 [Eh]
	 SCS Correlation Energy    =      -2.2720126975539894 [Eh]
	 SCS Total Energy          =   -8026.7476388891846000 [Eh]
	-----------------------------------------------------------

  Dipole Moment: [D]
     X:     1.5831      Y:    -0.0000      Z:     0.8025     Total:     1.7749

*** Psi4 exiting successfully. Buy a developer a beer!
