                               Psi4 1.3.2 release

  ==> Input File <==

--------------------------------------------------------------------------
#psi4
#
memory 32 gb

molecule  {
0 1
 Br       -2.5380180    -0.0000120     0.9448210
 Br       -0.5280640    -1.5862110    -0.9362640
 Br       -0.5280770     1.5862250    -0.9362460
  C        0.2865210    -0.0000040     1.3350980
  C        1.7253110    -0.0000010     0.8978270
  C       -0.6817765    -0.0899043     0.1512009
  C        2.4064250    -1.2084570     0.6972750
  C        2.4064210     1.2084560     0.6972700
  C        3.7400270    -1.2080000     0.2881000
  C        3.7400230     1.2080010     0.2880960
  C        4.4087440     0.0000010     0.0783490
  H        0.0657210     0.8845180     1.9439930
  H        0.0657230    -0.8845300     1.9439880
  H        1.8907430    -2.1510710     0.8652730
  H        1.8907350     2.1510690     0.8652640
  H        4.2591870    -2.1516120     0.1385310
  H        4.2591800     2.1516140     0.1385230
  H        5.4488490     0.0000020    -0.2384650
units angstrom
no_reorient  #important for SAPT in psi4, default
symmetry c1  #important for SAPT in psi4, default
}

set PROPERTIES_ORIGIN ["COM"]
properties('MP2/aug-cc-pvtz', properties = ['dipole'])
--------------------------------------------------------------------------

    Molecular point group: c1
  Charge       = 0
  Multiplicity = 1
  Basis Set: AUG-CC-PVTZ
    Blend: AUG-CC-PVTZ
  Basis Set: (AUG-CC-PVTZ AUX)
    Blend: AUG-CC-PVTZ-JKFIT

    Orbital Energies [Eh]
    ---------------------

    Doubly Occupied:

       1A   -490.050487     2A   -490.033707     3A   -490.033527
       4A    -65.190661     5A    -65.173324     6A    -65.173216
       7A    -58.546005     8A    -58.544419     9A    -58.544388
      10A    -58.528728    11A    -58.528629    12A    -58.527089
      13A    -58.527085    14A    -58.526981    15A    -58.526958
      16A    -11.423671    17A    -11.274452    18A    -11.254992
      19A    -11.246190    20A    -11.245669    21A    -11.245253
      22A    -11.243677    23A    -11.243165    24A     -9.864001
      25A     -9.845723    26A     -9.845683    27A     -7.476207
      28A     -7.468394    29A     -7.468268    30A     -7.457560
      31A     -7.457511    32A     -7.450074    33A     -7.450071
      34A     -7.450068    35A     -7.449946    36A     -3.220299
      37A     -3.216076    38A     -3.215897    39A     -3.205998
      40A     -3.205997    41A     -3.201427    42A     -3.201335
      43A     -3.197673    44A     -3.197602    45A     -3.197581
      46A     -3.197515    47A     -3.187885    48A     -3.187880
      49A     -3.187754    50A     -3.187752    51A     -1.183841
      52A     -1.150563    53A     -1.057747    54A     -1.028015
      55A     -1.021011    56A     -1.005217    57A     -0.965686
      58A     -0.837543    59A     -0.826013    60A     -0.772729
      61A     -0.704138    62A     -0.661072    63A     -0.652155
      64A     -0.615164    65A     -0.603698    66A     -0.597602
      67A     -0.593618    68A     -0.544011    69A     -0.524011
      70A     -0.504268    71A     -0.501934    72A     -0.498755
      73A     -0.454643    74A     -0.439736    75A     -0.426233
      76A     -0.414569    77A     -0.405199    78A     -0.396620
      79A     -0.342587    80A     -0.340402

  @DF-RHF Final Energy: -8024.47852400912871

   => Energetics <=

    Nuclear Repulsion Energy =           1734.6582870041261231
    One-Electron Energy =              -14623.4871662186160393
    Two-Electron Energy =                4864.3503552053616659
    Total Energy =                      -8024.4785240091287051
  Basis Set: (AUG-CC-PVTZ AUX)
    Blend: AUG-CC-PVTZ-RI
    Molecular point group: c1

    Geometry (in Angstrom), charge = 0, multiplicity = 1:

       Center              X                  Y                   Z               Mass
    ------------   -----------------  -----------------  -----------------  -----------------
         BR          -2.393099700324     0.003162575541     0.986937823439    78.918337600000
         BR          -0.383145700324    -1.583036424459    -0.894147176561    78.918337600000
         BR          -0.383158700324     1.589399575541    -0.894129176561    78.918337600000
         C            0.431439299676     0.003170575541     1.377214823439    12.000000000000
         C            1.870229299676     0.003173575541     0.939943823439    12.000000000000
         C           -0.536858200324    -0.086729724459     0.193317723439    12.000000000000
         C            2.551343299676    -1.205282424459     0.739391823439    12.000000000000
         C            2.551339299676     1.211630575541     0.739386823439    12.000000000000
         C            3.884945299676    -1.204825424459     0.330216823439    12.000000000000
         C            3.884941299676     1.211175575541     0.330212823439    12.000000000000
         C            4.553662299676     0.003175575541     0.120465823439    12.000000000000
         H            0.210639299676     0.887692575541     1.986109823439     1.007825032230
         H            0.210641299676    -0.881355424459     1.986104823439     1.007825032230
         H            2.035661299676    -2.147896424459     0.907389823439     1.007825032230
         H            2.035653299676     2.154243575541     0.907380823439     1.007825032230
         H            4.404105299676    -2.148437424459     0.180647823439     1.007825032230
         H            4.404098299676     2.154788575541     0.180639823439     1.007825032230
         H            5.593767299676     0.003176575541    -0.196348176561     1.007825032230

  Basis Set: AUG-CC-PVTZ
    Blend: AUG-CC-PVTZ
  Basis Set: (AUG-CC-PVTZ AUX)
    Blend: AUG-CC-PVTZ-JKFIT
	 Reference Energy          =   -8024.4785240091287051 [Eh]
	 Singles Energy            =      -0.0000000000000000 [Eh]
	 Same-Spin Energy          =      -0.6294946846957623 [Eh]
	 Opposite-Spin Energy      =      -1.7184462365286732 [Eh]
	 Correlation Energy        =      -2.3479409212244358 [Eh]
	 Total Energy              =   -8026.8264649303528131 [Eh]

	 ================> DF-SCS-MP2 Energies <==================
	-----------------------------------------------------------
	 SCS Same-Spin Scale       =       0.3333333333333333 [-]
	 SCS Opposite-Spin Scale   =       1.2000000000000000 [-]
	 SCS Same-Spin Energy      =      -0.2098315615652541 [Eh]
	 SCS Opposite-Spin Energy  =      -2.0621354838344077 [Eh]
	 SCS Correlation Energy    =      -2.2719670453996619 [Eh]
	 SCS Total Energy          =   -8026.7504910545285384 [Eh]
	-----------------------------------------------------------

  Dipole Moment: [D]
     X:     1.8113      Y:    -0.4159      Z:     0.7068     Total:     1.9883

*** Psi4 exiting successfully. Buy a developer a beer!
