                               Psi4 1.3.2 release

  ==> Input File <==

--------------------------------------------------------------------------
#psi4
#
memory 32 gb

molecule  {
0 1
 Br       -2.5380180    -0.0000120     0.9448210
 Br       -0.5280640    -1.5862110    -0.9362640
 Br       -0.5280770     1.5862250    -0.9362460
  C        0.2865210    -0.0000040     1.3350980
  C        1.7396951    -0.0000012     0.9483064
  C       -0.7275630    -0.0000010     0.1866520
  C        2.4064250    -1.2084570     0.6972750
  C        2.4064210     1.2084560     0.6972700
  C        3.7400270    -1.2080000     0.2881000
  C        3.7400230     1.2080010     0.2880960
  C        4.4087440     0.0000010     0.0783490
  H        0.0657210     0.8845180     1.9439930
  H        0.0657230    -0.8845300     1.9439880
  H        1.8907430    -2.1510710     0.8652730
  H        1.8907350     2.1510690     0.8652640
  H        4.2591870    -2.1516120     0.1385310
  H        4.2591800     2.1516140     0.1385230
  H        5.4488490     0.0000020    -0.2384650
units angstrom
no_reorient  #important for SAPT in psi4, default
symmetry c1  #important for SAPT in psi4, default
}

set PROPERTIES_ORIGIN ["COM"]
properties('MP2/aug-cc-pvtz', properties = ['dipole'])
--------------------------------------------------------------------------

    Molecular point group: c1
  Charge       = 0
  Multiplicity = 1
  Basis Set: AUG-CC-PVTZ
    Blend: AUG-CC-PVTZ
  Basis Set: (AUG-CC-PVTZ AUX)
    Blend: AUG-CC-PVTZ-JKFIT

    Orbital Energies [Eh]
    ---------------------

    Doubly Occupied:

       1A   -490.041079     2A   -490.039182     3A   -490.039182
       4A    -65.180800     5A    -65.178985     6A    -65.178985
       7A    -58.536203     8A    -58.534557     9A    -58.534552
      10A    -58.534387    11A    -58.534387    12A    -58.532749
      13A    -58.532749    14A    -58.532723    15A    -58.532723
      16A    -11.422709    17A    -11.273193    18A    -11.254925
      19A    -11.245687    20A    -11.245665    21A    -11.245101
      22A    -11.242985    23A    -11.242662    24A     -9.853425
      25A     -9.851679    26A     -9.851675    27A     -7.465369
      28A     -7.463661    29A     -7.463657    30A     -7.457741
      31A     -7.457734    32A     -7.456056    33A     -7.456054
      34A     -7.455940    35A     -7.455937    36A     -3.209303
      37A     -3.207613    38A     -3.207592    39A     -3.205361
      40A     -3.205360    41A     -3.203707    42A     -3.203701
      43A     -3.203543    44A     -3.203540    45A     -3.195471
      46A     -3.195468    47A     -3.193706    48A     -3.193704
      49A     -3.193703    50A     -3.193701    51A     -1.180569
      52A     -1.148860    53A     -1.055144    54A     -1.024512
      55A     -1.017059    56A     -1.014917    57A     -0.966074
      58A     -0.836674    59A     -0.827065    60A     -0.771359
      61A     -0.702668    62A     -0.660285    63A     -0.650945
      64A     -0.612809    65A     -0.602295    66A     -0.596340
      67A     -0.593339    68A     -0.543722    69A     -0.521485
      70A     -0.505373    71A     -0.498562    72A     -0.497824
      73A     -0.448909    74A     -0.446249    75A     -0.430495
      76A     -0.411148    77A     -0.410124    78A     -0.399155
      79A     -0.341715    80A     -0.340227

  @DF-RHF Final Energy: -8024.48371675699218

   => Energetics <=

    Nuclear Repulsion Energy =           1733.4384822505817283
    One-Electron Energy =              -14621.0514540696403856
    Two-Electron Energy =                4863.1292550620664770
    Total Energy =                      -8024.4837167569921803
  Basis Set: (AUG-CC-PVTZ AUX)
    Blend: AUG-CC-PVTZ-RI
    Molecular point group: c1

    Geometry (in Angstrom), charge = 0, multiplicity = 1:

       Center              X                  Y                   Z               Mass
    ------------   -----------------  -----------------  -----------------  -----------------
         BR          -2.391990759931    -0.000012251195     0.983903284599    78.918337600000
         BR          -0.382036759931    -1.586211251195    -0.897181715401    78.918337600000
         BR          -0.382049759931     1.586224748805    -0.897163715401    78.918337600000
         C            0.432548240069    -0.000004251195     1.374180284599    12.000000000000
         C            1.885722340069    -0.000001451195     0.987388684599    12.000000000000
         C           -0.581535759931    -0.000001251195     0.225734284599    12.000000000000
         C            2.552452240069    -1.208457251195     0.736357284599    12.000000000000
         C            2.552448240069     1.208455748805     0.736352284599    12.000000000000
         C            3.886054240069    -1.208000251195     0.327182284599    12.000000000000
         C            3.886050240069     1.208000748805     0.327178284599    12.000000000000
         C            4.554771240069     0.000000748805     0.117431284599    12.000000000000
         H            0.211748240069     0.884517748805     1.983075284599     1.007825032230
         H            0.211750240069    -0.884530251195     1.983070284599     1.007825032230
         H            2.036770240069    -2.151071251195     0.904355284599     1.007825032230
         H            2.036762240069     2.151068748805     0.904346284599     1.007825032230
         H            4.405214240069    -2.151612251195     0.177613284599     1.007825032230
         H            4.405207240069     2.151613748805     0.177605284599     1.007825032230
         H            5.594876240069     0.000001748805    -0.199382715401     1.007825032230

  Basis Set: AUG-CC-PVTZ
    Blend: AUG-CC-PVTZ
  Basis Set: (AUG-CC-PVTZ AUX)
    Blend: AUG-CC-PVTZ-JKFIT
	 Reference Energy          =   -8024.4837167569921803 [Eh]
	 Singles Energy            =      -0.0000000000000000 [Eh]
	 Same-Spin Energy          =      -0.6288993719073650 [Eh]
	 Opposite-Spin Energy      =      -1.7176705982039491 [Eh]
	 Correlation Energy        =      -2.3465699701113141 [Eh]
	 Total Energy              =   -8026.8302867271031573 [Eh]

	 ================> DF-SCS-MP2 Energies <==================
	-----------------------------------------------------------
	 SCS Same-Spin Scale       =       0.3333333333333333 [-]
	 SCS Opposite-Spin Scale   =       1.2000000000000000 [-]
	 SCS Same-Spin Energy      =      -0.2096331239691216 [Eh]
	 SCS Opposite-Spin Energy  =      -2.0612047178447388 [Eh]
	 SCS Correlation Energy    =      -2.2708378418138606 [Eh]
	 SCS Total Energy          =   -8026.7545545988059530 [Eh]
	-----------------------------------------------------------

  Dipole Moment: [D]
     X:     1.5745      Y:    -0.0000      Z:     0.8594     Total:     1.7937

*** Psi4 exiting successfully. Buy a developer a beer!
