                               Psi4 1.3.2 release

  ==> Input File <==

--------------------------------------------------------------------------
#psi4
#
memory 32 gb

molecule  {
0 1
 Br       -2.5380180    -0.0000120     0.9448210
 Br       -0.5280640    -1.5862110    -0.9362640
 Br       -0.5280770     1.5862250    -0.9362460
  C        0.2865210    -0.0000040     1.3350980
  C        1.7174604    -0.0000009     0.8727833
  C       -0.7275630    -0.0000010     0.1866520
  C        2.4064250    -1.2084570     0.6972750
  C        2.4064210     1.2084560     0.6972700
  C        3.7400270    -1.2080000     0.2881000
  C        3.7400230     1.2080010     0.2880960
  C        4.4087440     0.0000010     0.0783490
  H        0.0657210     0.8845180     1.9439930
  H        0.0657230    -0.8845300     1.9439880
  H        1.8907430    -2.1510710     0.8652730
  H        1.8907350     2.1510690     0.8652640
  H        4.2591870    -2.1516120     0.1385310
  H        4.2591800     2.1516140     0.1385230
  H        5.4488490     0.0000020    -0.2384650
units angstrom
no_reorient  #important for SAPT in psi4, default
symmetry c1  #important for SAPT in psi4, default
}

set PROPERTIES_ORIGIN ["COM"]
properties('MP2/aug-cc-pvtz', properties = ['dipole'])
--------------------------------------------------------------------------

    Molecular point group: c1
  Charge       = 0
  Multiplicity = 1
  Basis Set: AUG-CC-PVTZ
    Blend: AUG-CC-PVTZ
  Basis Set: (AUG-CC-PVTZ AUX)
    Blend: AUG-CC-PVTZ-JKFIT

    Orbital Energies [Eh]
    ---------------------

    Doubly Occupied:

       1A   -490.040214     2A   -490.039068     3A   -490.039068
       4A    -65.179949     5A    -65.178875     6A    -65.178875
       7A    -58.535345     8A    -58.534276     9A    -58.534276
      10A    -58.533711    11A    -58.533706    12A    -58.532638
      13A    -58.532638    14A    -58.532611    15A    -58.532611
      16A    -11.421789    17A    -11.273934    18A    -11.254964
      19A    -11.245537    20A    -11.245507    21A    -11.244828
      22A    -11.242951    23A    -11.242589    24A     -9.852585
      25A     -9.851571    26A     -9.851567    27A     -7.464502
      28A     -7.463555    29A     -7.463552    30A     -7.456926
      31A     -7.456917    32A     -7.455951    33A     -7.455949
      34A     -7.455827    35A     -7.455824    36A     -3.208419
      37A     -3.207509    38A     -3.207488    39A     -3.204504
      40A     -3.204503    41A     -3.203605    42A     -3.203600
      43A     -3.203431    44A     -3.203428    45A     -3.194679
      46A     -3.194676    47A     -3.193594    48A     -3.193592
      49A     -3.193591    50A     -3.193589    51A     -1.181364
      52A     -1.148696    53A     -1.054946    54A     -1.024607
      55A     -1.016688    56A     -1.014819    57A     -0.966392
      58A     -0.836764    59A     -0.826195    60A     -0.770784
      61A     -0.703435    62A     -0.660436    63A     -0.652269
      64A     -0.613538    65A     -0.602581    66A     -0.595434
      67A     -0.593349    68A     -0.543851    69A     -0.521438
      70A     -0.503908    71A     -0.501042    72A     -0.498171
      73A     -0.448914    74A     -0.446356    75A     -0.429454
      76A     -0.411122    77A     -0.409944    78A     -0.398904
      79A     -0.341702    80A     -0.339787

  @DF-RHF Final Energy: -8024.48409457704929

   => Energetics <=

    Nuclear Repulsion Energy =           1734.8441028196095886
    One-Electron Energy =              -14623.8928314296626922
    Two-Electron Energy =                4864.5646340330031308
    Total Energy =                      -8024.4840945770492908
  Basis Set: (AUG-CC-PVTZ AUX)
    Blend: AUG-CC-PVTZ-RI
    Molecular point group: c1

    Geometry (in Angstrom), charge = 0, multiplicity = 1:

       Center              X                  Y                   Z               Mass
    ------------   -----------------  -----------------  -----------------  -----------------
         BR          -2.391205566539    -0.000012261789     0.986570297828    78.918337600000
         BR          -0.381251566539    -1.586211261789    -0.894514702172    78.918337600000
         BR          -0.381264566539     1.586224738211    -0.894496702172    78.918337600000
         C            0.433333433461    -0.000004261789     1.376847297828    12.000000000000
         C            1.864272833461    -0.000001161789     0.914532597828    12.000000000000
         C           -0.580750566539    -0.000001261789     0.228401297828    12.000000000000
         C            2.553237433461    -1.208457261789     0.739024297828    12.000000000000
         C            2.553233433461     1.208455738211     0.739019297828    12.000000000000
         C            3.886839433461    -1.208000261789     0.329849297828    12.000000000000
         C            3.886835433461     1.208000738211     0.329845297828    12.000000000000
         C            4.555556433461     0.000000738211     0.120098297828    12.000000000000
         H            0.212533433461     0.884517738211     1.985742297828     1.007825032230
         H            0.212535433461    -0.884530261789     1.985737297828     1.007825032230
         H            2.037555433461    -2.151071261789     0.907022297828     1.007825032230
         H            2.037547433461     2.151068738211     0.907013297828     1.007825032230
         H            4.405999433461    -2.151612261789     0.180280297828     1.007825032230
         H            4.405992433461     2.151613738211     0.180272297828     1.007825032230
         H            5.595661433461     0.000001738211    -0.196715702172     1.007825032230

  Basis Set: AUG-CC-PVTZ
    Blend: AUG-CC-PVTZ
  Basis Set: (AUG-CC-PVTZ AUX)
    Blend: AUG-CC-PVTZ-JKFIT
	 Reference Energy          =   -8024.4840945770492908 [Eh]
	 Singles Energy            =      -0.0000000000000000 [Eh]
	 Same-Spin Energy          =      -0.6291306754365578 [Eh]
	 Opposite-Spin Energy      =      -1.7179733768868655 [Eh]
	 Correlation Energy        =      -2.3471040523234232 [Eh]
	 Total Energy              =   -8026.8311986293729205 [Eh]

	 ================> DF-SCS-MP2 Energies <==================
	-----------------------------------------------------------
	 SCS Same-Spin Scale       =       0.3333333333333333 [-]
	 SCS Opposite-Spin Scale   =       1.2000000000000000 [-]
	 SCS Same-Spin Energy      =      -0.2097102251455192 [Eh]
	 SCS Opposite-Spin Energy  =      -2.0615680522642386 [Eh]
	 SCS Correlation Energy    =      -2.2712782774097580 [Eh]
	 SCS Total Energy          =   -8026.7553728544589831 [Eh]
	-----------------------------------------------------------

  Dipole Moment: [D]
     X:     1.6004      Y:    -0.0000      Z:     0.8941     Total:     1.8332

*** Psi4 exiting successfully. Buy a developer a beer!
