                               Psi4 1.3.2 release

  ==> Input File <==

--------------------------------------------------------------------------
#psi4
#
memory 32 gb

molecule  {
0 1
 Br       -2.5245104    -0.0000121     0.9763023
 Br       -0.5280640    -1.5862110    -0.9362640
 Br       -0.5280770     1.5862250    -0.9362460
  C        0.2865210    -0.0000040     1.3350980
  C        1.7253110    -0.0000010     0.8978270
  C       -0.7275630    -0.0000010     0.1866520
  C        2.4064250    -1.2084570     0.6972750
  C        2.4064210     1.2084560     0.6972700
  C        3.7400270    -1.2080000     0.2881000
  C        3.7400230     1.2080010     0.2880960
  C        4.4087440     0.0000010     0.0783490
  H        0.0657210     0.8845180     1.9439930
  H        0.0657230    -0.8845300     1.9439880
  H        1.8907430    -2.1510710     0.8652730
  H        1.8907350     2.1510690     0.8652640
  H        4.2591870    -2.1516120     0.1385310
  H        4.2591800     2.1516140     0.1385230
  H        5.4488490     0.0000020    -0.2384650
units angstrom
no_reorient  #important for SAPT in psi4, default
symmetry c1  #important for SAPT in psi4, default
}

set PROPERTIES_ORIGIN ["COM"]
properties('MP2/aug-cc-pvtz', properties = ['dipole'])
--------------------------------------------------------------------------

    Molecular point group: c1
  Charge       = 0
  Multiplicity = 1
  Basis Set: AUG-CC-PVTZ
    Blend: AUG-CC-PVTZ
  Basis Set: (AUG-CC-PVTZ AUX)
    Blend: AUG-CC-PVTZ-JKFIT

    Orbital Energies [Eh]
    ---------------------

    Doubly Occupied:

       1A   -490.040543     2A   -490.039486     3A   -490.039486
       4A    -65.180278     5A    -65.179280     6A    -65.179279
       7A    -58.535675     8A    -58.534683     9A    -58.534683
      10A    -58.534041    11A    -58.534032    12A    -58.533042
      13A    -58.533042    14A    -58.533017    15A    -58.533017
      16A    -11.422073    17A    -11.273293    18A    -11.254534
      19A    -11.245297    20A    -11.245290    21A    -11.244702
      22A    -11.242867    23A    -11.242505    24A     -9.852911
      25A     -9.851962    26A     -9.851958    27A     -7.464833
      28A     -7.463948    29A     -7.463944    30A     -7.457255
      31A     -7.457233    32A     -7.456335    33A     -7.456332
      34A     -7.456219    35A     -7.456217    36A     -3.208752
      37A     -3.207905    38A     -3.207884    39A     -3.204841
      40A     -3.204823    41A     -3.203992    42A     -3.203987
      43A     -3.203831    44A     -3.203828    45A     -3.194998
      46A     -3.194994    47A     -3.193981    48A     -3.193978
      49A     -3.193978    50A     -3.193975    51A     -1.181146
      52A     -1.148736    53A     -1.054638    54A     -1.024550
      55A     -1.017586    56A     -1.014968    57A     -0.965860
      58A     -0.836719    59A     -0.826323    60A     -0.771051
      61A     -0.703110    62A     -0.660352    63A     -0.651729
      64A     -0.612854    65A     -0.602593    66A     -0.595794
      67A     -0.593256    68A     -0.544068    69A     -0.521135
      70A     -0.503982    71A     -0.500622    72A     -0.497984
      73A     -0.448716    74A     -0.446506    75A     -0.429077
      76A     -0.411619    77A     -0.410825    78A     -0.399520
      79A     -0.341682    80A     -0.339852

  @DF-RHF Final Energy: -8024.48447288708758

   => Energetics <=

    Nuclear Repulsion Energy =           1733.6926012641722537
    One-Electron Energy =              -14621.5623562834298355
    Two-Electron Energy =                4863.3852821321697775
    Total Energy =                      -8024.4844728870875770
  Basis Set: (AUG-CC-PVTZ AUX)
    Blend: AUG-CC-PVTZ-RI
    Molecular point group: c1

    Geometry (in Angstrom), charge = 0, multiplicity = 1:

       Center              X                  Y                   Z               Mass
    ------------   -----------------  -----------------  -----------------  -----------------
         BR          -2.381112242931    -0.000012335033     1.009855906122    78.918337600000
         BR          -0.384665842931    -1.586211235033    -0.902710393878    78.918337600000
         BR          -0.384678842931     1.586224764967    -0.902692393878    78.918337600000
         C            0.429919157069    -0.000004235033     1.368651606122    12.000000000000
         C            1.868709157069    -0.000001235033     0.931380606122    12.000000000000
         C           -0.584164842931    -0.000001235033     0.220205606122    12.000000000000
         C            2.549823157069    -1.208457235033     0.730828606122    12.000000000000
         C            2.549819157069     1.208455764967     0.730823606122    12.000000000000
         C            3.883425157069    -1.208000235033     0.321653606122    12.000000000000
         C            3.883421157069     1.208000764967     0.321649606122    12.000000000000
         C            4.552142157069     0.000000764967     0.111902606122    12.000000000000
         H            0.209119157069     0.884517764967     1.977546606122     1.007825032230
         H            0.209121157069    -0.884530235033     1.977541606122     1.007825032230
         H            2.034141157069    -2.151071235033     0.898826606122     1.007825032230
         H            2.034133157069     2.151068764967     0.898817606122     1.007825032230
         H            4.402585157069    -2.151612235033     0.172084606122     1.007825032230
         H            4.402578157069     2.151613764967     0.172076606122     1.007825032230
         H            5.592247157069     0.000001764967    -0.204911393878     1.007825032230

  Basis Set: AUG-CC-PVTZ
    Blend: AUG-CC-PVTZ
  Basis Set: (AUG-CC-PVTZ AUX)
    Blend: AUG-CC-PVTZ-JKFIT
	 Reference Energy          =   -8024.4844728870875770 [Eh]
	 Singles Energy            =      -0.0000000000000000 [Eh]
	 Same-Spin Energy          =      -0.6290219490778242 [Eh]
	 Opposite-Spin Energy      =      -1.7178342888029383 [Eh]
	 Correlation Energy        =      -2.3468562378807625 [Eh]
	 Total Energy              =   -8026.8313291249687609 [Eh]

	 ================> DF-SCS-MP2 Energies <==================
	-----------------------------------------------------------
	 SCS Same-Spin Scale       =       0.3333333333333333 [-]
	 SCS Opposite-Spin Scale   =       1.2000000000000000 [-]
	 SCS Same-Spin Energy      =      -0.2096739830259414 [Eh]
	 SCS Opposite-Spin Energy  =      -2.0614011465635258 [Eh]
	 SCS Correlation Energy    =      -2.2710751295894673 [Eh]
	 SCS Total Energy          =   -8026.7555480166774942 [Eh]
	-----------------------------------------------------------

  Dipole Moment: [D]
     X:     1.5825      Y:    -0.0000      Z:     0.8694     Total:     1.8056

*** Psi4 exiting successfully. Buy a developer a beer!
