                               Psi4 1.3.2 release

  ==> Input File <==

--------------------------------------------------------------------------
#psi4
#
memory 32 gb

molecule  {
0 1
 Br       -2.4807206    -0.0000125     1.0692651
 Br       -0.5280640    -1.5862110    -0.9362640
 Br       -0.5280770     1.5862250    -0.9362460
  C        0.2865210    -0.0000040     1.3350980
  C        1.7253110    -0.0000010     0.8978270
  C       -0.7275630    -0.0000010     0.1866520
  C        2.4064250    -1.2084570     0.6972750
  C        2.4064210     1.2084560     0.6972700
  C        3.7400270    -1.2080000     0.2881000
  C        3.7400230     1.2080010     0.2880960
  C        4.4087440     0.0000010     0.0783490
  H        0.0657210     0.8845180     1.9439930
  H        0.0657230    -0.8845300     1.9439880
  H        1.8907430    -2.1510710     0.8652730
  H        1.8907350     2.1510690     0.8652640
  H        4.2591870    -2.1516120     0.1385310
  H        4.2591800     2.1516140     0.1385230
  H        5.4488490     0.0000020    -0.2384650
units angstrom
no_reorient  #important for SAPT in psi4, default
symmetry c1  #important for SAPT in psi4, default
}

set PROPERTIES_ORIGIN ["COM"]
properties('MP2/aug-cc-pvtz', properties = ['dipole'])
--------------------------------------------------------------------------

    Molecular point group: c1
  Charge       = 0
  Multiplicity = 1
  Basis Set: AUG-CC-PVTZ
    Blend: AUG-CC-PVTZ
  Basis Set: (AUG-CC-PVTZ AUX)
    Blend: AUG-CC-PVTZ-JKFIT

    Orbital Energies [Eh]
    ---------------------

    Doubly Occupied:

       1A   -490.040608     2A   -490.040608     3A   -490.040550
       4A    -65.180364     5A    -65.180364     6A    -65.180303
       7A    -58.535775     8A    -58.535775     9A    -58.535698
      10A    -58.534126    11A    -58.534126    12A    -58.534105
      13A    -58.534105    14A    -58.534073    15A    -58.534053
      16A    -11.421926    17A    -11.272109    18A    -11.253603
      19A    -11.244849    20A    -11.244833    21A    -11.244293
      22A    -11.242571    23A    -11.242195    24A     -9.853010
      25A     -9.853006    26A     -9.852946    27A     -7.465003
      28A     -7.465000    29A     -7.464861    30A     -7.457362
      31A     -7.457360    32A     -7.457319    33A     -7.457264
      34A     -7.457262    35A     -7.457258    36A     -3.208972
      37A     -3.208951    38A     -3.208771    39A     -3.205035
      40A     -3.205030    41A     -3.204901    42A     -3.204897
      43A     -3.204896    44A     -3.204826    45A     -3.195050
      46A     -3.195044    47A     -3.195010    48A     -3.195007
      49A     -3.195007    50A     -3.195004    51A     -1.181226
      52A     -1.148593    53A     -1.053475    54A     -1.024405
      55A     -1.019893    56A     -1.015279    57A     -0.964303
      58A     -0.836334    59A     -0.825884    60A     -0.771208
      61A     -0.702904    62A     -0.660172    63A     -0.651632
      64A     -0.611437    65A     -0.602611    66A     -0.595790
      67A     -0.592978    68A     -0.544785    69A     -0.520178
      70A     -0.503389    71A     -0.500898    72A     -0.497434
      73A     -0.448166    74A     -0.447006    75A     -0.426665
      76A     -0.413113    77A     -0.413028    78A     -0.400990
      79A     -0.341445    80A     -0.339475

  @DF-RHF Final Energy: -8024.48353524810773

   => Energetics <=

    Nuclear Repulsion Energy =           1731.8875824283195470
    One-Electron Energy =              -14617.9027214399757213
    Two-Electron Energy =                4861.5316037635475368
    Total Energy =                      -8024.4835352481077280
  Basis Set: (AUG-CC-PVTZ AUX)
    Blend: AUG-CC-PVTZ-RI
    Molecular point group: c1

    Geometry (in Angstrom), charge = 0, multiplicity = 1:

       Center              X                  Y                   Z               Mass
    ------------   -----------------  -----------------  -----------------  -----------------
         BR          -2.347492303663    -0.000012642136     1.081228775834    78.918337600000
         BR          -0.394835703663    -1.586211142136    -0.924300324166    78.918337600000
         BR          -0.394848703663     1.586224857864    -0.924282324166    78.918337600000
         C            0.419749296337    -0.000004142136     1.347061675834    12.000000000000
         C            1.858539296337    -0.000001142136     0.909790675834    12.000000000000
         C           -0.594334703663    -0.000001142136     0.198615675834    12.000000000000
         C            2.539653296337    -1.208457142136     0.709238675834    12.000000000000
         C            2.539649296337     1.208455857864     0.709233675834    12.000000000000
         C            3.873255296337    -1.208000142136     0.300063675834    12.000000000000
         C            3.873251296337     1.208000857864     0.300059675834    12.000000000000
         C            4.541972296337     0.000000857864     0.090312675834    12.000000000000
         H            0.198949296337     0.884517857864     1.955956675834     1.007825032230
         H            0.198951296337    -0.884530142136     1.955951675834     1.007825032230
         H            2.023971296337    -2.151071142136     0.877236675834     1.007825032230
         H            2.023963296337     2.151068857864     0.877227675834     1.007825032230
         H            4.392415296337    -2.151612142136     0.150494675834     1.007825032230
         H            4.392408296337     2.151613857864     0.150486675834     1.007825032230
         H            5.582077296337     0.000001857864    -0.226501324166     1.007825032230

  Basis Set: AUG-CC-PVTZ
    Blend: AUG-CC-PVTZ
  Basis Set: (AUG-CC-PVTZ AUX)
    Blend: AUG-CC-PVTZ-JKFIT
	 Reference Energy          =   -8024.4835352481077280 [Eh]
	 Singles Energy            =      -0.0000000000000000 [Eh]
	 Same-Spin Energy          =      -0.6291143578848839 [Eh]
	 Opposite-Spin Energy      =      -1.7181176235324869 [Eh]
	 Correlation Energy        =      -2.3472319814173708 [Eh]
	 Total Energy              =   -8026.8307672295250086 [Eh]

	 ================> DF-SCS-MP2 Energies <==================
	-----------------------------------------------------------
	 SCS Same-Spin Scale       =       0.3333333333333333 [-]
	 SCS Opposite-Spin Scale   =       1.2000000000000000 [-]
	 SCS Same-Spin Energy      =      -0.2097047859616279 [Eh]
	 SCS Opposite-Spin Energy  =      -2.0617411482389842 [Eh]
	 SCS Correlation Energy    =      -2.2714459342006124 [Eh]
	 SCS Total Energy          =   -8026.7549811823082564 [Eh]
	-----------------------------------------------------------

  Dipole Moment: [D]
     X:     1.5642      Y:    -0.0000      Z:     0.8270     Total:     1.7694

*** Psi4 exiting successfully. Buy a developer a beer!
