                               Psi4 1.3.2 release

  ==> Input File <==

--------------------------------------------------------------------------
#psi4
#
memory 32 gb

molecule  {
0 1
 Br       -2.5380180    -0.0000120     0.9448210
 Br       -0.5280640    -1.5862110    -0.9362640
 Br       -0.5280770     1.5862250    -0.9362460
  C        0.2865210    -0.0000040     1.3350980
  C        1.7091740    -0.0000008     0.8478803
  C       -0.7275630    -0.0000010     0.1866520
  C        2.4064250    -1.2084570     0.6972750
  C        2.4064210     1.2084560     0.6972700
  C        3.7400270    -1.2080000     0.2881000
  C        3.7400230     1.2080010     0.2880960
  C        4.4087440     0.0000010     0.0783490
  H        0.0657210     0.8845180     1.9439930
  H        0.0657230    -0.8845300     1.9439880
  H        1.8907430    -2.1510710     0.8652730
  H        1.8907350     2.1510690     0.8652640
  H        4.2591870    -2.1516120     0.1385310
  H        4.2591800     2.1516140     0.1385230
  H        5.4488490     0.0000020    -0.2384650
units angstrom
no_reorient  #important for SAPT in psi4, default
symmetry c1  #important for SAPT in psi4, default
}

set PROPERTIES_ORIGIN ["COM"]
properties('MP2/aug-cc-pvtz', properties = ['dipole'])
--------------------------------------------------------------------------

    Molecular point group: c1
  Charge       = 0
  Multiplicity = 1
  Basis Set: AUG-CC-PVTZ
    Blend: AUG-CC-PVTZ
  Basis Set: (AUG-CC-PVTZ AUX)
    Blend: AUG-CC-PVTZ-JKFIT

    Orbital Energies [Eh]
    ---------------------

    Doubly Occupied:

       1A   -490.039883     2A   -490.039018     3A   -490.039018
       4A    -65.179623     5A    -65.178826     6A    -65.178826
       7A    -58.535016     8A    -58.534227     9A    -58.534227
      10A    -58.533387    11A    -58.533382    12A    -58.532589
      13A    -58.532589    14A    -58.532562    15A    -58.532562
      16A    -11.421458    17A    -11.274175    18A    -11.255221
      19A    -11.245769    20A    -11.245720    21A    -11.244902
      22A    -11.242940    23A    -11.242586    24A     -9.852262
      25A     -9.851522    26A     -9.851517    27A     -7.464169
      28A     -7.463506    29A     -7.463503    30A     -7.456612
      31A     -7.456602    32A     -7.455903    33A     -7.455901
      34A     -7.455776    35A     -7.455774    36A     -3.208080
      37A     -3.207460    38A     -3.207440    39A     -3.204175
      40A     -3.204173    41A     -3.203558    42A     -3.203553
      43A     -3.203380    44A     -3.203377    45A     -3.194373
      46A     -3.194370    47A     -3.193544    48A     -3.193541
      49A     -3.193541    50A     -3.193539    51A     -1.181543
      52A     -1.148546    53A     -1.054845    54A     -1.024585
      55A     -1.016539    56A     -1.014767    57A     -0.966384
      58A     -0.836579    59A     -0.825946    60A     -0.770517
      61A     -0.703681    62A     -0.660417    63A     -0.652834
      64A     -0.613720    65A     -0.602454    66A     -0.595013
      67A     -0.593355    68A     -0.543880    69A     -0.521416
      70A     -0.504239    71A     -0.500839    72A     -0.498072
      73A     -0.448885    74A     -0.446355    75A     -0.429072
      76A     -0.411089    77A     -0.409872    78A     -0.398798
      79A     -0.341603    80A     -0.339570

  @DF-RHF Final Energy: -8024.48313515032078

   => Energetics <=

    Nuclear Repulsion Energy =           1735.2911017144863308
    One-Electron Energy =              -14624.7983236279251287
    Two-Electron Energy =                4865.0240867631173387
    Total Energy =                      -8024.4831351503207770
  Basis Set: (AUG-CC-PVTZ AUX)
    Blend: AUG-CC-PVTZ-RI
    Molecular point group: c1

    Geometry (in Angstrom), charge = 0, multiplicity = 1:

       Center              X                  Y                   Z               Mass
    ------------   -----------------  -----------------  -----------------  -----------------
         BR          -2.390912941654    -0.000012265320     0.987449719230    78.918337600000
         BR          -0.380958941654    -1.586211265320    -0.893635280770    78.918337600000
         BR          -0.380971941654     1.586224734680    -0.893617280770    78.918337600000
         C            0.433626058346    -0.000004265320     1.377726719230    12.000000000000
         C            1.856279058346    -0.000001065320     0.890509019230    12.000000000000
         C           -0.580457941654    -0.000001265320     0.229280719230    12.000000000000
         C            2.553530058346    -1.208457265320     0.739903719230    12.000000000000
         C            2.553526058346     1.208455734680     0.739898719230    12.000000000000
         C            3.887132058346    -1.208000265320     0.330728719230    12.000000000000
         C            3.887128058346     1.208000734680     0.330724719230    12.000000000000
         C            4.555849058346     0.000000734680     0.120977719230    12.000000000000
         H            0.212826058346     0.884517734680     1.986621719230     1.007825032230
         H            0.212828058346    -0.884530265320     1.986616719230     1.007825032230
         H            2.037848058346    -2.151071265320     0.907901719230     1.007825032230
         H            2.037840058346     2.151068734680     0.907892719230     1.007825032230
         H            4.406292058346    -2.151612265320     0.181159719230     1.007825032230
         H            4.406285058346     2.151613734680     0.181151719230     1.007825032230
         H            5.595954058346     0.000001734680    -0.195836280770     1.007825032230

  Basis Set: AUG-CC-PVTZ
    Blend: AUG-CC-PVTZ
  Basis Set: (AUG-CC-PVTZ AUX)
    Blend: AUG-CC-PVTZ-JKFIT
	 Reference Energy          =   -8024.4831351503207770 [Eh]
	 Singles Energy            =      -0.0000000000000000 [Eh]
	 Same-Spin Energy          =      -0.6292874234148740 [Eh]
	 Opposite-Spin Energy      =      -1.7182601322763462 [Eh]
	 Correlation Energy        =      -2.3475475556912202 [Eh]
	 Total Energy              =   -8026.8306827060123396 [Eh]

	 ================> DF-SCS-MP2 Energies <==================
	-----------------------------------------------------------
	 SCS Same-Spin Scale       =       0.3333333333333333 [-]
	 SCS Opposite-Spin Scale   =       1.2000000000000000 [-]
	 SCS Same-Spin Energy      =      -0.2097624744716247 [Eh]
	 SCS Opposite-Spin Energy  =      -2.0619121587316154 [Eh]
	 SCS Correlation Energy    =      -2.2716746332032400 [Eh]
	 SCS Total Energy          =   -8026.7548097835242515 [Eh]
	-----------------------------------------------------------

  Dipole Moment: [D]
     X:     1.6153      Y:    -0.0000      Z:     0.9042     Total:     1.8512

*** Psi4 exiting successfully. Buy a developer a beer!
