                               Psi4 1.3.2 release

  ==> Input File <==

--------------------------------------------------------------------------
#psi4
#
memory 32 gb

molecule  {
0 1
 Br       -2.5380180    -0.0000120     0.9448210
 Br       -0.5280640    -1.5862110    -0.9362640
 Br       -0.5280770     1.5862250    -0.9362460
  C        0.2865210    -0.0000040     1.3350980
  C        1.7327233    -0.0000011     0.9230039
  C       -0.7275630    -0.0000010     0.1866520
  C        2.4064250    -1.2084570     0.6972750
  C        2.4064210     1.2084560     0.6972700
  C        3.7400270    -1.2080000     0.2881000
  C        3.7400230     1.2080010     0.2880960
  C        4.4087440     0.0000010     0.0783490
  H        0.0657210     0.8845180     1.9439930
  H        0.0657230    -0.8845300     1.9439880
  H        1.8907430    -2.1510710     0.8652730
  H        1.8907350     2.1510690     0.8652640
  H        4.2591870    -2.1516120     0.1385310
  H        4.2591800     2.1516140     0.1385230
  H        5.4488490     0.0000020    -0.2384650
units angstrom
no_reorient  #important for SAPT in psi4, default
symmetry c1  #important for SAPT in psi4, default
}

set PROPERTIES_ORIGIN ["COM"]
properties('MP2/aug-cc-pvtz', properties = ['dipole'])
--------------------------------------------------------------------------

    Molecular point group: c1
  Charge       = 0
  Multiplicity = 1
  Basis Set: AUG-CC-PVTZ
    Blend: AUG-CC-PVTZ
  Basis Set: (AUG-CC-PVTZ AUX)
    Blend: AUG-CC-PVTZ-JKFIT

    Orbital Energies [Eh]
    ---------------------

    Doubly Occupied:

       1A   -490.040810     2A   -490.039149     3A   -490.039149
       4A    -65.180536     5A    -65.178954     6A    -65.178954
       7A    -58.535937     8A    -58.534355     9A    -58.534355
      10A    -58.534295    11A    -58.534290    12A    -58.532717
      13A    -58.532717    14A    -58.532691    15A    -58.532691
      16A    -11.422415    17A    -11.273442    18A    -11.254815
      19A    -11.245496    20A    -11.245486    21A    -11.244920
      22A    -11.242972    23A    -11.242627    24A     -9.853166
      25A     -9.851649    26A     -9.851644    27A     -7.465101
      28A     -7.463632    29A     -7.463628    30A     -7.457490
      31A     -7.457482    32A     -7.456027    33A     -7.456025
      34A     -7.455908    35A     -7.455905    36A     -3.209029
      37A     -3.207584    38A     -3.207563    39A     -3.205096
      40A     -3.205095    41A     -3.203679    42A     -3.203674
      43A     -3.203512    44A     -3.203509    45A     -3.195228
      46A     -3.195224    47A     -3.193674    48A     -3.193672
      49A     -3.193671    50A     -3.193669    51A     -1.180878
      52A     -1.148852    53A     -1.055095    54A     -1.024570
      55A     -1.016948    56A     -1.014893    57A     -0.966237
      58A     -0.836811    59A     -0.826753    60A     -0.771208
      61A     -0.702926    62A     -0.660370    63A     -0.651323
      64A     -0.613081    65A     -0.602500    66A     -0.596100
      67A     -0.593341    68A     -0.543771    69A     -0.521471
      70A     -0.504735    71A     -0.499643    72A     -0.498048
      73A     -0.448925    74A     -0.446303    75A     -0.430164
      76A     -0.411151    77A     -0.410071    78A     -0.399081
      79A     -0.341758    80A     -0.340114

  @DF-RHF Final Energy: -8024.48438280130358

   => Energetics <=

    Nuclear Repulsion Energy =           1733.9179360271650694
    One-Electron Energy =              -14622.0197747268757666
    Two-Electron Energy =                4863.6174558984075702
    Total Energy =                      -8024.4843828013035818
  Basis Set: (AUG-CC-PVTZ AUX)
    Blend: AUG-CC-PVTZ-RI
    Molecular point group: c1

    Geometry (in Angstrom), charge = 0, multiplicity = 1:

       Center              X                  Y                   Z               Mass
    ------------   -----------------  -----------------  -----------------  -----------------
         BR          -2.391744558665    -0.000012254726     0.984796813893    78.918337600000
         BR          -0.381790558665    -1.586211254726    -0.896288186107    78.918337600000
         BR          -0.381803558665     1.586224745274    -0.896270186107    78.918337600000
         C            0.432794441335    -0.000004254726     1.375073813893    12.000000000000
         C            1.878996741335    -0.000001354726     0.962979713893    12.000000000000
         C           -0.581289558665    -0.000001254726     0.226627813893    12.000000000000
         C            2.552698441335    -1.208457254726     0.737250813893    12.000000000000
         C            2.552694441335     1.208455745274     0.737245813893    12.000000000000
         C            3.886300441335    -1.208000254726     0.328075813893    12.000000000000
         C            3.886296441335     1.208000745274     0.328071813893    12.000000000000
         C            4.555017441335     0.000000745274     0.118324813893    12.000000000000
         H            0.211994441335     0.884517745274     1.983968813893     1.007825032230
         H            0.211996441335    -0.884530254726     1.983963813893     1.007825032230
         H            2.037016441335    -2.151071254726     0.905248813893     1.007825032230
         H            2.037008441335     2.151068745274     0.905239813893     1.007825032230
         H            4.405460441335    -2.151612254726     0.178506813893     1.007825032230
         H            4.405453441335     2.151613745274     0.178498813893     1.007825032230
         H            5.595122441335     0.000001745274    -0.198489186107     1.007825032230

  Basis Set: AUG-CC-PVTZ
    Blend: AUG-CC-PVTZ
  Basis Set: (AUG-CC-PVTZ AUX)
    Blend: AUG-CC-PVTZ-JKFIT
	 Reference Energy          =   -8024.4843828013035818 [Eh]
	 Singles Energy            =      -0.0000000000000000 [Eh]
	 Same-Spin Energy          =      -0.6289340293639846 [Eh]
	 Opposite-Spin Energy      =      -1.7176715679728332 [Eh]
	 Correlation Energy        =      -2.3466055973368176 [Eh]
	 Total Energy              =   -8026.8309883986403293 [Eh]

	 ================> DF-SCS-MP2 Energies <==================
	-----------------------------------------------------------
	 SCS Same-Spin Scale       =       0.3333333333333333 [-]
	 SCS Opposite-Spin Scale   =       1.2000000000000000 [-]
	 SCS Same-Spin Energy      =      -0.2096446764546615 [Eh]
	 SCS Opposite-Spin Energy  =      -2.0612058815673997 [Eh]
	 SCS Correlation Energy    =      -2.2708505580220613 [Eh]
	 SCS Total Energy          =   -8026.7552333593257572 [Eh]
	-----------------------------------------------------------

  Dipole Moment: [D]
     X:     1.5800      Y:    -0.0000      Z:     0.8717     Total:     1.8045

*** Psi4 exiting successfully. Buy a developer a beer!
