                               Psi4 1.3.2 release

  ==> Input File <==

--------------------------------------------------------------------------
#psi4
#
memory 32 gb

molecule  {
0 1
 Br       -2.5380180    -0.0000120     0.9448210
 Br       -0.5280640    -1.5862110    -0.9362640
 Br       -0.5280770     1.5862250    -0.9362460
  C        0.2865210    -0.0000040     1.3350980
  C        1.7523087    -0.0000013     0.9992571
  C       -0.7275630    -0.0000010     0.1866520
  C        2.4064250    -1.2084570     0.6972750
  C        2.4064210     1.2084560     0.6972700
  C        3.7400270    -1.2080000     0.2881000
  C        3.7400230     1.2080010     0.2880960
  C        4.4087440     0.0000010     0.0783490
  H        0.0657210     0.8845180     1.9439930
  H        0.0657230    -0.8845300     1.9439880
  H        1.8907430    -2.1510710     0.8652730
  H        1.8907350     2.1510690     0.8652640
  H        4.2591870    -2.1516120     0.1385310
  H        4.2591800     2.1516140     0.1385230
  H        5.4488490     0.0000020    -0.2384650
units angstrom
no_reorient  #important for SAPT in psi4, default
symmetry c1  #important for SAPT in psi4, default
}

set PROPERTIES_ORIGIN ["COM"]
properties('MP2/aug-cc-pvtz', properties = ['dipole'])
--------------------------------------------------------------------------

    Molecular point group: c1
  Charge       = 0
  Multiplicity = 1
  Basis Set: AUG-CC-PVTZ
    Blend: AUG-CC-PVTZ
  Basis Set: (AUG-CC-PVTZ AUX)
    Blend: AUG-CC-PVTZ-JKFIT

    Orbital Energies [Eh]
    ---------------------

    Doubly Occupied:

       1A   -490.041559     2A   -490.039232     3A   -490.039232
       4A    -65.181268     5A    -65.179033     6A    -65.179033
       7A    -58.536677     8A    -58.535022     9A    -58.535018
      10A    -58.534434    11A    -58.534434    12A    -58.532797
      13A    -58.532797    14A    -58.532772    15A    -58.532772
      16A    -11.423257    17A    -11.272684    18A    -11.255501
      19A    -11.246505    20A    -11.246445    21A    -11.245727
      22A    -11.243002    23A    -11.242740    24A     -9.853883
      25A     -9.851724    26A     -9.851720    27A     -7.465843
      28A     -7.463703    29A     -7.463699    30A     -7.458184
      31A     -7.458178    32A     -7.456100    33A     -7.456098
      34A     -7.455988    35A     -7.455986    36A     -3.209787
      37A     -3.207654    38A     -3.207633    39A     -3.205830
      40A     -3.205829    41A     -3.203747    42A     -3.203741
      43A     -3.203591    44A     -3.203588    45A     -3.195900
      46A     -3.195896    47A     -3.193754    48A     -3.193753
      49A     -3.193751    50A     -3.193750    51A     -1.179819
      52A     -1.148742    53A     -1.055192    54A     -1.024325
      55A     -1.017244    56A     -1.014942    57A     -0.965582
      58A     -0.836090    59A     -0.827755    60A     -0.771524
      61A     -0.702171    62A     -0.660012    63A     -0.650384
      64A     -0.612191    65A     -0.601574    66A     -0.596625
      67A     -0.593336    68A     -0.543608    69A     -0.521509
      70A     -0.506597    71A     -0.497044    72A     -0.496142
      73A     -0.448837    74A     -0.446081    75A     -0.431108
      76A     -0.411111    77A     -0.410212    78A     -0.399273
      79A     -0.341492    80A     -0.340365

  @DF-RHF Final Energy: -8024.48076201649565

   => Energetics <=

    Nuclear Repulsion Energy =           1732.4467989716688407
    One-Electron Energy =              -14619.0508462575780868
    Two-Electron Energy =                4862.1232852694138273
    Total Energy =                      -8024.4807620164956461
  Basis Set: (AUG-CC-PVTZ AUX)
    Blend: AUG-CC-PVTZ-RI
    Molecular point group: c1

    Geometry (in Angstrom), charge = 0, multiplicity = 1:

       Center              X                  Y                   Z               Mass
    ------------   -----------------  -----------------  -----------------  -----------------
         BR          -2.392436195010    -0.000012247663     0.982104018005    78.918337600000
         BR          -0.382482195010    -1.586211247663    -0.898980981995    78.918337600000
         BR          -0.382495195010     1.586224752337    -0.898962981995    78.918337600000
         C            0.432102804990    -0.000004247663     1.372381018005    12.000000000000
         C            1.897890504990    -0.000001547663     1.036540118005    12.000000000000
         C           -0.581981195010    -0.000001247663     0.223935018005    12.000000000000
         C            2.552006804990    -1.208457247663     0.734558018005    12.000000000000
         C            2.552002804990     1.208455752337     0.734553018005    12.000000000000
         C            3.885608804990    -1.208000247663     0.325383018005    12.000000000000
         C            3.885604804990     1.208000752337     0.325379018005    12.000000000000
         C            4.554325804990     0.000000752337     0.115632018005    12.000000000000
         H            0.211302804990     0.884517752337     1.981276018005     1.007825032230
         H            0.211304804990    -0.884530247663     1.981271018005     1.007825032230
         H            2.036324804990    -2.151071247663     0.902556018005     1.007825032230
         H            2.036316804990     2.151068752337     0.902547018005     1.007825032230
         H            4.404768804990    -2.151612247663     0.175814018005     1.007825032230
         H            4.404761804990     2.151613752337     0.175806018005     1.007825032230
         H            5.594430804990     0.000001752337    -0.201181981995     1.007825032230

  Basis Set: AUG-CC-PVTZ
    Blend: AUG-CC-PVTZ
  Basis Set: (AUG-CC-PVTZ AUX)
    Blend: AUG-CC-PVTZ-JKFIT
	 Reference Energy          =   -8024.4807620164956461 [Eh]
	 Singles Energy            =      -0.0000000000000000 [Eh]
	 Same-Spin Energy          =      -0.6289424221848124 [Eh]
	 Opposite-Spin Energy      =      -1.7179583701492487 [Eh]
	 Correlation Energy        =      -2.3469007923340612 [Eh]
	 Total Energy              =   -8026.8276628088297002 [Eh]

	 ================> DF-SCS-MP2 Energies <==================
	-----------------------------------------------------------
	 SCS Same-Spin Scale       =       0.3333333333333333 [-]
	 SCS Opposite-Spin Scale   =       1.2000000000000000 [-]
	 SCS Same-Spin Energy      =      -0.2096474740616041 [Eh]
	 SCS Opposite-Spin Energy  =      -2.0615500441790982 [Eh]
	 SCS Correlation Energy    =      -2.2711975182407023 [Eh]
	 SCS Total Energy          =   -8026.7519595347366703 [Eh]
	-----------------------------------------------------------

  Dipole Moment: [D]
     X:     1.5726      Y:    -0.0000      Z:     0.8325     Total:     1.7794

*** Psi4 exiting successfully. Buy a developer a beer!
