                               Psi4 1.3.2 release

  ==> Input File <==

--------------------------------------------------------------------------
#psi4
#
memory 32 gb

molecule  {
0 1
 Br       -2.5380180    -0.0000120     0.9448210
 Br       -0.5280640    -1.5862110    -0.9362640
 Br       -0.5280770     1.5862250    -0.9362460
  C        0.2865210    -0.0000040     1.3350980
  C        1.7253110    -0.0000010     0.8978270
  C       -0.7052739    -0.0449800     0.1682156
  C        2.4064250    -1.2084570     0.6972750
  C        2.4064210     1.2084560     0.6972700
  C        3.7400270    -1.2080000     0.2881000
  C        3.7400230     1.2080010     0.2880960
  C        4.4087440     0.0000010     0.0783490
  H        0.0657210     0.8845180     1.9439930
  H        0.0657230    -0.8845300     1.9439880
  H        1.8907430    -2.1510710     0.8652730
  H        1.8907350     2.1510690     0.8652640
  H        4.2591870    -2.1516120     0.1385310
  H        4.2591800     2.1516140     0.1385230
  H        5.4488490     0.0000020    -0.2384650
units angstrom
no_reorient  #important for SAPT in psi4, default
symmetry c1  #important for SAPT in psi4, default
}

set PROPERTIES_ORIGIN ["COM"]
properties('MP2/aug-cc-pvtz', properties = ['dipole'])
--------------------------------------------------------------------------

    Molecular point group: c1
  Charge       = 0
  Multiplicity = 1
  Basis Set: AUG-CC-PVTZ
    Blend: AUG-CC-PVTZ
  Basis Set: (AUG-CC-PVTZ AUX)
    Blend: AUG-CC-PVTZ-JKFIT

    Orbital Energies [Eh]
    ---------------------

    Doubly Occupied:

       1A   -490.044928     2A   -490.037179     3A   -490.036347
       4A    -65.184890     5A    -65.176847     6A    -65.176093
       7A    -58.540271     8A    -58.538649     9A    -58.538622
      10A    -58.532250    11A    -58.531500    12A    -58.530610
      13A    -58.530606    14A    -58.529857    15A    -58.529832
      16A    -11.422542    17A    -11.273877    18A    -11.254847
      19A    -11.245769    20A    -11.245507    21A    -11.245009
      22A    -11.243271    23A    -11.242861    24A     -9.857869
      25A     -9.849356    26A     -9.848669    27A     -7.469968
      28A     -7.462245    29A     -7.462123    30A     -7.461215
      31A     -7.460601    32A     -7.453695    33A     -7.453691
      34A     -7.453052    35A     -7.452932    36A     -3.213992
      37A     -3.209931    38A     -3.209759    39A     -3.205090
      40A     -3.204507    41A     -3.201262    42A     -3.201249
      43A     -3.200680    44A     -3.200520    45A     -3.199857
      46A     -3.199855    47A     -3.191472    48A     -3.191468
      49A     -3.190717    50A     -3.190714    51A     -1.181980
      52A     -1.149155    53A     -1.055572    54A     -1.026171
      55A     -1.019380    56A     -1.010742    57A     -0.965972
      58A     -0.837139    59A     -0.826183    60A     -0.771741
      61A     -0.703591    62A     -0.660700    63A     -0.651898
      64A     -0.613540    65A     -0.603051    66A     -0.596422
      67A     -0.593510    68A     -0.543567    69A     -0.522599
      70A     -0.504018    71A     -0.501226    72A     -0.498444
      73A     -0.451852    74A     -0.443506    75A     -0.428512
      76A     -0.413112    77A     -0.407444    78A     -0.398500
      79A     -0.342116    80A     -0.340192

  @DF-RHF Final Energy: -8024.48303222990671

   => Energetics <=

    Nuclear Repulsion Energy =           1734.5207069999285068
    One-Electron Energy =              -14623.2265088706280949
    Two-Electron Energy =                4864.2227696407926487
    Total Energy =                      -8024.4830322299067120
  Basis Set: (AUG-CC-PVTZ AUX)
    Blend: AUG-CC-PVTZ-RI
    Molecular point group: c1

    Geometry (in Angstrom), charge = 0, multiplicity = 1:

       Center              X                  Y                   Z               Mass
    ------------   -----------------  -----------------  -----------------  -----------------
         BR          -2.392269916104     0.001576124476     0.986336968469    78.918337600000
         BR          -0.382315916104    -1.584622875524    -0.894748031531    78.918337600000
         BR          -0.382328916104     1.587813124476    -0.894730031531    78.918337600000
         C            0.432269083896     0.001584124476     1.376613968469    12.000000000000
         C            1.871059083896     0.001587124476     0.939342968469    12.000000000000
         C           -0.559525816104    -0.043391875524     0.209731568469    12.000000000000
         C            2.552173083896    -1.206868875524     0.738790968469    12.000000000000
         C            2.552169083896     1.210044124476     0.738785968469    12.000000000000
         C            3.885775083896    -1.206411875524     0.329615968469    12.000000000000
         C            3.885771083896     1.209589124476     0.329611968469    12.000000000000
         C            4.554492083896     0.001589124476     0.119864968469    12.000000000000
         H            0.211469083896     0.886106124476     1.985508968469     1.007825032230
         H            0.211471083896    -0.882941875524     1.985503968469     1.007825032230
         H            2.036491083896    -2.149482875524     0.906788968469     1.007825032230
         H            2.036483083896     2.152657124476     0.906779968469     1.007825032230
         H            4.404935083896    -2.150023875524     0.180046968469     1.007825032230
         H            4.404928083896     2.153202124476     0.180038968469     1.007825032230
         H            5.594597083896     0.001590124476    -0.196949031531     1.007825032230

  Basis Set: AUG-CC-PVTZ
    Blend: AUG-CC-PVTZ
  Basis Set: (AUG-CC-PVTZ AUX)
    Blend: AUG-CC-PVTZ-JKFIT
	 Reference Energy          =   -8024.4830322299067120 [Eh]
	 Singles Energy            =      -0.0000000000000000 [Eh]
	 Same-Spin Energy          =      -0.6291455368512600 [Eh]
	 Opposite-Spin Energy      =      -1.7179632306363659 [Eh]
	 Correlation Energy        =      -2.3471087674876259 [Eh]
	 Total Energy              =   -8026.8301409973946647 [Eh]

	 ================> DF-SCS-MP2 Energies <==================
	-----------------------------------------------------------
	 SCS Same-Spin Scale       =       0.3333333333333333 [-]
	 SCS Opposite-Spin Scale   =       1.2000000000000000 [-]
	 SCS Same-Spin Energy      =      -0.2097151789504200 [Eh]
	 SCS Opposite-Spin Energy  =      -2.0615558767636388 [Eh]
	 SCS Correlation Energy    =      -2.2712710557140587 [Eh]
	 SCS Total Energy          =   -8026.7543032856210630 [Eh]
	-----------------------------------------------------------

  Dipole Moment: [D]
     X:     1.6956      Y:    -0.2045      Z:     0.7950     Total:     1.8838

*** Psi4 exiting successfully. Buy a developer a beer!
