                               Psi4 1.3.2 release

  ==> Input File <==

--------------------------------------------------------------------------
#psi4
#
memory 32 gb

molecule  {
0 1
 Br       -2.5380180    -0.0000120     0.9448210
 Br       -0.5280640    -1.5862110    -0.9362640
 Br       -0.5280770     1.5862250    -0.9362460
  C        0.2865210    -0.0000040     1.3350980
  C        1.7253110    -0.0000010     0.8978270
  C       -0.7382459     0.0224919     0.1963964
  C        2.4064250    -1.2084570     0.6972750
  C        2.4064210     1.2084560     0.6972700
  C        3.7400270    -1.2080000     0.2881000
  C        3.7400230     1.2080010     0.2880960
  C        4.4087440     0.0000010     0.0783490
  H        0.0657210     0.8845180     1.9439930
  H        0.0657230    -0.8845300     1.9439880
  H        1.8907430    -2.1510710     0.8652730
  H        1.8907350     2.1510690     0.8652640
  H        4.2591870    -2.1516120     0.1385310
  H        4.2591800     2.1516140     0.1385230
  H        5.4488490     0.0000020    -0.2384650
units angstrom
no_reorient  #important for SAPT in psi4, default
symmetry c1  #important for SAPT in psi4, default
}

set PROPERTIES_ORIGIN ["COM"]
properties('MP2/aug-cc-pvtz', properties = ['dipole'])
--------------------------------------------------------------------------

    Molecular point group: c1
  Charge       = 0
  Multiplicity = 1
  Basis Set: AUG-CC-PVTZ
    Blend: AUG-CC-PVTZ
  Basis Set: (AUG-CC-PVTZ AUX)
    Blend: AUG-CC-PVTZ-JKFIT

    Orbital Energies [Eh]
    ---------------------

    Doubly Occupied:

       1A   -490.042177     2A   -490.040499     3A   -490.036051
       4A    -65.181941     5A    -65.180336     6A    -65.175800
       7A    -58.537336     8A    -58.535734     9A    -58.535700
      10A    -58.535694    11A    -58.534099    12A    -58.534071
      13A    -58.531205    14A    -58.529566    15A    -58.529540
      16A    -11.422169    17A    -11.273745    18A    -11.254865
      19A    -11.245440    20A    -11.245307    21A    -11.244764
      22A    -11.242843    23A    -11.242484    24A     -9.854640
      25A     -9.853089    26A     -9.848378    27A     -7.466600
      28A     -7.465099    29A     -7.460299    30A     -7.458971
      31A     -7.458958    32A     -7.457468    33A     -7.457343
      34A     -7.452768    35A     -7.452646    36A     -3.210545
      37A     -3.209062    38A     -3.206581    39A     -3.206571
      40A     -3.205132    41A     -3.204954    42A     -3.204200
      43A     -3.200387    44A     -3.200217    45A     -3.196701
      46A     -3.196698    47A     -3.195102    48A     -3.195100
      49A     -3.190440    50A     -3.190437    51A     -1.181047
      52A     -1.148969    53A     -1.055198    54A     -1.024411
      55A     -1.018972    56A     -1.012370    57A     -0.966564
      58A     -0.836731    59A     -0.826647    60A     -0.770754
      61A     -0.703031    62A     -0.660321    63A     -0.651746
      64A     -0.613602    65A     -0.602481    66A     -0.595806
      67A     -0.593182    68A     -0.544229    69A     -0.520973
      70A     -0.504374    71A     -0.500231    72A     -0.498010
      73A     -0.449086    74A     -0.446103    75A     -0.429800
      76A     -0.411918    77A     -0.409404    78A     -0.398780
      79A     -0.341616    80A     -0.339846

  @DF-RHF Final Energy: -8024.48419840028691

   => Energetics <=

    Nuclear Repulsion Energy =           1734.3176338632956686
    One-Electron Energy =              -14622.8317486980395188
    Two-Electron Energy =                4864.0299164344560268
    Total Energy =                      -8024.4841984002869140
  Basis Set: (AUG-CC-PVTZ AUX)
    Blend: AUG-CC-PVTZ-RI
    Molecular point group: c1

    Geometry (in Angstrom), charge = 0, multiplicity = 1:

       Center              X                  Y                   Z               Mass
    ------------   -----------------  -----------------  -----------------  -----------------
         BR          -2.391105547054    -0.000806569691     0.985341795252    78.918337600000
         BR          -0.381151547054    -1.587005569691    -0.895743204748    78.918337600000
         BR          -0.381164547054     1.585430430309    -0.895725204748    78.918337600000
         C            0.433433452946    -0.000798569691     1.375618795252    12.000000000000
         C            1.872223452946    -0.000795569691     0.938347795252    12.000000000000
         C           -0.591333447054     0.021697330309     0.236917195252    12.000000000000
         C            2.553337452946    -1.209251569691     0.737795795252    12.000000000000
         C            2.553333452946     1.207661430309     0.737790795252    12.000000000000
         C            3.886939452946    -1.208794569691     0.328620795252    12.000000000000
         C            3.886935452946     1.207206430309     0.328616795252    12.000000000000
         C            4.555656452946    -0.000793569691     0.118869795252    12.000000000000
         H            0.212633452946     0.883723430309     1.984513795252     1.007825032230
         H            0.212635452946    -0.885324569691     1.984508795252     1.007825032230
         H            2.037655452946    -2.151865569691     0.905793795252     1.007825032230
         H            2.037647452946     2.150274430309     0.905784795252     1.007825032230
         H            4.406099452946    -2.152406569691     0.179051795252     1.007825032230
         H            4.406092452946     2.150819430309     0.179043795252     1.007825032230
         H            5.595761452946    -0.000792569691    -0.197944204748     1.007825032230

  Basis Set: AUG-CC-PVTZ
    Blend: AUG-CC-PVTZ
  Basis Set: (AUG-CC-PVTZ AUX)
    Blend: AUG-CC-PVTZ-JKFIT
	 Reference Energy          =   -8024.4841984002869140 [Eh]
	 Singles Energy            =      -0.0000000000000000 [Eh]
	 Same-Spin Energy          =      -0.6290186506998137 [Eh]
	 Opposite-Spin Energy      =      -1.7177800181244820 [Eh]
	 Correlation Energy        =      -2.3467986688242957 [Eh]
	 Total Energy              =   -8026.8309970691116177 [Eh]

	 ================> DF-SCS-MP2 Energies <==================
	-----------------------------------------------------------
	 SCS Same-Spin Scale       =       0.3333333333333333 [-]
	 SCS Opposite-Spin Scale   =       1.2000000000000000 [-]
	 SCS Same-Spin Energy      =      -0.2096728835666045 [Eh]
	 SCS Opposite-Spin Energy  =      -2.0613360217493781 [Eh]
	 SCS Correlation Energy    =      -2.2710089053159828 [Eh]
	 SCS Total Energy          =   -8026.7552073056031077 [Eh]
	-----------------------------------------------------------

  Dipole Moment: [D]
     X:     1.5378      Y:     0.1009      Z:     0.9281     Total:     1.7990

*** Psi4 exiting successfully. Buy a developer a beer!
