                               Psi4 1.3.2 release

  ==> Input File <==

--------------------------------------------------------------------------
#psi4
#
memory 32 gb

molecule  {
0 1
 Br       -2.5380180    -0.0000120     0.9448210
 Br       -0.5280640    -1.5862110    -0.9362640
 Br       -0.5280770     1.5862250    -0.9362460
  C        0.2865210    -0.0000040     1.3350980
  C        1.7253110    -0.0000010     0.8978270
  C       -0.7684089     0.0899023     0.2276982
  C        2.4064250    -1.2084570     0.6972750
  C        2.4064210     1.2084560     0.6972700
  C        3.7400270    -1.2080000     0.2881000
  C        3.7400230     1.2080010     0.2880960
  C        4.4087440     0.0000010     0.0783490
  H        0.0657210     0.8845180     1.9439930
  H        0.0657230    -0.8845300     1.9439880
  H        1.8907430    -2.1510710     0.8652730
  H        1.8907350     2.1510690     0.8652640
  H        4.2591870    -2.1516120     0.1385310
  H        4.2591800     2.1516140     0.1385230
  H        5.4488490     0.0000020    -0.2384650
units angstrom
no_reorient  #important for SAPT in psi4, default
symmetry c1  #important for SAPT in psi4, default
}

set PROPERTIES_ORIGIN ["COM"]
properties('MP2/aug-cc-pvtz', properties = ['dipole'])
--------------------------------------------------------------------------

    Molecular point group: c1
  Charge       = 0
  Multiplicity = 1
  Basis Set: AUG-CC-PVTZ
    Blend: AUG-CC-PVTZ
  Basis Set: (AUG-CC-PVTZ AUX)
    Blend: AUG-CC-PVTZ-JKFIT

    Orbital Energies [Eh]
    ---------------------

    Doubly Occupied:

       1A   -490.047206     2A   -490.044798     3A   -490.026034
       4A    -65.187077     5A    -65.184723     6A    -65.165689
       7A    -58.542460     8A    -58.540835     9A    -58.540822
      10A    -58.540110    11A    -58.538484    12A    -58.538449
      13A    -58.521085    14A    -58.519470    15A    -58.519443
      16A    -11.423530    17A    -11.274522    18A    -11.255157
      19A    -11.245573    20A    -11.245031    21A    -11.244651
      22A    -11.242634    23A    -11.242170    24A     -9.859986
      25A     -9.857652    26A     -9.838022    27A     -7.472042
      28A     -7.469739    29A     -7.464315    30A     -7.464279
      31A     -7.462028    32A     -7.461882    33A     -7.449733
      34A     -7.442480    35A     -7.442356    36A     -3.216055
      37A     -3.213761    38A     -3.211978    39A     -3.211924
      40A     -3.209737    41A     -3.209520    42A     -3.202001
      43A     -3.201997    44A     -3.199626    45A     -3.199622
      46A     -3.193479    47A     -3.189929    48A     -3.189758
      49A     -3.180275    50A     -3.180272    51A     -1.181925
      52A     -1.150543    53A     -1.056679    54A     -1.029276
      55A     -1.022066    56A     -1.001769    57A     -0.967322
      58A     -0.836548    59A     -0.827379    60A     -0.770407
      61A     -0.702795    62A     -0.660222    63A     -0.651901
      64A     -0.615558    65A     -0.602649    66A     -0.596809
      67A     -0.592674    68A     -0.546620    69A     -0.519935
      70A     -0.505347    71A     -0.499592    72A     -0.497349
      73A     -0.452743    74A     -0.444593    75A     -0.425113
      76A     -0.416782    77A     -0.404143    78A     -0.396521
      79A     -0.341373    80A     -0.339415

  @DF-RHF Final Energy: -8024.47953412070547

   => Energetics <=

    Nuclear Repulsion Energy =           1734.0883028868645397
    One-Electron Energy =              -14622.3747720413321076
    Two-Electron Energy =                4863.8069350337618744
    Total Energy =                      -8024.4795341207054662
  Basis Set: (AUG-CC-PVTZ AUX)
    Blend: AUG-CC-PVTZ-RI
    Molecular point group: c1

    Geometry (in Angstrom), charge = 0, multiplicity = 1:

       Center              X                  Y                   Z               Mass
    ------------   -----------------  -----------------  -----------------  -----------------
         BR          -2.390040374676    -0.003187092056     0.984236407434    78.918337600000
         BR          -0.380086374676    -1.589386092056    -0.896848592566    78.918337600000
         BR          -0.380099374676     1.583049907944    -0.896830592566    78.918337600000
         C            0.434498625324    -0.003179092056     1.374513407434    12.000000000000
         C            1.873288625324    -0.003176092056     0.937242407434    12.000000000000
         C           -0.620431274676     0.086727207944     0.267113607434    12.000000000000
         C            2.554402625324    -1.211632092056     0.736690407434    12.000000000000
         C            2.554398625324     1.205280907944     0.736685407434    12.000000000000
         C            3.888004625324    -1.211175092056     0.327515407434    12.000000000000
         C            3.888000625324     1.204825907944     0.327511407434    12.000000000000
         C            4.556721625324    -0.003174092056     0.117764407434    12.000000000000
         H            0.213698625324     0.881342907944     1.983408407434     1.007825032230
         H            0.213700625324    -0.887705092056     1.983403407434     1.007825032230
         H            2.038720625324    -2.154246092056     0.904688407434     1.007825032230
         H            2.038712625324     2.147893907944     0.904679407434     1.007825032230
         H            4.407164625324    -2.154787092056     0.177946407434     1.007825032230
         H            4.407157625324     2.148438907944     0.177938407434     1.007825032230
         H            5.596826625324    -0.003173092056    -0.199049592566     1.007825032230

  Basis Set: AUG-CC-PVTZ
    Blend: AUG-CC-PVTZ
  Basis Set: (AUG-CC-PVTZ AUX)
    Blend: AUG-CC-PVTZ-JKFIT
	 Reference Energy          =   -8024.4795341207054662 [Eh]
	 Singles Energy            =      -0.0000000000000000 [Eh]
	 Same-Spin Energy          =      -0.6292993945838330 [Eh]
	 Opposite-Spin Energy      =      -1.7181295446027316 [Eh]
	 Correlation Energy        =      -2.3474289391865648 [Eh]
	 Total Energy              =   -8026.8269630598924778 [Eh]

	 ================> DF-SCS-MP2 Energies <==================
	-----------------------------------------------------------
	 SCS Same-Spin Scale       =       0.3333333333333333 [-]
	 SCS Opposite-Spin Scale   =       1.2000000000000000 [-]
	 SCS Same-Spin Energy      =      -0.2097664648612776 [Eh]
	 SCS Opposite-Spin Energy  =      -2.0617554535232778 [Eh]
	 SCS Correlation Energy    =      -2.2715219183845554 [Eh]
	 SCS Total Energy          =   -8026.7510560390901446 [Eh]
	-----------------------------------------------------------

  Dipole Moment: [D]
     X:     1.3928      Y:     0.4034      Z:     1.0678     Total:     1.8008

*** Psi4 exiting successfully. Buy a developer a beer!
