                               Psi4 1.3.2 release

  ==> Input File <==

--------------------------------------------------------------------------
#psi4
#
memory 32 gb

molecule  {
0 1
 Br       -2.5380180    -0.0000120     0.9448210
 Br       -0.5280640    -1.5862110    -0.9362640
 Br       -0.5280770     1.5862250    -0.9362460
  C        0.2865210    -0.0000040     1.3350980
  C        1.7253110    -0.0000010     0.8978270
  C       -0.6570994    -0.1347190     0.1356286
  C        2.4064250    -1.2084570     0.6972750
  C        2.4064210     1.2084560     0.6972700
  C        3.7400270    -1.2080000     0.2881000
  C        3.7400230     1.2080010     0.2880960
  C        4.4087440     0.0000010     0.0783490
  H        0.0657210     0.8845180     1.9439930
  H        0.0657230    -0.8845300     1.9439880
  H        1.8907430    -2.1510710     0.8652730
  H        1.8907350     2.1510690     0.8652640
  H        4.2591870    -2.1516120     0.1385310
  H        4.2591800     2.1516140     0.1385230
  H        5.4488490     0.0000020    -0.2384650
units angstrom
no_reorient  #important for SAPT in psi4, default
symmetry c1  #important for SAPT in psi4, default
}

set PROPERTIES_ORIGIN ["COM"]
properties('MP2/aug-cc-pvtz', properties = ['dipole'])
--------------------------------------------------------------------------

    Molecular point group: c1
  Charge       = 0
  Multiplicity = 1
  Basis Set: AUG-CC-PVTZ
    Blend: AUG-CC-PVTZ
  Basis Set: (AUG-CC-PVTZ AUX)
    Blend: AUG-CC-PVTZ-JKFIT

    Orbital Energies [Eh]
    ---------------------

    Doubly Occupied:

       1A   -490.055979     2A   -490.030562     3A   -490.030003
       4A    -65.196421     5A    -65.170202     6A    -65.169582
       7A    -58.551711     8A    -58.550179     9A    -58.550145
      10A    -58.525617    11A    -58.524983    12A    -58.523968
      13A    -58.523944    14A    -58.523350    15A    -58.523346
      16A    -11.425437    17A    -11.275410    18A    -11.255268
      19A    -11.246716    20A    -11.245931    21A    -11.245566
      22A    -11.244175    23A    -11.243530    24A     -9.870206
      25A     -9.842568    26A     -9.841887    27A     -7.482512
      28A     -7.474632    29A     -7.474495    30A     -7.454388
      31A     -7.453600    32A     -7.446965    33A     -7.446830
      34A     -7.446259    35A     -7.446244    36A     -3.226664
      37A     -3.222277    38A     -3.222083    39A     -3.212251
      40A     -3.212250    41A     -3.198213    42A     -3.197369
      43A     -3.194538    44A     -3.194374    45A     -3.193732
      46A     -3.193706    47A     -3.184670    48A     -3.184667
      49A     -3.184108    50A     -3.184103    51A     -1.187078
      52A     -1.153002    53A     -1.061558    54A     -1.028539
      55A     -1.021680    56A     -0.999672    57A     -0.965454
      58A     -0.838061    59A     -0.825950    60A     -0.773977
      61A     -0.704820    62A     -0.661539    63A     -0.652530
      64A     -0.618618    65A     -0.604349    66A     -0.598945
      67A     -0.593848    68A     -0.545026    69A     -0.525817
      70A     -0.504881    71A     -0.502786    72A     -0.499136
      73A     -0.456377    74A     -0.435451    75A     -0.423371
      76A     -0.415337    77A     -0.403303    78A     -0.393494
      79A     -0.343160    80A     -0.340616

  @DF-RHF Final Energy: -8024.47073944778640

   => Energetics <=

    Nuclear Repulsion Energy =           1734.8069402887340402
    One-Electron Energy =              -14623.7633795929959888
    Two-Electron Energy =                4864.4856998564755486
    Total Energy =                      -8024.4707394477864000
  Basis Set: (AUG-CC-PVTZ AUX)
    Blend: AUG-CC-PVTZ-RI
    Molecular point group: c1

    Geometry (in Angstrom), charge = 0, multiplicity = 1:

       Center              X                  Y                   Z               Mass
    ------------   -----------------  -----------------  -----------------  -----------------
         BR          -2.393971144321     0.004745156205     0.987487741678    78.918337600000
         BR          -0.384017144321    -1.581453843795    -0.893597258322    78.918337600000
         BR          -0.384030144321     1.590982156205    -0.893579258322    78.918337600000
         C            0.430567855679     0.004753156205     1.377764741678    12.000000000000
         C            1.869357855679     0.004756156205     0.940493741678    12.000000000000
         C           -0.513052544321    -0.129961843795     0.178295341678    12.000000000000
         C            2.550471855679    -1.203699843795     0.739941741678    12.000000000000
         C            2.550467855679     1.213213156205     0.739936741678    12.000000000000
         C            3.884073855679    -1.203242843795     0.330766741678    12.000000000000
         C            3.884069855679     1.212758156205     0.330762741678    12.000000000000
         C            4.552790855679     0.004758156205     0.121015741678    12.000000000000
         H            0.209767855679     0.889275156205     1.986659741678     1.007825032230
         H            0.209769855679    -0.879772843795     1.986654741678     1.007825032230
         H            2.034789855679    -2.146313843795     0.907939741678     1.007825032230
         H            2.034781855679     2.155826156205     0.907930741678     1.007825032230
         H            4.403233855679    -2.146854843795     0.181197741678     1.007825032230
         H            4.403226855679     2.156371156205     0.181189741678     1.007825032230
         H            5.592895855679     0.004759156205    -0.195798258322     1.007825032230

  Basis Set: AUG-CC-PVTZ
    Blend: AUG-CC-PVTZ
  Basis Set: (AUG-CC-PVTZ AUX)
    Blend: AUG-CC-PVTZ-JKFIT
	 Reference Energy          =   -8024.4707394477864000 [Eh]
	 Singles Energy            =      -0.0000000000000000 [Eh]
	 Same-Spin Energy          =      -0.6300727630879746 [Eh]
	 Opposite-Spin Energy      =      -1.7192432551372869 [Eh]
	 Correlation Energy        =      -2.3493160182252613 [Eh]
	 Total Energy              =   -8026.8200554660115813 [Eh]

	 ================> DF-SCS-MP2 Energies <==================
	-----------------------------------------------------------
	 SCS Same-Spin Scale       =       0.3333333333333333 [-]
	 SCS Opposite-Spin Scale   =       1.2000000000000000 [-]
	 SCS Same-Spin Energy      =      -0.2100242543626582 [Eh]
	 SCS Opposite-Spin Energy  =      -2.0630919061647441 [Eh]
	 SCS Correlation Energy    =      -2.2731161605274024 [Eh]
	 SCS Total Energy          =   -8026.7438556083134245 [Eh]
	-----------------------------------------------------------

  Dipole Moment: [D]
     X:     1.9382      Y:    -0.6388      Z:     0.6167     Total:     2.1319

*** Psi4 exiting successfully. Buy a developer a beer!
