                               Psi4 1.3.2 release

  ==> Input File <==

--------------------------------------------------------------------------
#psi4
#
memory 32 gb

molecule  {
1 1
  N       -2.3156210     0.0000130     0.0092220
  C       -0.8265460     0.0000770    -0.0152130
  C       -0.1716580    -1.2259970    -0.0050100
  C       -0.1695350     1.2260373     0.2949884
  C        1.2247150    -1.2130070     0.0014150
  C        1.2248800     1.2129210     0.0014120
  C        1.9183010    -0.0000690     0.0065130
  H       -0.7164250    -2.1682170    -0.0085500
  H       -0.7161430     2.1683510    -0.0085270
  H       -2.6983940     0.8319390    -0.4619130
  H       -2.6987610    -0.8244740    -0.4745350
  H       -2.6873600    -0.0071920     0.9705560
  H        1.7664630    -2.1541410     0.0017740
  H        1.7667170     2.1540020     0.0017630
  H        3.0042640    -0.0001380     0.0102050
units angstrom
no_reorient  #important for SAPT in psi4, default
symmetry c1  #important for SAPT in psi4, default
}

set PROPERTIES_ORIGIN ["COM"]
properties('MP2/aug-cc-pvtz', properties = ['dipole'])
--------------------------------------------------------------------------

    Molecular point group: c1
  Charge       = 1
  Multiplicity = 1
  Basis Set: AUG-CC-PVTZ
    Blend: AUG-CC-PVTZ
  Basis Set: (AUG-CC-PVTZ AUX)
    Blend: AUG-CC-PVTZ-JKFIT

    Orbital Energies [Eh]
    ---------------------

    Doubly Occupied:

       1A    -15.896601     2A    -11.474819     3A    -11.420410
       4A    -11.413888     5A    -11.405371     6A    -11.401784
       7A    -11.392517     8A     -1.510666     9A     -1.313282
      10A     -1.184725    11A     -1.177284    12A     -1.014983
      13A     -1.001036    14A     -0.957236    15A     -0.933766
      16A     -0.892145    17A     -0.830233    18A     -0.781738
      19A     -0.765707    20A     -0.747559    21A     -0.676447
      22A     -0.668214    23A     -0.656558    24A     -0.506453
      25A     -0.502046

  @DF-RHF Final Energy:  -286.16023124298584

   => Energetics <=

    Nuclear Repulsion Energy =            279.5284680762081280
    One-Electron Energy =                -930.3264652994167818
    Two-Electron Energy =                 364.6377659802228095
    Total Energy =                       -286.1602312429858443
  Basis Set: (AUG-CC-PVTZ AUX)
    Blend: AUG-CC-PVTZ-RI
    Molecular point group: c1

    Geometry (in Angstrom), charge = 1, multiplicity = 1:

       Center              X                  Y                   Z               Mass
    ------------   -----------------  -----------------  -----------------  -----------------
         N           -2.347227821754     0.000014481335    -0.028723988015    14.003074004430
         C           -0.858152821754     0.000078481335    -0.053158988015    12.000000000000
         C           -0.203264821754    -1.225995518665    -0.042955988015    12.000000000000
         C           -0.201141821754     1.226038781335     0.257042411985    12.000000000000
         C            1.193108178246    -1.213005518665    -0.036530988015    12.000000000000
         C            1.193273178246     1.212922481335    -0.036533988015    12.000000000000
         C            1.886694178246    -0.000067518665    -0.031432988015    12.000000000000
         H           -0.748031821754    -2.168215518665    -0.046495988015     1.007825032230
         H           -0.747749821754     2.168352481335    -0.046472988015     1.007825032230
         H           -2.730000821754     0.831940481335    -0.499858988015     1.007825032230
         H           -2.730367821754    -0.824472518665    -0.512480988015     1.007825032230
         H           -2.718966821754    -0.007190518665     0.932610011985     1.007825032230
         H            1.734856178246    -2.154139518665    -0.036171988015     1.007825032230
         H            1.735110178246     2.154003481335    -0.036182988015     1.007825032230
         H            2.972657178246    -0.000136518665    -0.027740988015     1.007825032230

  Basis Set: AUG-CC-PVTZ
    Blend: AUG-CC-PVTZ
  Basis Set: (AUG-CC-PVTZ AUX)
    Blend: AUG-CC-PVTZ-JKFIT
	 Reference Energy          =    -286.1602312429858443 [Eh]
	 Singles Energy            =      -0.0000000000000000 [Eh]
	 Same-Spin Energy          =      -0.3103549475066603 [Eh]
	 Opposite-Spin Energy      =      -0.9970083443705732 [Eh]
	 Correlation Energy        =      -1.3073632918772335 [Eh]
	 Total Energy              =    -287.4675945348630535 [Eh]

	 ================> DF-SCS-MP2 Energies <==================
	-----------------------------------------------------------
	 SCS Same-Spin Scale       =       0.3333333333333333 [-]
	 SCS Opposite-Spin Scale   =       1.2000000000000000 [-]
	 SCS Same-Spin Energy      =      -0.1034516491688868 [Eh]
	 SCS Opposite-Spin Energy  =      -1.1964100132446878 [Eh]
	 SCS Correlation Energy    =      -1.2998616624135746 [Eh]
	 SCS Total Energy          =    -287.4600929053993923 [Eh]
	-----------------------------------------------------------

  Dipole Moment: [D]
     X:    -7.0923      Y:    -0.1580      Z:    -0.2411     Total:     7.0982

*** Psi4 exiting successfully. Buy a developer a beer!
