                               Psi4 1.3.2 release

  ==> Input File <==

--------------------------------------------------------------------------
#psi4
#
memory 32 gb

molecule  {
1 1
  N       -2.3156210     0.0000130     0.0092220
  C       -0.8265460     0.0000770    -0.0152130
  C       -0.1716580    -1.2259970    -0.0050100
  C       -0.1715260     1.2260380    -0.0050050
  C        1.2247150    -1.2130070     0.0014150
  C        1.2248800     1.2129210     0.0014120
  C        1.9183010    -0.0000690     0.0065130
  H       -0.7144799    -2.1690401    -0.3085426
  H       -0.7161430     2.1683510    -0.0085270
  H       -2.6983940     0.8319390    -0.4619130
  H       -2.6987610    -0.8244740    -0.4745350
  H       -2.6873600    -0.0071920     0.9705560
  H        1.7664630    -2.1541410     0.0017740
  H        1.7667170     2.1540020     0.0017630
  H        3.0042640    -0.0001380     0.0102050
units angstrom
no_reorient  #important for SAPT in psi4, default
symmetry c1  #important for SAPT in psi4, default
}

set PROPERTIES_ORIGIN ["COM"]
properties('MP2/aug-cc-pvtz', properties = ['dipole'])
--------------------------------------------------------------------------

    Molecular point group: c1
  Charge       = 1
  Multiplicity = 1
  Basis Set: AUG-CC-PVTZ
    Blend: AUG-CC-PVTZ
  Basis Set: (AUG-CC-PVTZ AUX)
    Blend: AUG-CC-PVTZ-JKFIT

    Orbital Energies [Eh]
    ---------------------

    Doubly Occupied:

       1A    -15.897123     2A    -11.469624     3A    -11.416644
       4A    -11.413780     5A    -11.398210     6A    -11.398079
       7A    -11.392707     8A     -1.511136     9A     -1.316253
      10A     -1.186777    11A     -1.179439    12A     -1.017029
      13A     -1.002996    14A     -0.957571    15A     -0.933509
      16A     -0.894395    17A     -0.831584    18A     -0.787344
      19A     -0.767399    20A     -0.752433    21A     -0.678722
      22A     -0.671435    23A     -0.659208    24A     -0.508400
      25A     -0.501626

  @DF-RHF Final Energy:  -286.18256445138917

   => Energetics <=

    Nuclear Repulsion Energy =            280.3366571565867389
    One-Electron Energy =                -931.9516003291633979
    Two-Electron Energy =                 365.4323787211874901
    Total Energy =                       -286.1825644513891689
  Basis Set: (AUG-CC-PVTZ AUX)
    Blend: AUG-CC-PVTZ-RI
    Molecular point group: c1

    Geometry (in Angstrom), charge = 1, multiplicity = 1:

       Center              X                  Y                   Z               Mass
    ------------   -----------------  -----------------  -----------------  -----------------
         N           -2.346994668909     0.000023210776     0.012760441692    14.003074004430
         C           -0.857919668909     0.000087210776    -0.011674558308    12.000000000000
         C           -0.203031668909    -1.225986789224    -0.001471558308    12.000000000000
         C           -0.202899668909     1.226048210776    -0.001466558308    12.000000000000
         C            1.193341331091    -1.212996789224     0.004953441692    12.000000000000
         C            1.193506331091     1.212931210776     0.004950441692    12.000000000000
         C            1.886927331091    -0.000058789224     0.010051441692    12.000000000000
         H           -0.745853568909    -2.169029889224    -0.305004158308     1.007825032230
         H           -0.747516668909     2.168361210776    -0.004988558308     1.007825032230
         H           -2.729767668909     0.831949210776    -0.458374558308     1.007825032230
         H           -2.730134668909    -0.824463789224    -0.470996558308     1.007825032230
         H           -2.718733668909    -0.007181789224     0.974094441692     1.007825032230
         H            1.735089331091    -2.154130789224     0.005312441692     1.007825032230
         H            1.735343331091     2.154012210776     0.005301441692     1.007825032230
         H            2.972890331091    -0.000127789224     0.013743441692     1.007825032230

  Basis Set: AUG-CC-PVTZ
    Blend: AUG-CC-PVTZ
  Basis Set: (AUG-CC-PVTZ AUX)
    Blend: AUG-CC-PVTZ-JKFIT
	 Reference Energy          =    -286.1825644513891689 [Eh]
	 Singles Energy            =      -0.0000000000000000 [Eh]
	 Same-Spin Energy          =      -0.3093119085207638 [Eh]
	 Opposite-Spin Energy      =      -0.9932941214635524 [Eh]
	 Correlation Energy        =      -1.3026060299843163 [Eh]
	 Total Energy              =    -287.4851704813734727 [Eh]

	 ================> DF-SCS-MP2 Energies <==================
	-----------------------------------------------------------
	 SCS Same-Spin Scale       =       0.3333333333333333 [-]
	 SCS Opposite-Spin Scale   =       1.2000000000000000 [-]
	 SCS Same-Spin Energy      =      -0.1031039695069213 [Eh]
	 SCS Opposite-Spin Energy  =      -1.1919529457562630 [Eh]
	 SCS Correlation Energy    =      -1.2950569152631843 [Eh]
	 SCS Total Energy          =    -287.4776213666523290 [Eh]
	-----------------------------------------------------------

  Dipole Moment: [D]
     X:    -7.1879      Y:     0.0558      Z:    -0.1208     Total:     7.1891

*** Psi4 exiting successfully. Buy a developer a beer!
