                               Psi4 1.3.2 release

  ==> Input File <==

--------------------------------------------------------------------------
#psi4
#
memory 32 gb

molecule  {
1 1
  N       -2.3156210     0.0000130     0.0092220
  C       -0.8265460     0.0000770    -0.0152130
  C       -0.1716580    -1.2259970    -0.0050100
  C       -0.1711942     1.2260379     0.0449939
  C        1.2247150    -1.2130070     0.0014150
  C        1.2248800     1.2129210     0.0014120
  C        1.9183010    -0.0000690     0.0065130
  H       -0.7164250    -2.1682170    -0.0085500
  H       -0.7161430     2.1683510    -0.0085270
  H       -2.6983940     0.8319390    -0.4619130
  H       -2.6987610    -0.8244740    -0.4745350
  H       -2.6873600    -0.0071920     0.9705560
  H        1.7664630    -2.1541410     0.0017740
  H        1.7667170     2.1540020     0.0017630
  H        3.0042640    -0.0001380     0.0102050
units angstrom
no_reorient  #important for SAPT in psi4, default
symmetry c1  #important for SAPT in psi4, default
}

set PROPERTIES_ORIGIN ["COM"]
properties('MP2/aug-cc-pvtz', properties = ['dipole'])
--------------------------------------------------------------------------

    Molecular point group: c1
  Charge       = 1
  Multiplicity = 1
  Basis Set: AUG-CC-PVTZ
    Blend: AUG-CC-PVTZ
  Basis Set: (AUG-CC-PVTZ AUX)
    Blend: AUG-CC-PVTZ-JKFIT

    Orbital Energies [Eh]
    ---------------------

    Doubly Occupied:

       1A    -15.897215     2A    -11.469163     3A    -11.413617
       4A    -11.413438     5A    -11.397389     6A    -11.397220
       7A    -11.392374     8A     -1.511263     9A     -1.315912
      10A     -1.187352    11A     -1.179237    12A     -1.017490
      13A     -1.003458    14A     -0.957682    15A     -0.934276
      16A     -0.895632    17A     -0.834801    18A     -0.787154
      19A     -0.767885    20A     -0.755922    21A     -0.674659
      22A     -0.672353    23A     -0.664144    24A     -0.508022
      25A     -0.501707

  @DF-RHF Final Energy:  -286.18779603638615

   => Energetics <=

    Nuclear Repulsion Energy =            280.4687758687446149
    One-Electron Energy =                -932.2144184813047332
    Two-Electron Energy =                 365.5578465761739722
    Total Energy =                       -286.1877960363861462
  Basis Set: (AUG-CC-PVTZ AUX)
    Blend: AUG-CC-PVTZ-RI
    Molecular point group: c1

    Geometry (in Angstrom), charge = 1, multiplicity = 1:

       Center              X                  Y                   Z               Mass
    ------------   -----------------  -----------------  -----------------  -----------------
         N           -2.347016156870     0.000014404793     0.003167921797    14.003074004430
         C           -0.857941156870     0.000078404793    -0.021267078203    12.000000000000
         C           -0.203053156870    -1.225995595207    -0.011064078203    12.000000000000
         C           -0.202589356870     1.226039304793     0.038939821797    12.000000000000
         C            1.193319843130    -1.213005595207    -0.004639078203    12.000000000000
         C            1.193484843130     1.212922404793    -0.004642078203    12.000000000000
         C            1.886905843130    -0.000067595207     0.000458921797    12.000000000000
         H           -0.747820156870    -2.168215595207    -0.014604078203     1.007825032230
         H           -0.747538156870     2.168352404793    -0.014581078203     1.007825032230
         H           -2.729789156870     0.831940404793    -0.467967078203     1.007825032230
         H           -2.730156156870    -0.824472595207    -0.480589078203     1.007825032230
         H           -2.718755156870    -0.007190595207     0.964501921797     1.007825032230
         H            1.735067843130    -2.154139595207    -0.004280078203     1.007825032230
         H            1.735321843130     2.154003404793    -0.004291078203     1.007825032230
         H            2.972868843130    -0.000136595207     0.004150921797     1.007825032230

  Basis Set: AUG-CC-PVTZ
    Blend: AUG-CC-PVTZ
  Basis Set: (AUG-CC-PVTZ AUX)
    Blend: AUG-CC-PVTZ-JKFIT
	 Reference Energy          =    -286.1877960363861462 [Eh]
	 Singles Energy            =      -0.0000000000000000 [Eh]
	 Same-Spin Energy          =      -0.3090082943161026 [Eh]
	 Opposite-Spin Energy      =      -0.9926339776471398 [Eh]
	 Correlation Energy        =      -1.3016422719632423 [Eh]
	 Total Energy              =    -287.4894383083494063 [Eh]

	 ================> DF-SCS-MP2 Energies <==================
	-----------------------------------------------------------
	 SCS Same-Spin Scale       =       0.3333333333333333 [-]
	 SCS Opposite-Spin Scale   =       1.2000000000000000 [-]
	 SCS Same-Spin Energy      =      -0.1030027647720342 [Eh]
	 SCS Opposite-Spin Energy  =      -1.1911607731765677 [Eh]
	 SCS Correlation Energy    =      -1.2941635379486018 [Eh]
	 SCS Total Energy          =    -287.4819595743347236 [Eh]
	-----------------------------------------------------------

  Dipole Moment: [D]
     X:    -7.2375      Y:    -0.0058      Z:     0.0227     Total:     7.2375

*** Psi4 exiting successfully. Buy a developer a beer!
