                               Psi4 1.3.2 release

  ==> Input File <==

--------------------------------------------------------------------------
#psi4
#
memory 32 gb

molecule  {
1 1
  N       -2.3156210     0.0000130     0.0092220
  C       -0.8265460     0.0000770    -0.0152130
  C       -0.1716580    -1.2259970    -0.0050100
  C       -0.1715260     1.2260380    -0.0050050
  C        1.2247150    -1.2130070     0.0014150
  C        1.2248800     1.2129210     0.0014120
  C        1.9183010    -0.0000690     0.0065130
  H       -0.7164250    -2.1682170    -0.0085500
  H       -0.7161430     2.1683510    -0.0085270
  H       -2.6983940     0.8319390    -0.4619130
  H       -2.6987610    -0.8244740    -0.4745350
  H       -2.6873600    -0.0071920     0.9705560
  H        1.7664630    -2.1541410     0.0017740
  H        1.7667170     2.1540020     0.0017630
  H        3.0045110    -0.0001381    -0.0397944
units angstrom
no_reorient  #important for SAPT in psi4, default
symmetry c1  #important for SAPT in psi4, default
}

set PROPERTIES_ORIGIN ["COM"]
properties('MP2/aug-cc-pvtz', properties = ['dipole'])
--------------------------------------------------------------------------

    Molecular point group: c1
  Charge       = 1
  Multiplicity = 1
  Basis Set: AUG-CC-PVTZ
    Blend: AUG-CC-PVTZ
  Basis Set: (AUG-CC-PVTZ AUX)
    Blend: AUG-CC-PVTZ-JKFIT

    Orbital Energies [Eh]
    ---------------------

    Doubly Occupied:

       1A    -15.897261     2A    -11.469034     3A    -11.413438
       4A    -11.413386     5A    -11.397268     6A    -11.397117
       7A    -11.392463     8A     -1.511318     9A     -1.316002
      10A     -1.187435    11A     -1.179298    12A     -1.017669
      13A     -1.003448    14A     -0.957713    15A     -0.934305
      16A     -0.895840    17A     -0.834798    18A     -0.787423
      19A     -0.767979    20A     -0.756136    21A     -0.674685
      22A     -0.672189    23A     -0.664415    24A     -0.508087
      25A     -0.501663

  @DF-RHF Final Energy:  -286.18846968960702

   => Energetics <=

    Nuclear Repulsion Energy =            280.4905117659544658
    One-Electron Energy =                -932.2572233412076912
    Two-Electron Energy =                 365.5782418856462073
    Total Energy =                       -286.1884696896070182
  Basis Set: (AUG-CC-PVTZ AUX)
    Blend: AUG-CC-PVTZ-RI
    Molecular point group: c1

    Geometry (in Angstrom), charge = 1, multiplicity = 1:

       Center              X                  Y                   Z               Mass
    ------------   -----------------  -----------------  -----------------  -----------------
         N           -2.346976475369     0.000014393107     0.010082000201    14.003074004430
         C           -0.857901475369     0.000078393107    -0.014352999799    12.000000000000
         C           -0.203013475369    -1.225995606893    -0.004149999799    12.000000000000
         C           -0.202881475369     1.226039393107    -0.004144999799    12.000000000000
         C            1.193359524631    -1.213005606893     0.002275000201    12.000000000000
         C            1.193524524631     1.212922393107     0.002272000201    12.000000000000
         C            1.886945524631    -0.000067606893     0.007373000201    12.000000000000
         H           -0.747780475369    -2.168215606893    -0.007689999799     1.007825032230
         H           -0.747498475369     2.168352393107    -0.007666999799     1.007825032230
         H           -2.729749475369     0.831940393107    -0.461052999799     1.007825032230
         H           -2.730116475369    -0.824472606893    -0.473674999799     1.007825032230
         H           -2.718715475369    -0.007190606893     0.971416000201     1.007825032230
         H            1.735107524631    -2.154139606893     0.002634000201     1.007825032230
         H            1.735361524631     2.154003393107     0.002623000201     1.007825032230
         H            2.973155524631    -0.000136706893    -0.038934399799     1.007825032230

  Basis Set: AUG-CC-PVTZ
    Blend: AUG-CC-PVTZ
  Basis Set: (AUG-CC-PVTZ AUX)
    Blend: AUG-CC-PVTZ-JKFIT
	 Reference Energy          =    -286.1884696896070182 [Eh]
	 Singles Energy            =      -0.0000000000000000 [Eh]
	 Same-Spin Energy          =      -0.3089692453662120 [Eh]
	 Opposite-Spin Energy      =      -0.9924887741914543 [Eh]
	 Correlation Energy        =      -1.3014580195576664 [Eh]
	 Total Energy              =    -287.4899277091647036 [Eh]

	 ================> DF-SCS-MP2 Energies <==================
	-----------------------------------------------------------
	 SCS Same-Spin Scale       =       0.3333333333333333 [-]
	 SCS Opposite-Spin Scale   =       1.2000000000000000 [-]
	 SCS Same-Spin Energy      =      -0.1029897484554040 [Eh]
	 SCS Opposite-Spin Energy  =      -1.1909865290297452 [Eh]
	 SCS Correlation Energy    =      -1.2939762774851493 [Eh]
	 SCS Total Energy          =    -287.4824459670921897 [Eh]
	-----------------------------------------------------------

  Dipole Moment: [D]
     X:    -7.2433      Y:    -0.0004      Z:     0.0437     Total:     7.2434

*** Psi4 exiting successfully. Buy a developer a beer!
