                               Psi4 1.3.2 release

  ==> Input File <==

--------------------------------------------------------------------------
#psi4
#
memory 32 gb

molecule  {
1 1
  N       -2.3156210     0.0000130     0.0092220
  C       -0.8265460     0.0000770    -0.0152130
  C       -0.1716580    -1.2259970    -0.0050100
  C       -0.1715260     1.2260380    -0.0050050
  C        1.2247150    -1.2130070     0.0014150
  C        1.2248800     1.2129210     0.0014120
  C        1.9183010    -0.0000690     0.0065130
  H       -0.7164250    -2.1682170    -0.0085500
  H       -0.7161430     2.1683510    -0.0085270
  H       -2.6983940     0.8319390    -0.4619130
  H       -2.6987610    -0.8244740    -0.4745350
  H       -2.6873600    -0.0071920     0.9705560
  H        1.7675643    -2.1536686    -0.2482231
  H        1.7667170     2.1540020     0.0017630
  H        3.0042640    -0.0001380     0.0102050
units angstrom
no_reorient  #important for SAPT in psi4, default
symmetry c1  #important for SAPT in psi4, default
}

set PROPERTIES_ORIGIN ["COM"]
properties('MP2/aug-cc-pvtz', properties = ['dipole'])
--------------------------------------------------------------------------

    Molecular point group: c1
  Charge       = 1
  Multiplicity = 1
  Basis Set: AUG-CC-PVTZ
    Blend: AUG-CC-PVTZ
  Basis Set: (AUG-CC-PVTZ AUX)
    Blend: AUG-CC-PVTZ-JKFIT

    Orbital Energies [Eh]
    ---------------------

    Doubly Occupied:

       1A    -15.897308     2A    -11.469133     3A    -11.413892
       4A    -11.413707     5A    -11.399462     6A    -11.397308
       7A    -11.392832     8A     -1.511381     9A     -1.316109
      10A     -1.187122    11A     -1.179261    12A     -1.016765
      13A     -1.003478    14A     -0.957770    15A     -0.933951
      16A     -0.894109    17A     -0.835013    18A     -0.787523
      19A     -0.765789    20A     -0.754434    21A     -0.678072
      22A     -0.671687    23A     -0.658729    24A     -0.508053
      25A     -0.501184

  @DF-RHF Final Energy:  -286.18424734078258

   => Energetics <=

    Nuclear Repulsion Energy =            280.3900633702721734
    One-Electron Energy =                -932.0604753835099245
    Two-Electron Energy =                 365.4861646724551747
    Total Energy =                       -286.1842473407825764
  Basis Set: (AUG-CC-PVTZ AUX)
    Blend: AUG-CC-PVTZ-RI
    Molecular point group: c1

    Geometry (in Angstrom), charge = 1, multiplicity = 1:

       Center              X                  Y                   Z               Mass
    ------------   -----------------  -----------------  -----------------  -----------------
         N           -2.346985628388     0.000009330715     0.012224787036    14.003074004430
         C           -0.857910628388     0.000073330715    -0.012210212964    12.000000000000
         C           -0.203022628388    -1.226000669285    -0.002007212964    12.000000000000
         C           -0.202890628388     1.226034330715    -0.002002212964    12.000000000000
         C            1.193350371612    -1.213010669285     0.004417787036    12.000000000000
         C            1.193515371612     1.212917330715     0.004414787036    12.000000000000
         C            1.886936371612    -0.000072669285     0.009515787036    12.000000000000
         H           -0.747789628388    -2.168220669285    -0.005547212964     1.007825032230
         H           -0.747507628388     2.168347330715    -0.005524212964     1.007825032230
         H           -2.729758628388     0.831935330715    -0.458910212964     1.007825032230
         H           -2.730125628388    -0.824477669285    -0.471532212964     1.007825032230
         H           -2.718724628388    -0.007195669285     0.973558787036     1.007825032230
         H            1.736199671612    -2.153672269285    -0.245220312964     1.007825032230
         H            1.735352371612     2.153998330715     0.004765787036     1.007825032230
         H            2.972899371612    -0.000141669285     0.013207787036     1.007825032230

  Basis Set: AUG-CC-PVTZ
    Blend: AUG-CC-PVTZ
  Basis Set: (AUG-CC-PVTZ AUX)
    Blend: AUG-CC-PVTZ-JKFIT
	 Reference Energy          =    -286.1842473407825764 [Eh]
	 Singles Energy            =      -0.0000000000000000 [Eh]
	 Same-Spin Energy          =      -0.3091948283544855 [Eh]
	 Opposite-Spin Energy      =      -0.9930627977598760 [Eh]
	 Correlation Energy        =      -1.3022576261143617 [Eh]
	 Total Energy              =    -287.4865049668969164 [Eh]

	 ================> DF-SCS-MP2 Energies <==================
	-----------------------------------------------------------
	 SCS Same-Spin Scale       =       0.3333333333333333 [-]
	 SCS Opposite-Spin Scale   =       1.2000000000000000 [-]
	 SCS Same-Spin Energy      =      -0.1030649427848285 [Eh]
	 SCS Opposite-Spin Energy  =      -1.1916753573118513 [Eh]
	 SCS Correlation Energy    =      -1.2947403000966797 [Eh]
	 SCS Total Energy          =    -287.4789876408792679 [Eh]
	-----------------------------------------------------------

  Dipole Moment: [D]
     X:    -7.2531      Y:     0.0304      Z:    -0.0727     Total:     7.2535

*** Psi4 exiting successfully. Buy a developer a beer!
