                               Psi4 1.3.2 release

  ==> Input File <==

--------------------------------------------------------------------------
#psi4
#
memory 32 gb

molecule  {
1 1
  N       -2.3156210     0.0000130     0.0092220
  C       -0.8265460     0.0000770    -0.0152130
  C       -0.1716580    -1.2259970    -0.0050100
  C       -0.1715260     1.2260380    -0.0050050
  C        1.2247150    -1.2130070     0.0014150
  C        1.2248800     1.2129210     0.0014120
  C        1.9183010    -0.0000690     0.0065130
  H       -0.7161008    -2.1683542    -0.0585488
  H       -0.7161430     2.1683510    -0.0085270
  H       -2.6983940     0.8319390    -0.4619130
  H       -2.6987610    -0.8244740    -0.4745350
  H       -2.6873600    -0.0071920     0.9705560
  H        1.7664630    -2.1541410     0.0017740
  H        1.7667170     2.1540020     0.0017630
  H        3.0042640    -0.0001380     0.0102050
units angstrom
no_reorient  #important for SAPT in psi4, default
symmetry c1  #important for SAPT in psi4, default
}

set PROPERTIES_ORIGIN ["COM"]
properties('MP2/aug-cc-pvtz', properties = ['dipole'])
--------------------------------------------------------------------------

    Molecular point group: c1
  Charge       = 1
  Multiplicity = 1
  Basis Set: AUG-CC-PVTZ
    Blend: AUG-CC-PVTZ
  Basis Set: (AUG-CC-PVTZ AUX)
    Blend: AUG-CC-PVTZ-JKFIT

    Orbital Energies [Eh]
    ---------------------

    Doubly Occupied:

       1A    -15.897258     2A    -11.469040     3A    -11.413514
       4A    -11.413436     5A    -11.397283     6A    -11.397135
       7A    -11.392379     8A     -1.511302     9A     -1.316010
      10A     -1.187412    11A     -1.179335    12A     -1.017652
      13A     -1.003500    14A     -0.957704    15A     -0.934263
      16A     -0.895777    17A     -0.834879    18A     -0.787420
      19A     -0.767972    20A     -0.756035    21A     -0.674671
      22A     -0.672527    23A     -0.664247    24A     -0.508131
      25A     -0.501671

  @DF-RHF Final Energy:  -286.18848042009159

   => Energetics <=

    Nuclear Repulsion Energy =            280.4900072060823391
    One-Electron Energy =                -932.2558695221866856
    Two-Electron Energy =                 365.5773818960128096
    Total Energy =                       -286.1884804200915937
  Basis Set: (AUG-CC-PVTZ AUX)
    Blend: AUG-CC-PVTZ-RI
    Molecular point group: c1

    Geometry (in Angstrom), charge = 1, multiplicity = 1:

       Center              X                  Y                   Z               Mass
    ------------   -----------------  -----------------  -----------------  -----------------
         N           -2.346977302494     0.000015862004     0.010081993772    14.003074004430
         C           -0.857902302494     0.000079862004    -0.014353006228    12.000000000000
         C           -0.203014302494    -1.225994137996    -0.004150006228    12.000000000000
         C           -0.202882302494     1.226040862004    -0.004145006228    12.000000000000
         C            1.193358697506    -1.213004137996     0.002274993772    12.000000000000
         C            1.193523697506     1.212923862004     0.002271993772    12.000000000000
         C            1.886944697506    -0.000066137996     0.007372993772    12.000000000000
         H           -0.747457102494    -2.168351337996    -0.057688806228     1.007825032230
         H           -0.747499302494     2.168353862004    -0.007667006228     1.007825032230
         H           -2.729750302494     0.831941862004    -0.461053006228     1.007825032230
         H           -2.730117302494    -0.824471137996    -0.473675006228     1.007825032230
         H           -2.718716302494    -0.007189137996     0.971415993772     1.007825032230
         H            1.735106697506    -2.154138137996     0.002633993772     1.007825032230
         H            1.735360697506     2.154004862004     0.002622993772     1.007825032230
         H            2.972907697506    -0.000135137996     0.011064993772     1.007825032230

  Basis Set: AUG-CC-PVTZ
    Blend: AUG-CC-PVTZ
  Basis Set: (AUG-CC-PVTZ AUX)
    Blend: AUG-CC-PVTZ-JKFIT
	 Reference Energy          =    -286.1884804200915937 [Eh]
	 Singles Energy            =      -0.0000000000000000 [Eh]
	 Same-Spin Energy          =      -0.3089705837376206 [Eh]
	 Opposite-Spin Energy      =      -0.9924958528913805 [Eh]
	 Correlation Energy        =      -1.3014664366290012 [Eh]
	 Total Energy              =    -287.4899468567206213 [Eh]

	 ================> DF-SCS-MP2 Energies <==================
	-----------------------------------------------------------
	 SCS Same-Spin Scale       =       0.3333333333333333 [-]
	 SCS Opposite-Spin Scale   =       1.2000000000000000 [-]
	 SCS Same-Spin Energy      =      -0.1029901945792069 [Eh]
	 SCS Opposite-Spin Energy  =      -1.1909950234696567 [Eh]
	 SCS Correlation Energy    =      -1.2939852180488636 [Eh]
	 SCS Total Energy          =    -287.4824656381404679 [Eh]
	-----------------------------------------------------------

  Dipole Moment: [D]
     X:    -7.2395      Y:     0.0019      Z:     0.0406     Total:     7.2397

*** Psi4 exiting successfully. Buy a developer a beer!
