                               Psi4 1.3.2 release

  ==> Input File <==

--------------------------------------------------------------------------
#psi4
#
memory 32 gb

molecule  {
1 1
  N       -2.3156210     0.0000130     0.0092220
  C       -0.8265460     0.0000770    -0.0152130
  C       -0.1716580    -1.2259970    -0.0050100
  C       -0.1698668     1.2260374     0.2449895
  C        1.2247150    -1.2130070     0.0014150
  C        1.2248800     1.2129210     0.0014120
  C        1.9183010    -0.0000690     0.0065130
  H       -0.7164250    -2.1682170    -0.0085500
  H       -0.7161430     2.1683510    -0.0085270
  H       -2.6983940     0.8319390    -0.4619130
  H       -2.6987610    -0.8244740    -0.4745350
  H       -2.6873600    -0.0071920     0.9705560
  H        1.7664630    -2.1541410     0.0017740
  H        1.7667170     2.1540020     0.0017630
  H        3.0042640    -0.0001380     0.0102050
units angstrom
no_reorient  #important for SAPT in psi4, default
symmetry c1  #important for SAPT in psi4, default
}

set PROPERTIES_ORIGIN ["COM"]
properties('MP2/aug-cc-pvtz', properties = ['dipole'])
--------------------------------------------------------------------------

    Molecular point group: c1
  Charge       = 1
  Multiplicity = 1
  Basis Set: AUG-CC-PVTZ
    Blend: AUG-CC-PVTZ
  Basis Set: (AUG-CC-PVTZ AUX)
    Blend: AUG-CC-PVTZ-JKFIT

    Orbital Energies [Eh]
    ---------------------

    Doubly Occupied:

       1A    -15.896784     2A    -11.473106     3A    -11.418363
       4A    -11.413748     5A    -11.402874     6A    -11.400307
       7A    -11.392462     8A     -1.510837     9A     -1.314050
      10A     -1.185432    11A     -1.178000    12A     -1.015629
      13A     -1.001802    14A     -0.957376    15A     -0.933914
      16A     -0.892992    17A     -0.831448    18A     -0.783041
      19A     -0.766537    20A     -0.750242    21A     -0.676326
      22A     -0.669047    23A     -0.659084    24A     -0.506803
      25A     -0.501985

  @DF-RHF Final Energy:  -286.16895267426287

   => Energetics <=

    Nuclear Repulsion Energy =            279.8190197794220353
    One-Electron Energy =                -930.9115647023718338
    Two-Electron Energy =                 364.9235922486869867
    Total Energy =                       -286.1689526742628686
  Basis Set: (AUG-CC-PVTZ AUX)
    Blend: AUG-CC-PVTZ-RI
    Molecular point group: c1

    Geometry (in Angstrom), charge = 1, multiplicity = 1:

       Center              X                  Y                   Z               Mass
    ------------   -----------------  -----------------  -----------------  -----------------
         N           -2.347185493880     0.000014468578    -0.022345606053    14.003074004430
         C           -0.858110493880     0.000078468578    -0.046780606053    12.000000000000
         C           -0.203222493880    -1.225995531422    -0.036577606053    12.000000000000
         C           -0.201431293880     1.226038868578     0.213421893947    12.000000000000
         C            1.193150506120    -1.213005531422    -0.030152606053    12.000000000000
         C            1.193315506120     1.212922468578    -0.030155606053    12.000000000000
         C            1.886736506120    -0.000067531422    -0.025054606053    12.000000000000
         H           -0.747989493880    -2.168215531422    -0.040117606053     1.007825032230
         H           -0.747707493880     2.168352468578    -0.040094606053     1.007825032230
         H           -2.729958493880     0.831940468578    -0.493480606053     1.007825032230
         H           -2.730325493880    -0.824472531422    -0.506102606053     1.007825032230
         H           -2.718924493880    -0.007190531422     0.938988393947     1.007825032230
         H            1.734898506120    -2.154139531422    -0.029793606053     1.007825032230
         H            1.735152506120     2.154003468578    -0.029804606053     1.007825032230
         H            2.972699506120    -0.000136531422    -0.021362606053     1.007825032230

  Basis Set: AUG-CC-PVTZ
    Blend: AUG-CC-PVTZ
  Basis Set: (AUG-CC-PVTZ AUX)
    Blend: AUG-CC-PVTZ-JKFIT
	 Reference Energy          =    -286.1689526742628686 [Eh]
	 Singles Energy            =      -0.0000000000000000 [Eh]
	 Same-Spin Energy          =      -0.3099532956826224 [Eh]
	 Opposite-Spin Energy      =      -0.9956865535814794 [Eh]
	 Correlation Energy        =      -1.3056398492641017 [Eh]
	 Total Energy              =    -287.4745925235269510 [Eh]

	 ================> DF-SCS-MP2 Energies <==================
	-----------------------------------------------------------
	 SCS Same-Spin Scale       =       0.3333333333333333 [-]
	 SCS Opposite-Spin Scale   =       1.2000000000000000 [-]
	 SCS Same-Spin Energy      =      -0.1033177652275408 [Eh]
	 SCS Opposite-Spin Energy  =      -1.1948238642977753 [Eh]
	 SCS Correlation Energy    =      -1.2981416295253161 [Eh]
	 SCS Total Energy          =    -287.4670943037882012 [Eh]
	-----------------------------------------------------------

  Dipole Moment: [D]
     X:    -7.1368      Y:    -0.1118      Z:    -0.1869     Total:     7.1402

*** Psi4 exiting successfully. Buy a developer a beer!
