                               Psi4 1.3.2 release

  ==> Input File <==

--------------------------------------------------------------------------
#psi4
#
memory 32 gb

molecule  {
1 1
  N       -2.3156210     0.0000130     0.0092220
  C       -0.8265460     0.0000770    -0.0152130
  C       -0.1716580    -1.2259970    -0.0050100
  C       -0.1715260     1.2260380    -0.0050050
  C        1.2247150    -1.2130070     0.0014150
  C        1.2248800     1.2129210     0.0014120
  C        1.9183010    -0.0000690     0.0065130
  H       -0.7164250    -2.1682170    -0.0085500
  H       -0.7161430     2.1683510    -0.0085270
  H       -2.6983940     0.8319390    -0.4619130
  H       -2.6987610    -0.8244740    -0.4745350
  H       -2.6873600    -0.0071920     0.9705560
  H        1.7664630    -2.1541410     0.0017740
  H        1.7667170     2.1540020     0.0017630
  H        3.0042640    -0.0001380     0.0102050
units angstrom
no_reorient  #important for SAPT in psi4, default
symmetry c1  #important for SAPT in psi4, default
}

set PROPERTIES_ORIGIN ["COM"]
properties('MP2/aug-cc-pvtz', properties = ['dipole'])
--------------------------------------------------------------------------

    Molecular point group: c1
  Charge       = 1
  Multiplicity = 1
  Basis Set: AUG-CC-PVTZ
    Blend: AUG-CC-PVTZ
  Basis Set: (AUG-CC-PVTZ AUX)
    Blend: AUG-CC-PVTZ-JKFIT

    Orbital Energies [Eh]
    ---------------------

    Doubly Occupied:

       1A    -15.897246     2A    -11.469011     3A    -11.413432
       4A    -11.413380     5A    -11.397245     6A    -11.397097
       7A    -11.392360     8A     -1.511307     9A     -1.315994
      10A     -1.187424    11A     -1.179325    12A     -1.017659
      13A     -1.003507    14A     -0.957704    15A     -0.934297
      16A     -0.895833    17A     -0.834981    18A     -0.787412
      19A     -0.768012    20A     -0.756131    21A     -0.673986
      22A     -0.673075    23A     -0.664404    24A     -0.508116
      25A     -0.501654

  @DF-RHF Final Energy:  -286.18863519857774

   => Energetics <=

    Nuclear Repulsion Energy =            280.4950430994979342
    One-Electron Energy =                -932.2661761474817013
    Two-Electron Energy =                 365.5824978494060247
    Total Energy =                       -286.1886351985777424
  Basis Set: (AUG-CC-PVTZ AUX)
    Blend: AUG-CC-PVTZ-RI
    Molecular point group: c1

    Geometry (in Angstrom), charge = 1, multiplicity = 1:

       Center              X                  Y                   Z               Mass
    ------------   -----------------  -----------------  -----------------  -----------------
         N           -2.346973828996     0.000014392036     0.009546303760    14.003074004430
         C           -0.857898828996     0.000078392036    -0.014888696240    12.000000000000
         C           -0.203010828996    -1.225995607964    -0.004685696240    12.000000000000
         C           -0.202878828996     1.226039392036    -0.004680696240    12.000000000000
         C            1.193362171004    -1.213005607964     0.001739303760    12.000000000000
         C            1.193527171004     1.212922392036     0.001736303760    12.000000000000
         C            1.886948171004    -0.000067607964     0.006837303760    12.000000000000
         H           -0.747777828996    -2.168215607964    -0.008225696240     1.007825032230
         H           -0.747495828996     2.168352392036    -0.008202696240     1.007825032230
         H           -2.729746828996     0.831940392036    -0.461588696240     1.007825032230
         H           -2.730113828996    -0.824472607964    -0.474210696240     1.007825032230
         H           -2.718712828996    -0.007190607964     0.970880303760     1.007825032230
         H            1.735110171004    -2.154139607964     0.002098303760     1.007825032230
         H            1.735364171004     2.154003392036     0.002087303760     1.007825032230
         H            2.972911171004    -0.000136607964     0.010529303760     1.007825032230

  Basis Set: AUG-CC-PVTZ
    Blend: AUG-CC-PVTZ
  Basis Set: (AUG-CC-PVTZ AUX)
    Blend: AUG-CC-PVTZ-JKFIT
	 Reference Energy          =    -286.1886351985777424 [Eh]
	 Singles Energy            =      -0.0000000000000000 [Eh]
	 Same-Spin Energy          =      -0.3089586669916408 [Eh]
	 Opposite-Spin Energy      =      -0.9924678602079924 [Eh]
	 Correlation Energy        =      -1.3014265271996333 [Eh]
	 Total Energy              =    -287.4900617257773661 [Eh]

	 ================> DF-SCS-MP2 Energies <==================
	-----------------------------------------------------------
	 SCS Same-Spin Scale       =       0.3333333333333333 [-]
	 SCS Opposite-Spin Scale   =       1.2000000000000000 [-]
	 SCS Same-Spin Energy      =      -0.1029862223305469 [Eh]
	 SCS Opposite-Spin Energy  =      -1.1909614322495907 [Eh]
	 SCS Correlation Energy    =      -1.2939476545801376 [Eh]
	 SCS Total Energy          =    -287.4825828531579077 [Eh]
	-----------------------------------------------------------

  Dipole Moment: [D]
     X:    -7.2424      Y:    -0.0004      Z:     0.0736     Total:     7.2428

*** Psi4 exiting successfully. Buy a developer a beer!
