                               Psi4 1.3.2 release

  ==> Input File <==

--------------------------------------------------------------------------
#psi4
#
memory 32 gb

molecule  {
1 1
  N       -2.3156210     0.0000130     0.0092220
  C       -0.8265460     0.0000770    -0.0152130
  C       -0.1716580    -1.2259970    -0.0050100
  C       -0.1715260     1.2260380    -0.0050050
  C        1.2247150    -1.2130070     0.0014150
  C        1.2248800     1.2129210     0.0014120
  C        1.9183010    -0.0000690     0.0065130
  H       -0.7164250    -2.1682170    -0.0085500
  H       -0.7161430     2.1683510    -0.0085270
  H       -2.6983940     0.8319390    -0.4619130
  H       -2.6987610    -0.8244740    -0.4745350
  H       -2.6873600    -0.0071920     0.9705560
  H        1.7673440    -2.1537631    -0.1982237
  H        1.7667170     2.1540020     0.0017630
  H        3.0042640    -0.0001380     0.0102050
units angstrom
no_reorient  #important for SAPT in psi4, default
symmetry c1  #important for SAPT in psi4, default
}

set PROPERTIES_ORIGIN ["COM"]
properties('MP2/aug-cc-pvtz', properties = ['dipole'])
--------------------------------------------------------------------------

    Molecular point group: c1
  Charge       = 1
  Multiplicity = 1
  Basis Set: AUG-CC-PVTZ
    Blend: AUG-CC-PVTZ
  Basis Set: (AUG-CC-PVTZ AUX)
    Blend: AUG-CC-PVTZ-JKFIT

    Orbital Energies [Eh]
    ---------------------

    Doubly Occupied:

       1A    -15.897280     2A    -11.469086     3A    -11.413733
       4A    -11.413582     5A    -11.398651     6A    -11.397256
       7A    -11.392672     8A     -1.511347     9A     -1.316066
      10A     -1.187219    11A     -1.179284    12A     -1.017063
      13A     -1.003487    14A     -0.957738    15A     -0.934060
      16A     -0.894695    17A     -0.835000    18A     -0.787480
      19A     -0.766493    20A     -0.755118    21A     -0.677233
      22A     -0.671723    23A     -0.660606    24A     -0.508076
      25A     -0.501347

  @DF-RHF Final Energy:  -286.18589930528924

   => Energetics <=

    Nuclear Repulsion Energy =            280.4271333917920970
    One-Electron Energy =                -932.1334730538201256
    Two-Electron Energy =                 365.5204403567388454
    Total Energy =                       -286.1858993052892401
  Basis Set: (AUG-CC-PVTZ AUX)
    Blend: AUG-CC-PVTZ-RI
    Molecular point group: c1

    Geometry (in Angstrom), charge = 1, multiplicity = 1:

       Center              X                  Y                   Z               Mass
    ------------   -----------------  -----------------  -----------------  -----------------
         N           -2.346983268081     0.000010343193     0.011689090595    14.003074004430
         C           -0.857908268081     0.000074343193    -0.012745909405    12.000000000000
         C           -0.203020268081    -1.225999656807    -0.002542909405    12.000000000000
         C           -0.202888268081     1.226035343193    -0.002537909405    12.000000000000
         C            1.193352731919    -1.213009656807     0.003882090595    12.000000000000
         C            1.193517731919     1.212918343193     0.003879090595    12.000000000000
         C            1.886938731919    -0.000071656807     0.008980090595    12.000000000000
         H           -0.747787268081    -2.168219656807    -0.006082909405     1.007825032230
         H           -0.747505268081     2.168348343193    -0.006059909405     1.007825032230
         H           -2.729756268081     0.831936343193    -0.459445909405     1.007825032230
         H           -2.730123268081    -0.824476656807    -0.472067909405     1.007825032230
         H           -2.718722268081    -0.007194656807     0.973023090595     1.007825032230
         H            1.735981731919    -2.153765756807    -0.195756609405     1.007825032230
         H            1.735354731919     2.153999343193     0.004230090595     1.007825032230
         H            2.972901731919    -0.000140656807     0.012672090595     1.007825032230

  Basis Set: AUG-CC-PVTZ
    Blend: AUG-CC-PVTZ
  Basis Set: (AUG-CC-PVTZ AUX)
    Blend: AUG-CC-PVTZ-JKFIT
	 Reference Energy          =    -286.1858993052892401 [Eh]
	 Singles Energy            =      -0.0000000000000000 [Eh]
	 Same-Spin Energy          =      -0.3091129238736355 [Eh]
	 Opposite-Spin Energy      =      -0.9928462059883865 [Eh]
	 Correlation Energy        =      -1.3019591298620221 [Eh]
	 Total Energy              =    -287.4878584351512814 [Eh]

	 ================> DF-SCS-MP2 Energies <==================
	-----------------------------------------------------------
	 SCS Same-Spin Scale       =       0.3333333333333333 [-]
	 SCS Opposite-Spin Scale   =       1.2000000000000000 [-]
	 SCS Same-Spin Energy      =      -0.1030376412912118 [Eh]
	 SCS Opposite-Spin Energy  =      -1.1914154471860636 [Eh]
	 SCS Correlation Energy    =      -1.2944530884772756 [Eh]
	 SCS Total Energy          =    -287.4803523937665091 [Eh]
	-----------------------------------------------------------

  Dipole Moment: [D]
     X:    -7.2486      Y:     0.0197      Z:    -0.0436     Total:     7.2487

*** Psi4 exiting successfully. Buy a developer a beer!
