                               Psi4 1.3.2 release

  ==> Input File <==

--------------------------------------------------------------------------
#psi4
#
memory 32 gb

molecule  {
1 1
  N       -2.3156210     0.0000130     0.0092220
  C       -0.8265460     0.0000770    -0.0152130
  C       -0.1716580    -1.2259970    -0.0050100
  C       -0.1715260     1.2260380    -0.0050050
  C        1.2247150    -1.2130070     0.0014150
  C        1.2248800     1.2129210     0.0014120
  C        1.9183010    -0.0000690     0.0065130
  H       -0.7164250    -2.1682170    -0.0085500
  H       -0.7161430     2.1683510    -0.0085270
  H       -2.6983940     0.8319390    -0.4619130
  H       -2.6987610    -0.8244740    -0.4745350
  H       -2.6873600    -0.0071920     0.9705560
  H        1.7664630    -2.1541410     0.0017740
  H        1.7667170     2.1540020     0.0017630
  H        3.0054991    -0.0001384    -0.2397919
units angstrom
no_reorient  #important for SAPT in psi4, default
symmetry c1  #important for SAPT in psi4, default
}

set PROPERTIES_ORIGIN ["COM"]
properties('MP2/aug-cc-pvtz', properties = ['dipole'])
--------------------------------------------------------------------------

    Molecular point group: c1
  Charge       = 1
  Multiplicity = 1
  Basis Set: AUG-CC-PVTZ
    Blend: AUG-CC-PVTZ
  Basis Set: (AUG-CC-PVTZ AUX)
    Blend: AUG-CC-PVTZ-JKFIT

    Orbital Energies [Eh]
    ---------------------

    Doubly Occupied:

       1A    -15.897486     2A    -11.469422     3A    -11.413545
       4A    -11.413493     5A    -11.397737     6A    -11.397485
       7A    -11.394655     8A     -1.511533     9A     -1.316127
      10A     -1.187637    11A     -1.178680    12A     -1.017852
      13A     -1.002168    14A     -0.957910    15A     -0.934471
      16A     -0.895970    17A     -0.830886    18A     -0.787605
      19A     -0.767036    20A     -0.756251    21A     -0.679173
      22A     -0.664618    23A     -0.663638    24A     -0.507251
      25A     -0.501836

  @DF-RHF Final Energy:  -286.18420648854817

   => Energetics <=

    Nuclear Repulsion Energy =            280.3894486649467126
    One-Electron Energy =                -932.0583810211822993
    Two-Electron Energy =                 365.4847258676874162
    Total Energy =                       -286.1842064885481705
  Basis Set: (AUG-CC-PVTZ AUX)
    Blend: AUG-CC-PVTZ-RI
    Molecular point group: c1

    Geometry (in Angstrom), charge = 1, multiplicity = 1:

       Center              X                  Y                   Z               Mass
    ------------   -----------------  -----------------  -----------------  -----------------
         N           -2.346987061929     0.000014396321     0.012224784893    14.003074004430
         C           -0.857912061929     0.000078396321    -0.012210215107    12.000000000000
         C           -0.203024061929    -1.225995603679    -0.002007215107    12.000000000000
         C           -0.202892061929     1.226039396321    -0.002002215107    12.000000000000
         C            1.193348938071    -1.213005603679     0.004417784893    12.000000000000
         C            1.193513938071     1.212922396321     0.004414784893    12.000000000000
         C            1.886934938071    -0.000067603679     0.009515784893    12.000000000000
         H           -0.747791061929    -2.168215603679    -0.005547215107     1.007825032230
         H           -0.747509061929     2.168352396321    -0.005524215107     1.007825032230
         H           -2.729760061929     0.831940396321    -0.458910215107     1.007825032230
         H           -2.730127061929    -0.824472603679    -0.471532215107     1.007825032230
         H           -2.718726061929    -0.007190603679     0.973558784893     1.007825032230
         H            1.735096938071    -2.154139603679     0.004776784893     1.007825032230
         H            1.735350938071     2.154003396321     0.004765784893     1.007825032230
         H            2.974133038071    -0.000137003679    -0.236789115107     1.007825032230

  Basis Set: AUG-CC-PVTZ
    Blend: AUG-CC-PVTZ
  Basis Set: (AUG-CC-PVTZ AUX)
    Blend: AUG-CC-PVTZ-JKFIT
	 Reference Energy          =    -286.1842064885481705 [Eh]
	 Singles Energy            =      -0.0000000000000000 [Eh]
	 Same-Spin Energy          =      -0.3091946037966505 [Eh]
	 Opposite-Spin Energy      =      -0.9930536830258765 [Eh]
	 Correlation Energy        =      -1.3022482868225269 [Eh]
	 Total Energy              =    -287.4864547753707029 [Eh]

	 ================> DF-SCS-MP2 Energies <==================
	-----------------------------------------------------------
	 SCS Same-Spin Scale       =       0.3333333333333333 [-]
	 SCS Opposite-Spin Scale   =       1.2000000000000000 [-]
	 SCS Same-Spin Energy      =      -0.1030648679322168 [Eh]
	 SCS Opposite-Spin Energy  =      -1.1916644196310517 [Eh]
	 SCS Correlation Energy    =      -1.2947292875632685 [Eh]
	 SCS Total Energy          =    -287.4789357761114275 [Eh]
	-----------------------------------------------------------

  Dipole Moment: [D]
     X:    -7.2727      Y:    -0.0004      Z:    -0.0757     Total:     7.2731

*** Psi4 exiting successfully. Buy a developer a beer!
