                               Psi4 1.3.2 release

  ==> Input File <==

--------------------------------------------------------------------------
#psi4
#
memory 32 gb

molecule  {
1 1
  N       -2.3156210     0.0000130     0.0092220
  C       -0.8265460     0.0000770    -0.0152130
  C       -0.1716580    -1.2259970    -0.0050100
  C       -0.1708623     1.2260378     0.0949928
  C        1.2247150    -1.2130070     0.0014150
  C        1.2248800     1.2129210     0.0014120
  C        1.9183010    -0.0000690     0.0065130
  H       -0.7164250    -2.1682170    -0.0085500
  H       -0.7161430     2.1683510    -0.0085270
  H       -2.6983940     0.8319390    -0.4619130
  H       -2.6987610    -0.8244740    -0.4745350
  H       -2.6873600    -0.0071920     0.9705560
  H        1.7664630    -2.1541410     0.0017740
  H        1.7667170     2.1540020     0.0017630
  H        3.0042640    -0.0001380     0.0102050
units angstrom
no_reorient  #important for SAPT in psi4, default
symmetry c1  #important for SAPT in psi4, default
}

set PROPERTIES_ORIGIN ["COM"]
properties('MP2/aug-cc-pvtz', properties = ['dipole'])
--------------------------------------------------------------------------

    Molecular point group: c1
  Charge       = 1
  Multiplicity = 1
  Basis Set: AUG-CC-PVTZ
    Blend: AUG-CC-PVTZ
  Basis Set: (AUG-CC-PVTZ AUX)
    Blend: AUG-CC-PVTZ-JKFIT

    Orbital Energies [Eh]
    ---------------------

    Doubly Occupied:

       1A    -15.897151     2A    -11.469661     3A    -11.414220
       4A    -11.413494     5A    -11.398028     6A    -11.397596
       7A    -11.392387     8A     -1.511192     9A     -1.315663
      10A     -1.187095    11A     -1.179078    12A     -1.017181
      13A     -1.003260    14A     -0.957638    15A     -0.934222
      16A     -0.895201    17A     -0.834315    18A     -0.786525
      19A     -0.767695    20A     -0.755251    21A     -0.675250
      22A     -0.671527    23A     -0.663540    24A     -0.507823
      25A     -0.501763

  @DF-RHF Final Energy:  -286.18543478756726

   => Energetics <=

    Nuclear Repulsion Energy =            280.3869216562226256
    One-Electron Energy =                -932.0512005039041696
    Two-Electron Energy =                 365.4788440601142838
    Total Energy =                       -286.1854347875672602
  Basis Set: (AUG-CC-PVTZ AUX)
    Blend: AUG-CC-PVTZ-RI
    Molecular point group: c1

    Geometry (in Angstrom), charge = 1, multiplicity = 1:

       Center              X                  Y                   Z               Mass
    ------------   -----------------  -----------------  -----------------  -----------------
         N           -2.347058497501     0.000014417550    -0.003210460165    14.003074004430
         C           -0.857983497501     0.000078417550    -0.027645460165    12.000000000000
         C           -0.203095497501    -1.225995582450    -0.017442460165    12.000000000000
         C           -0.202299797501     1.226039217550     0.082560339835    12.000000000000
         C            1.193277502499    -1.213005582450    -0.011017460165    12.000000000000
         C            1.193442502499     1.212922417550    -0.011020460165    12.000000000000
         C            1.886863502499    -0.000067582450    -0.005919460165    12.000000000000
         H           -0.747862497501    -2.168215582450    -0.020982460165     1.007825032230
         H           -0.747580497501     2.168352417550    -0.020959460165     1.007825032230
         H           -2.729831497501     0.831940417550    -0.474345460165     1.007825032230
         H           -2.730198497501    -0.824472582450    -0.486967460165     1.007825032230
         H           -2.718797497501    -0.007190582450     0.958123539835     1.007825032230
         H            1.735025502499    -2.154139582450    -0.010658460165     1.007825032230
         H            1.735279502499     2.154003417550    -0.010669460165     1.007825032230
         H            2.972826502499    -0.000136582450    -0.002227460165     1.007825032230

  Basis Set: AUG-CC-PVTZ
    Blend: AUG-CC-PVTZ
  Basis Set: (AUG-CC-PVTZ AUX)
    Blend: AUG-CC-PVTZ-JKFIT
	 Reference Energy          =    -286.1854347875672602 [Eh]
	 Singles Energy            =      -0.0000000000000000 [Eh]
	 Same-Spin Energy          =      -0.3091365629661461 [Eh]
	 Opposite-Spin Energy      =      -0.9930480005109492 [Eh]
	 Correlation Energy        =      -1.3021845634770952 [Eh]
	 Total Energy              =    -287.4876193510443727 [Eh]

	 ================> DF-SCS-MP2 Energies <==================
	-----------------------------------------------------------
	 SCS Same-Spin Scale       =       0.3333333333333333 [-]
	 SCS Opposite-Spin Scale   =       1.2000000000000000 [-]
	 SCS Same-Spin Energy      =      -0.1030455209887153 [Eh]
	 SCS Opposite-Spin Energy  =      -1.1916576006131390 [Eh]
	 SCS Correlation Energy    =      -1.2947031216018543 [Eh]
	 SCS Total Energy          =    -287.4801379091691160 [Eh]
	-----------------------------------------------------------

  Dipole Moment: [D]
     X:    -7.2243      Y:    -0.0198      Z:    -0.0286     Total:     7.2244

*** Psi4 exiting successfully. Buy a developer a beer!
