                               Psi4 1.3.2 release

  ==> Input File <==

--------------------------------------------------------------------------
#psi4
#
memory 32 gb

molecule  {
1 1
  N       -2.3156210     0.0000130     0.0092220
  C       -0.8265460     0.0000770    -0.0152130
  C       -0.1716580    -1.2259970    -0.0050100
  C       -0.1715260     1.2260380    -0.0050050
  C        1.2247150    -1.2130070     0.0014150
  C        1.2248800     1.2129210     0.0014120
  C        1.9183010    -0.0000690     0.0065130
  H       -0.7164250    -2.1682170    -0.0085500
  H       -0.7161430     2.1683510    -0.0085270
  H       -2.6983940     0.8319390    -0.4619130
  H       -2.6987610    -0.8244740    -0.4745350
  H       -2.6873600    -0.0071920     0.9705560
  H        1.7664630    -2.1541410     0.0017740
  H        1.7667170     2.1540020     0.0017630
  H        3.0052521    -0.0001383    -0.1897926
units angstrom
no_reorient  #important for SAPT in psi4, default
symmetry c1  #important for SAPT in psi4, default
}

set PROPERTIES_ORIGIN ["COM"]
properties('MP2/aug-cc-pvtz', properties = ['dipole'])
--------------------------------------------------------------------------

    Molecular point group: c1
  Charge       = 1
  Multiplicity = 1
  Basis Set: AUG-CC-PVTZ
    Blend: AUG-CC-PVTZ
  Basis Set: (AUG-CC-PVTZ AUX)
    Blend: AUG-CC-PVTZ-JKFIT

    Orbital Energies [Eh]
    ---------------------

    Doubly Occupied:

       1A    -15.897404     2A    -11.469279     3A    -11.413503
       4A    -11.413451     5A    -11.397550     6A    -11.397348
       7A    -11.393858     8A     -1.511452     9A     -1.316079
      10A     -1.187560    11A     -1.178901    12A     -1.017783
      13A     -1.002623    14A     -0.957836    15A     -0.934408
      16A     -0.895919    17A     -0.832288    18A     -0.787536
      19A     -0.767390    20A     -0.756206    21A     -0.678258
      22A     -0.666073    23A     -0.664541    24A     -0.507561
      25A     -0.501770

  @DF-RHF Final Energy:  -286.18587611702151

   => Energetics <=

    Nuclear Repulsion Energy =            280.4265541495242928
    One-Electron Energy =                -932.1317040839641095
    Two-Electron Energy =                 365.5192738174182523
    Total Energy =                       -286.1858761170215075
  Basis Set: (AUG-CC-PVTZ AUX)
    Blend: AUG-CC-PVTZ-RI
    Molecular point group: c1

    Geometry (in Angstrom), charge = 1, multiplicity = 1:

       Center              X                  Y                   Z               Mass
    ------------   -----------------  -----------------  -----------------  -----------------
         N           -2.346984415557     0.000014395250     0.011689089523    14.003074004430
         C           -0.857909415557     0.000078395250    -0.012745910477    12.000000000000
         C           -0.203021415557    -1.225995604750    -0.002542910477    12.000000000000
         C           -0.202889415557     1.226039395250    -0.002537910477    12.000000000000
         C            1.193351584443    -1.213005604750     0.003882089523    12.000000000000
         C            1.193516584443     1.212922395250     0.003879089523    12.000000000000
         C            1.886937584443    -0.000067604750     0.008980089523    12.000000000000
         H           -0.747788415557    -2.168215604750    -0.006082910477     1.007825032230
         H           -0.747506415557     2.168352395250    -0.006059910477     1.007825032230
         H           -2.729757415557     0.831940395250    -0.459445910477     1.007825032230
         H           -2.730124415557    -0.824472604750    -0.472067910477     1.007825032230
         H           -2.718723415557    -0.007190604750     0.973023089523     1.007825032230
         H            1.735099584443    -2.154139604750     0.004241089523     1.007825032230
         H            1.735353584443     2.154003395250     0.004230089523     1.007825032230
         H            2.973888684443    -0.000136904750    -0.187325510477     1.007825032230

  Basis Set: AUG-CC-PVTZ
    Blend: AUG-CC-PVTZ
  Basis Set: (AUG-CC-PVTZ AUX)
    Blend: AUG-CC-PVTZ-JKFIT
	 Reference Energy          =    -286.1858761170215075 [Eh]
	 Singles Energy            =      -0.0000000000000000 [Eh]
	 Same-Spin Energy          =      -0.3091122577283008 [Eh]
	 Opposite-Spin Energy      =      -0.9928387673060060 [Eh]
	 Correlation Energy        =      -1.3019510250343067 [Eh]
	 Total Energy              =    -287.4878271420558349 [Eh]

	 ================> DF-SCS-MP2 Energies <==================
	-----------------------------------------------------------
	 SCS Same-Spin Scale       =       0.3333333333333333 [-]
	 SCS Opposite-Spin Scale   =       1.2000000000000000 [-]
	 SCS Same-Spin Energy      =      -0.1030374192427669 [Eh]
	 SCS Opposite-Spin Energy  =      -1.1914065207672071 [Eh]
	 SCS Correlation Energy    =      -1.2944439400099741 [Eh]
	 SCS Total Energy          =    -287.4803200570314630 [Eh]
	-----------------------------------------------------------

  Dipole Moment: [D]
     X:    -7.2616      Y:    -0.0004      Z:    -0.0460     Total:     7.2617

*** Psi4 exiting successfully. Buy a developer a beer!
