                               Psi4 1.3.2 release

  ==> Input File <==

--------------------------------------------------------------------------
#psi4
#
memory 32 gb

molecule  {
1 1
  N       -2.3156210     0.0000130     0.0092220
  C       -0.8265460     0.0000770    -0.0152130
  C       -0.1716580    -1.2259970    -0.0050100
  C       -0.1715260     1.2260380    -0.0050050
  C        1.2247150    -1.2130070     0.0014150
  C        1.2248800     1.2129210     0.0014120
  C        1.9183010    -0.0000690     0.0065130
  H       -0.7164250    -2.1682170    -0.0085500
  H       -0.7161430     2.1683510    -0.0085270
  H       -2.6983940     0.8319390    -0.4619130
  H       -2.6987610    -0.8244740    -0.4745350
  H       -2.6873600    -0.0071920     0.9705560
  H        1.7666833    -2.1540465    -0.0482254
  H        1.7667170     2.1540020     0.0017630
  H        3.0042640    -0.0001380     0.0102050
units angstrom
no_reorient  #important for SAPT in psi4, default
symmetry c1  #important for SAPT in psi4, default
}

set PROPERTIES_ORIGIN ["COM"]
properties('MP2/aug-cc-pvtz', properties = ['dipole'])
--------------------------------------------------------------------------

    Molecular point group: c1
  Charge       = 1
  Multiplicity = 1
  Basis Set: AUG-CC-PVTZ
    Blend: AUG-CC-PVTZ
  Basis Set: (AUG-CC-PVTZ AUX)
    Blend: AUG-CC-PVTZ-JKFIT

    Orbital Energies [Eh]
    ---------------------

    Doubly Occupied:

       1A    -15.897244     2A    -11.469015     3A    -11.413457
       4A    -11.413389     5A    -11.397311     6A    -11.397136
       7A    -11.392389     8A     -1.511304     9A     -1.316000
      10A     -1.187411    11A     -1.179324    12A     -1.017619
      13A     -1.003506    14A     -0.957700    15A     -0.934278
      16A     -0.895754    17A     -0.834983    18A     -0.787417
      19A     -0.767920    20A     -0.756075    21A     -0.674674
      22A     -0.672517    23A     -0.664149    24A     -0.508122
      25A     -0.501629

  @DF-RHF Final Energy:  -286.18846861809277

   => Energetics <=

    Nuclear Repulsion Energy =            280.4907165238559514
    One-Electron Energy =                -932.2577249524314311
    Two-Electron Energy =                 365.5785398104827664
    Total Energy =                       -286.1884686180927702
  Basis Set: (AUG-CC-PVTZ AUX)
    Blend: AUG-CC-PVTZ-RI
    Molecular point group: c1

    Geometry (in Angstrom), charge = 1, multiplicity = 1:

       Center              X                  Y                   Z               Mass
    ------------   -----------------  -----------------  -----------------  -----------------
         N           -2.346976189303     0.000013379557     0.010082000201    14.003074004430
         C           -0.857901189303     0.000077379557    -0.014352999799    12.000000000000
         C           -0.203013189303    -1.225996620443    -0.004149999799    12.000000000000
         C           -0.202881189303     1.226038379557    -0.004144999799    12.000000000000
         C            1.193359810697    -1.213006620443     0.002275000201    12.000000000000
         C            1.193524810697     1.212921379557     0.002272000201    12.000000000000
         C            1.886945810697    -0.000068620443     0.007373000201    12.000000000000
         H           -0.747780189303    -2.168216620443    -0.007689999799     1.007825032230
         H           -0.747498189303     2.168351379557    -0.007666999799     1.007825032230
         H           -2.729749189303     0.831939379557    -0.461052999799     1.007825032230
         H           -2.730116189303    -0.824473620443    -0.473674999799     1.007825032230
         H           -2.718715189303    -0.007191620443     0.971416000201     1.007825032230
         H            1.735328110697    -2.154046120443    -0.047365399799     1.007825032230
         H            1.735361810697     2.154002379557     0.002623000201     1.007825032230
         H            2.972908810697    -0.000137620443     0.011065000201     1.007825032230

  Basis Set: AUG-CC-PVTZ
    Blend: AUG-CC-PVTZ
  Basis Set: (AUG-CC-PVTZ AUX)
    Blend: AUG-CC-PVTZ-JKFIT
	 Reference Energy          =    -286.1884686180927702 [Eh]
	 Singles Energy            =      -0.0000000000000000 [Eh]
	 Same-Spin Energy          =      -0.3089697954144974 [Eh]
	 Opposite-Spin Energy      =      -0.9924908472334413 [Eh]
	 Correlation Energy        =      -1.3014606426479387 [Eh]
	 Total Energy              =    -287.4899292607407233 [Eh]

	 ================> DF-SCS-MP2 Energies <==================
	-----------------------------------------------------------
	 SCS Same-Spin Scale       =       0.3333333333333333 [-]
	 SCS Opposite-Spin Scale   =       1.2000000000000000 [-]
	 SCS Same-Spin Energy      =      -0.1029899318048325 [Eh]
	 SCS Opposite-Spin Energy  =      -1.1909890166801296 [Eh]
	 SCS Correlation Energy    =      -1.2939789484849620 [Eh]
	 SCS Total Energy          =    -287.4824475665777186 [Eh]
	-----------------------------------------------------------

  Dipole Moment: [D]
     X:    -7.2421      Y:     0.0012      Z:     0.0443     Total:     7.2422

*** Psi4 exiting successfully. Buy a developer a beer!
