                               Psi4 1.3.2 release

  ==> Input File <==

--------------------------------------------------------------------------
#psi4
#
memory 32 gb

molecule  {
1 1
  N       -2.3156210     0.0000130     0.0092220
  C       -0.8265460     0.0000770    -0.0152130
  C       -0.1716580    -1.2259970    -0.0050100
  C       -0.1715260     1.2260380    -0.0050050
  C        1.2247150    -1.2130070     0.0014150
  C        1.2248800     1.2129210     0.0014120
  C        1.9183010    -0.0000690     0.0065130
  H       -0.7164250    -2.1682170    -0.0085500
  H       -0.7161430     2.1683510    -0.0085270
  H       -2.6983940     0.8319390    -0.4619130
  H       -2.6987610    -0.8244740    -0.4745350
  H       -2.6873600    -0.0071920     0.9705560
  H        1.7664630    -2.1541410     0.0017740
  H        1.7667170     2.1540020     0.0017630
  H        3.0047580    -0.0001382    -0.0897938
units angstrom
no_reorient  #important for SAPT in psi4, default
symmetry c1  #important for SAPT in psi4, default
}

set PROPERTIES_ORIGIN ["COM"]
properties('MP2/aug-cc-pvtz', properties = ['dipole'])
--------------------------------------------------------------------------

    Molecular point group: c1
  Charge       = 1
  Multiplicity = 1
  Basis Set: AUG-CC-PVTZ
    Blend: AUG-CC-PVTZ
  Basis Set: (AUG-CC-PVTZ AUX)
    Blend: AUG-CC-PVTZ-JKFIT

    Orbital Energies [Eh]
    ---------------------

    Doubly Occupied:

       1A    -15.897292     2A    -11.469085     3A    -11.413451
       4A    -11.413399     5A    -11.397324     6A    -11.397165
       7A    -11.392750     8A     -1.511345     9A     -1.316018
      10A     -1.187460    11A     -1.179216    12A     -1.017693
      13A     -1.003276    14A     -0.957738    15A     -0.934326
      16A     -0.895855    17A     -0.834275    18A     -0.787446
      19A     -0.767863    20A     -0.756149    21A     -0.676014
      22A     -0.670343    23A     -0.664440    24A     -0.507983
      25A     -0.501684

  @DF-RHF Final Energy:  -286.18797135048868

   => Energetics <=

    Nuclear Repulsion Energy =            280.4774405498653778
    One-Electron Energy =                -932.2316444329688920
    Two-Electron Energy =                 365.5662325326148334
    Total Energy =                       -286.1879713504886809
  Basis Set: (AUG-CC-PVTZ AUX)
    Blend: AUG-CC-PVTZ-RI
    Molecular point group: c1

    Geometry (in Angstrom), charge = 1, multiplicity = 1:

       Center              X                  Y                   Z               Mass
    ------------   -----------------  -----------------  -----------------  -----------------
         N           -2.346979121741     0.000014394179     0.010617696641    14.003074004430
         C           -0.857904121741     0.000078394179    -0.013817303359    12.000000000000
         C           -0.203016121741    -1.225995605821    -0.003614303359    12.000000000000
         C           -0.202884121741     1.226039394179    -0.003609303359    12.000000000000
         C            1.193356878259    -1.213005605821     0.002810696641    12.000000000000
         C            1.193521878259     1.212922394179     0.002807696641    12.000000000000
         C            1.886942878259    -0.000067605821     0.007908696641    12.000000000000
         H           -0.747783121741    -2.168215605821    -0.007154303359     1.007825032230
         H           -0.747501121741     2.168352394179    -0.007131303359     1.007825032230
         H           -2.729752121741     0.831940394179    -0.460517303359     1.007825032230
         H           -2.730119121741    -0.824472605821    -0.473139303359     1.007825032230
         H           -2.718718121741    -0.007190605821     0.971951696641     1.007825032230
         H            1.735104878259    -2.154139605821     0.003169696641     1.007825032230
         H            1.735358878259     2.154003394179     0.003158696641     1.007825032230
         H            2.973399878259    -0.000136805821    -0.088398103359     1.007825032230

  Basis Set: AUG-CC-PVTZ
    Blend: AUG-CC-PVTZ
  Basis Set: (AUG-CC-PVTZ AUX)
    Blend: AUG-CC-PVTZ-JKFIT
	 Reference Energy          =    -286.1879713504886809 [Eh]
	 Singles Energy            =      -0.0000000000000000 [Eh]
	 Same-Spin Energy          =      -0.3089988600822345 [Eh]
	 Opposite-Spin Energy      =      -0.9925569160053387 [Eh]
	 Correlation Energy        =      -1.3015557760875731 [Eh]
	 Total Energy              =    -287.4895271265762631 [Eh]

	 ================> DF-SCS-MP2 Energies <==================
	-----------------------------------------------------------
	 SCS Same-Spin Scale       =       0.3333333333333333 [-]
	 SCS Opposite-Spin Scale   =       1.2000000000000000 [-]
	 SCS Same-Spin Energy      =      -0.1029996200274115 [Eh]
	 SCS Opposite-Spin Energy  =      -1.1910682992064063 [Eh]
	 SCS Correlation Energy    =      -1.2940679192338178 [Eh]
	 SCS Total Energy          =    -287.4820392697225202 [Eh]
	-----------------------------------------------------------

  Dipole Moment: [D]
     X:    -7.2469      Y:    -0.0004      Z:     0.0137     Total:     7.2469

*** Psi4 exiting successfully. Buy a developer a beer!
