                               Psi4 1.3.2 release

  ==> Input File <==

--------------------------------------------------------------------------
#psi4
#
memory 32 gb

molecule  {
1 1
  N       -2.3156210     0.0000130     0.0092220
  C       -0.8265460     0.0000770    -0.0152130
  C       -0.1716580    -1.2259970    -0.0050100
  C       -0.1715260     1.2260380    -0.0050050
  C        1.2247150    -1.2130070     0.0014150
  C        1.2248800     1.2129210     0.0014120
  C        1.9183010    -0.0000690     0.0065130
  H       -0.7164250    -2.1682170    -0.0085500
  H       -0.7161430     2.1683510    -0.0085270
  H       -2.6983940     0.8319390    -0.4619130
  H       -2.6987610    -0.8244740    -0.4745350
  H       -2.6873600    -0.0071920     0.9705560
  H        1.7664630    -2.1541410     0.0017740
  H        1.7667170     2.1540020     0.0017630
  H        3.0057461    -0.0001385    -0.2897913
units angstrom
no_reorient  #important for SAPT in psi4, default
symmetry c1  #important for SAPT in psi4, default
}

set PROPERTIES_ORIGIN ["COM"]
properties('MP2/aug-cc-pvtz', properties = ['dipole'])
--------------------------------------------------------------------------

    Molecular point group: c1
  Charge       = 1
  Multiplicity = 1
  Basis Set: AUG-CC-PVTZ
    Blend: AUG-CC-PVTZ
  Basis Set: (AUG-CC-PVTZ AUX)
    Blend: AUG-CC-PVTZ-JKFIT

    Orbital Energies [Eh]
    ---------------------

    Doubly Occupied:

       1A    -15.897584     2A    -11.469595     3A    -11.413599
       4A    -11.413547     5A    -11.397998     6A    -11.397654
       7A    -11.395574     8A     -1.511631     9A     -1.316187
      10A     -1.187732    11A     -1.178426    12A     -1.017936
      13A     -1.001646    14A     -0.958000    15A     -0.934548
      16A     -0.896038    17A     -0.829265    18A     -0.787689
      19A     -0.766606    20A     -0.756308    21A     -0.679958
      22A     -0.664714    23A     -0.660990    24A     -0.506882
      25A     -0.501916

  @DF-RHF Final Energy:  -286.18206671522796

   => Energetics <=

    Nuclear Repulsion Energy =            280.3451894243559650
    One-Electron Energy =                -931.9704707202698728
    Two-Electron Energy =                 365.4432145806860035
    Total Energy =                       -286.1820667152279611
  Basis Set: (AUG-CC-PVTZ AUX)
    Blend: AUG-CC-PVTZ-RI
    Molecular point group: c1

    Geometry (in Angstrom), charge = 1, multiplicity = 1:

       Center              X                  Y                   Z               Mass
    ------------   -----------------  -----------------  -----------------  -----------------
         N           -2.346989708301     0.000014397393     0.012760481334    14.003074004430
         C           -0.857914708301     0.000078397393    -0.011674518666    12.000000000000
         C           -0.203026708301    -1.225995602607    -0.001471518666    12.000000000000
         C           -0.202894708301     1.226039397393    -0.001466518666    12.000000000000
         C            1.193346291699    -1.213005602607     0.004953481334    12.000000000000
         C            1.193511291699     1.212922397393     0.004950481334    12.000000000000
         C            1.886932291699    -0.000067602607     0.010051481334    12.000000000000
         H           -0.747793708301    -2.168215602607    -0.005011518666     1.007825032230
         H           -0.747511708301     2.168352397393    -0.004988518666     1.007825032230
         H           -2.729762708301     0.831940397393    -0.458374518666     1.007825032230
         H           -2.730129708301    -0.824472602607    -0.470996518666     1.007825032230
         H           -2.718728708301    -0.007190602607     0.974094481334     1.007825032230
         H            1.735094291699    -2.154139602607     0.005312481334     1.007825032230
         H            1.735348291699     2.154003397393     0.005301481334     1.007825032230
         H            2.974377391699    -0.000137102607    -0.286252818666     1.007825032230

  Basis Set: AUG-CC-PVTZ
    Blend: AUG-CC-PVTZ
  Basis Set: (AUG-CC-PVTZ AUX)
    Blend: AUG-CC-PVTZ-JKFIT
	 Reference Energy          =    -286.1820667152279611 [Eh]
	 Singles Energy            =      -0.0000000000000000 [Eh]
	 Same-Spin Energy          =      -0.3092930050101003 [Eh]
	 Opposite-Spin Energy      =      -0.9933185619108729 [Eh]
	 Correlation Energy        =      -1.3026115669209732 [Eh]
	 Total Energy              =    -287.4846782821489342 [Eh]

	 ================> DF-SCS-MP2 Energies <==================
	-----------------------------------------------------------
	 SCS Same-Spin Scale       =       0.3333333333333333 [-]
	 SCS Opposite-Spin Scale   =       1.2000000000000000 [-]
	 SCS Same-Spin Energy      =      -0.1030976683367001 [Eh]
	 SCS Opposite-Spin Energy  =      -1.1919822742930475 [Eh]
	 SCS Correlation Energy    =      -1.2950799426297477 [Eh]
	 SCS Total Energy          =    -287.4771466578577019 [Eh]
	-----------------------------------------------------------

  Dipole Moment: [D]
     X:    -7.2861      Y:    -0.0004      Z:    -0.1053     Total:     7.2869

*** Psi4 exiting successfully. Buy a developer a beer!
