                               Psi4 1.3.2 release

  ==> Input File <==

--------------------------------------------------------------------------
#psi4
#
memory 32 gb

molecule  {
1 1
  N       -2.3156210     0.0000130     0.0092220
  C       -0.8265460     0.0000770    -0.0152130
  C       -0.1716580    -1.2259970    -0.0050100
  C       -0.1705305     1.2260376     0.1449917
  C        1.2247150    -1.2130070     0.0014150
  C        1.2248800     1.2129210     0.0014120
  C        1.9183010    -0.0000690     0.0065130
  H       -0.7164250    -2.1682170    -0.0085500
  H       -0.7161430     2.1683510    -0.0085270
  H       -2.6983940     0.8319390    -0.4619130
  H       -2.6987610    -0.8244740    -0.4745350
  H       -2.6873600    -0.0071920     0.9705560
  H        1.7664630    -2.1541410     0.0017740
  H        1.7667170     2.1540020     0.0017630
  H        3.0042640    -0.0001380     0.0102050
units angstrom
no_reorient  #important for SAPT in psi4, default
symmetry c1  #important for SAPT in psi4, default
}

set PROPERTIES_ORIGIN ["COM"]
properties('MP2/aug-cc-pvtz', properties = ['dipole'])
--------------------------------------------------------------------------

    Molecular point group: c1
  Charge       = 1
  Multiplicity = 1
  Basis Set: AUG-CC-PVTZ
    Blend: AUG-CC-PVTZ
  Basis Set: (AUG-CC-PVTZ AUX)
    Blend: AUG-CC-PVTZ-JKFIT

    Orbital Energies [Eh]
    ---------------------

    Doubly Occupied:

       1A    -15.897059     2A    -11.470499     3A    -11.415232
       4A    -11.413560     5A    -11.399176     6A    -11.398223
       7A    -11.392405     8A     -1.511099     9A     -1.315262
      10A     -1.186672    11A     -1.178840    12A     -1.016754
      13A     -1.002919    14A     -0.957575    15A     -0.934144
      16A     -0.894582    17A     -0.833560    18A     -0.785575
      19A     -0.767437    20A     -0.754096    21A     -0.675727
      22A     -0.670681    23A     -0.662538    24A     -0.507537
      25A     -0.501829

  @DF-RHF Final Energy:  -286.18152556375588

   => Energetics <=

    Nuclear Repulsion Energy =            280.2503377633575496
    One-Electron Energy =                -931.7777715001886918
    Two-Electron Energy =                 365.3459081730753155
    Total Energy =                       -286.1815255637558835
  Basis Set: (AUG-CC-PVTZ AUX)
    Blend: AUG-CC-PVTZ-RI
    Molecular point group: c1

    Geometry (in Angstrom), charge = 1, multiplicity = 1:

       Center              X                  Y                   Z               Mass
    ------------   -----------------  -----------------  -----------------  -----------------
         N           -2.347100825375     0.000014443064    -0.009588842128    14.003074004430
         C           -0.858025825375     0.000078443064    -0.034023842128    12.000000000000
         C           -0.203137825375    -1.225995556936    -0.023820842128    12.000000000000
         C           -0.202010325375     1.226039043064     0.126180857872    12.000000000000
         C            1.193235174625    -1.213005556936    -0.017395842128    12.000000000000
         C            1.193400174625     1.212922443064    -0.017398842128    12.000000000000
         C            1.886821174625    -0.000067556936    -0.012297842128    12.000000000000
         H           -0.747904825375    -2.168215556936    -0.027360842128     1.007825032230
         H           -0.747622825375     2.168352443064    -0.027337842128     1.007825032230
         H           -2.729873825375     0.831940443064    -0.480723842128     1.007825032230
         H           -2.730240825375    -0.824472556936    -0.493345842128     1.007825032230
         H           -2.718839825375    -0.007190556936     0.951745157872     1.007825032230
         H            1.734983174625    -2.154139556936    -0.017036842128     1.007825032230
         H            1.735237174625     2.154003443064    -0.017047842128     1.007825032230
         H            2.972784174625    -0.000136556936    -0.008605842128     1.007825032230

  Basis Set: AUG-CC-PVTZ
    Blend: AUG-CC-PVTZ
  Basis Set: (AUG-CC-PVTZ AUX)
    Blend: AUG-CC-PVTZ-JKFIT
	 Reference Energy          =    -286.1815255637558835 [Eh]
	 Singles Energy            =      -0.0000000000000000 [Eh]
	 Same-Spin Energy          =      -0.3093387151948227 [Eh]
	 Opposite-Spin Energy      =      -0.9936988489869610 [Eh]
	 Correlation Energy        =      -1.3030375641817837 [Eh]
	 Total Energy              =    -287.4845631279376903 [Eh]

	 ================> DF-SCS-MP2 Energies <==================
	-----------------------------------------------------------
	 SCS Same-Spin Scale       =       0.3333333333333333 [-]
	 SCS Opposite-Spin Scale   =       1.2000000000000000 [-]
	 SCS Same-Spin Energy      =      -0.1031129050649409 [Eh]
	 SCS Opposite-Spin Energy  =      -1.1924386187843532 [Eh]
	 SCS Correlation Energy    =      -1.2955515238492941 [Eh]
	 SCS Total Energy          =    -287.4770770876051529 [Eh]
	-----------------------------------------------------------

  Dipole Moment: [D]
     X:    -7.2031      Y:    -0.0423      Z:    -0.0805     Total:     7.2037

*** Psi4 exiting successfully. Buy a developer a beer!
