                               Psi4 1.3.2 release

  ==> Input File <==

--------------------------------------------------------------------------
#psi4
#
memory 32 gb

molecule  {
1 1
  N       -2.3156210     0.0000130     0.0092220
  C       -0.8265460     0.0000770    -0.0152130
  C       -0.1716580    -1.2259970    -0.0050100
  C       -0.1715260     1.2260380    -0.0050050
  C        1.2247150    -1.2130070     0.0014150
  C        1.2248800     1.2129210     0.0014120
  C        1.9183010    -0.0000690     0.0065130
  H       -0.7154525    -2.1686285    -0.1585463
  H       -0.7161430     2.1683510    -0.0085270
  H       -2.6983940     0.8319390    -0.4619130
  H       -2.6987610    -0.8244740    -0.4745350
  H       -2.6873600    -0.0071920     0.9705560
  H        1.7664630    -2.1541410     0.0017740
  H        1.7667170     2.1540020     0.0017630
  H        3.0042640    -0.0001380     0.0102050
units angstrom
no_reorient  #important for SAPT in psi4, default
symmetry c1  #important for SAPT in psi4, default
}

set PROPERTIES_ORIGIN ["COM"]
properties('MP2/aug-cc-pvtz', properties = ['dipole'])
--------------------------------------------------------------------------

    Molecular point group: c1
  Charge       = 1
  Multiplicity = 1
  Basis Set: AUG-CC-PVTZ
    Blend: AUG-CC-PVTZ
  Basis Set: (AUG-CC-PVTZ AUX)
    Blend: AUG-CC-PVTZ-JKFIT

    Orbital Energies [Eh]
    ---------------------

    Doubly Occupied:

       1A    -15.897242     2A    -11.469184     3A    -11.414276
       4A    -11.413518     5A    -11.397506     6A    -11.397364
       7A    -11.392461     8A     -1.511261     9A     -1.316071
      10A     -1.187252    11A     -1.179368    12A     -1.017500
      13A     -1.003385    14A     -0.957677    15A     -0.934062
      16A     -0.895410    17A     -0.834071    18A     -0.787402
      19A     -0.767776    20A     -0.755277    21A     -0.676272
      22A     -0.671741    23A     -0.663003    24A     -0.508197
      25A     -0.501675

  @DF-RHF Final Energy:  -286.18723553528582

   => Energetics <=

    Nuclear Repulsion Energy =            280.4534019767138489
    One-Electron Energy =                -932.1833709737121580
    Two-Electron Energy =                 365.5427334617124870
    Total Energy =                       -286.1872355352858222
  Basis Set: (AUG-CC-PVTZ AUX)
    Blend: AUG-CC-PVTZ-RI
    Molecular point group: c1

    Geometry (in Angstrom), charge = 1, multiplicity = 1:

       Center              X                  Y                   Z               Mass
    ------------   -----------------  -----------------  -----------------  -----------------
         N           -2.346984248417     0.000018800870     0.011153372726    14.003074004430
         C           -0.857909248417     0.000082800870    -0.013281627274    12.000000000000
         C           -0.203021248417    -1.225991199130    -0.003078627274    12.000000000000
         C           -0.202889248417     1.226043800870    -0.003073627274    12.000000000000
         C            1.193351751583    -1.213001199130     0.003346372726    12.000000000000
         C            1.193516751583     1.212926800870     0.003343372726    12.000000000000
         C            1.886937751583    -0.000063199130     0.008444372726    12.000000000000
         H           -0.746815748417    -2.168622699130    -0.156614927274     1.007825032230
         H           -0.747506248417     2.168356800870    -0.006595627274     1.007825032230
         H           -2.729757248417     0.831944800870    -0.459981627274     1.007825032230
         H           -2.730124248417    -0.824468199130    -0.472603627274     1.007825032230
         H           -2.718723248417    -0.007186199130     0.972487372726     1.007825032230
         H            1.735099751583    -2.154135199130     0.003705372726     1.007825032230
         H            1.735353751583     2.154007800870     0.003694372726     1.007825032230
         H            2.972900751583    -0.000132199130     0.012136372726     1.007825032230

  Basis Set: AUG-CC-PVTZ
    Blend: AUG-CC-PVTZ
  Basis Set: (AUG-CC-PVTZ AUX)
    Blend: AUG-CC-PVTZ-JKFIT
	 Reference Energy          =    -286.1872355352858222 [Eh]
	 Singles Energy            =      -0.0000000000000000 [Eh]
	 Same-Spin Energy          =      -0.3090524273253882 [Eh]
	 Opposite-Spin Energy      =      -0.9926787850192340 [Eh]
	 Correlation Energy        =      -1.3017312123446221 [Eh]
	 Total Energy              =    -287.4889667476304567 [Eh]

	 ================> DF-SCS-MP2 Energies <==================
	-----------------------------------------------------------
	 SCS Same-Spin Scale       =       0.3333333333333333 [-]
	 SCS Opposite-Spin Scale   =       1.2000000000000000 [-]
	 SCS Same-Spin Energy      =      -0.1030174757751294 [Eh]
	 SCS Opposite-Spin Energy  =      -1.1912145420230809 [Eh]
	 SCS Correlation Energy    =      -1.2942320177982103 [Eh]
	 SCS Total Energy          =    -287.4814675530840304 [Eh]
	-----------------------------------------------------------

  Dipole Moment: [D]
     X:    -7.2262      Y:     0.0151      Z:    -0.0250     Total:     7.2262

*** Psi4 exiting successfully. Buy a developer a beer!
