                               Psi4 1.3.2 release

  ==> Input File <==

--------------------------------------------------------------------------
#psi4
#
memory 32 gb

molecule  {
1 1
  N       -2.3156210     0.0000130     0.0092220
  C       -0.8265460     0.0000770    -0.0152130
  C       -0.1716580    -1.2259970    -0.0050100
  C       -0.1715260     1.2260380    -0.0050050
  C        1.2247150    -1.2130070     0.0014150
  C        1.2248800     1.2129210     0.0014120
  C        1.9183010    -0.0000690     0.0065130
  H       -0.7164250    -2.1682170    -0.0085500
  H       -0.7161430     2.1683510    -0.0085270
  H       -2.6983940     0.8319390    -0.4619130
  H       -2.6987610    -0.8244740    -0.4745350
  H       -2.6873600    -0.0071920     0.9705560
  H        1.7664630    -2.1541410     0.0017740
  H        1.7667170     2.1540020     0.0017630
  H        3.0050051    -0.0001382    -0.1397932
units angstrom
no_reorient  #important for SAPT in psi4, default
symmetry c1  #important for SAPT in psi4, default
}

set PROPERTIES_ORIGIN ["COM"]
properties('MP2/aug-cc-pvtz', properties = ['dipole'])
--------------------------------------------------------------------------

    Molecular point group: c1
  Charge       = 1
  Multiplicity = 1
  Basis Set: AUG-CC-PVTZ
    Blend: AUG-CC-PVTZ
  Basis Set: (AUG-CC-PVTZ AUX)
    Blend: AUG-CC-PVTZ-JKFIT

    Orbital Energies [Eh]
    ---------------------

    Doubly Occupied:

       1A    -15.897340     2A    -11.469167     3A    -11.413472
       4A    -11.413420     5A    -11.397416     6A    -11.397241
       7A    -11.393218     8A     -1.511390     9A     -1.316043
      10A     -1.187502    11A     -1.179081    12A     -1.017730
      13A     -1.002997    14A     -0.957779    15A     -0.934360
      16A     -0.895881    17A     -0.833429    18A     -0.787483
      19A     -0.767666    20A     -0.756172    21A     -0.677206
      22A     -0.668305    23A     -0.664482    24A     -0.507807
      25A     -0.501720

  @DF-RHF Final Energy:  -286.18711784281021

   => Energetics <=

    Nuclear Repulsion Energy =            280.4560194841325824
    One-Electron Energy =                -932.1896637296273411
    Two-Electron Energy =                 365.5465264026846057
    Total Energy =                       -286.1871178428102098
  Basis Set: (AUG-CC-PVTZ AUX)
    Blend: AUG-CC-PVTZ-RI
    Molecular point group: c1

    Geometry (in Angstrom), charge = 1, multiplicity = 1:

       Center              X                  Y                   Z               Mass
    ------------   -----------------  -----------------  -----------------  -----------------
         N           -2.346981769184     0.000014394179     0.011153393082    14.003074004430
         C           -0.857906769184     0.000078394179    -0.013281606918    12.000000000000
         C           -0.203018769184    -1.225995605821    -0.003078606918    12.000000000000
         C           -0.202886769184     1.226039394179    -0.003073606918    12.000000000000
         C            1.193354230816    -1.213005605821     0.003346393082    12.000000000000
         C            1.193519230816     1.212922394179     0.003343393082    12.000000000000
         C            1.886940230816    -0.000067605821     0.008444393082    12.000000000000
         H           -0.747785769184    -2.168215605821    -0.006618606918     1.007825032230
         H           -0.747503769184     2.168352394179    -0.006595606918     1.007825032230
         H           -2.729754769184     0.831940394179    -0.459981606918     1.007825032230
         H           -2.730121769184    -0.824472605821    -0.472603606918     1.007825032230
         H           -2.718720769184    -0.007190605821     0.972487393082     1.007825032230
         H            1.735102230816    -2.154139605821     0.003705393082     1.007825032230
         H            1.735356230816     2.154003394179     0.003694393082     1.007825032230
         H            2.973644330816    -0.000136805821    -0.137861806918     1.007825032230

  Basis Set: AUG-CC-PVTZ
    Blend: AUG-CC-PVTZ
  Basis Set: (AUG-CC-PVTZ AUX)
    Blend: AUG-CC-PVTZ-JKFIT
	 Reference Energy          =    -286.1871178428102098 [Eh]
	 Singles Energy            =      -0.0000000000000000 [Eh]
	 Same-Spin Energy          =      -0.3090467970730193 [Eh]
	 Opposite-Spin Energy      =      -0.9926732046239288 [Eh]
	 Correlation Energy        =      -1.3017200016969481 [Eh]
	 Total Energy              =    -287.4888378445071453 [Eh]

	 ================> DF-SCS-MP2 Energies <==================
	-----------------------------------------------------------
	 SCS Same-Spin Scale       =       0.3333333333333333 [-]
	 SCS Opposite-Spin Scale   =       1.2000000000000000 [-]
	 SCS Same-Spin Energy      =      -0.1030155990243398 [Eh]
	 SCS Opposite-Spin Energy  =      -1.1912078455487145 [Eh]
	 SCS Correlation Energy    =      -1.2942234445730543 [Eh]
	 SCS Total Energy          =    -287.4813412873832590 [Eh]
	-----------------------------------------------------------

  Dipole Moment: [D]
     X:    -7.2530      Y:    -0.0004      Z:    -0.0162     Total:     7.2530

*** Psi4 exiting successfully. Buy a developer a beer!
