                               Psi4 1.3.2 release

  ==> Input File <==

--------------------------------------------------------------------------
#psi4
#
memory 32 gb

molecule  {
1 1
  N       -2.3156210     0.0000130     0.0092220
  C       -0.8265460     0.0000770    -0.0152130
  C       -0.1716580    -1.2259970    -0.0050100
  C       -0.1715260     1.2260380    -0.0050050
  C        1.2247150    -1.2130070     0.0014150
  C        1.2248800     1.2129210     0.0014120
  C        1.9183010    -0.0000690     0.0065130
  H       -0.7164250    -2.1682170    -0.0085500
  H       -0.7161430     2.1683510    -0.0085270
  H       -2.6983940     0.8319390    -0.4619130
  H       -2.6987610    -0.8244740    -0.4745350
  H       -2.6873600    -0.0071920     0.9705560
  H        1.7671238    -2.1538576    -0.1482243
  H        1.7667170     2.1540020     0.0017630
  H        3.0042640    -0.0001380     0.0102050
units angstrom
no_reorient  #important for SAPT in psi4, default
symmetry c1  #important for SAPT in psi4, default
}

set PROPERTIES_ORIGIN ["COM"]
properties('MP2/aug-cc-pvtz', properties = ['dipole'])
--------------------------------------------------------------------------

    Molecular point group: c1
  Charge       = 1
  Multiplicity = 1
  Basis Set: AUG-CC-PVTZ
    Blend: AUG-CC-PVTZ
  Basis Set: (AUG-CC-PVTZ AUX)
    Blend: AUG-CC-PVTZ-JKFIT

    Orbital Energies [Eh]
    ---------------------

    Doubly Occupied:

       1A    -15.897260     2A    -11.469051     3A    -11.413608
       4A    -11.413488     5A    -11.398014     6A    -11.397215
       7A    -11.392544     8A     -1.511323     9A     -1.316035
      10A     -1.187304    11A     -1.179302    12A     -1.017312
      13A     -1.003495    14A     -0.957717    15A     -0.934155
      16A     -0.895175    17A     -0.834991    18A     -0.787449
      19A     -0.767122    20A     -0.755593    21A     -0.676364
      22A     -0.671848    23A     -0.662178    24A     -0.508098
      25A     -0.501476

  @DF-RHF Final Energy:  -286.18712821238682

   => Energetics <=

    Nuclear Repulsion Energy =            280.4565168169149274
    One-Electron Energy =                -932.1910562237496833
    Two-Electron Energy =                 365.5474111944479318
    Total Energy =                       -286.1871282123868241
  Basis Set: (AUG-CC-PVTZ AUX)
    Blend: AUG-CC-PVTZ-RI
    Molecular point group: c1

    Geometry (in Angstrom), charge = 1, multiplicity = 1:

       Center              X                  Y                   Z               Mass
    ------------   -----------------  -----------------  -----------------  -----------------
         N           -2.346980908846     0.000011355672     0.011153394154    14.003074004430
         C           -0.857905908846     0.000075355672    -0.013281605846    12.000000000000
         C           -0.203017908846    -1.225998644328    -0.003078605846    12.000000000000
         C           -0.202885908846     1.226036355672    -0.003073605846    12.000000000000
         C            1.193355091154    -1.213008644328     0.003346394154    12.000000000000
         C            1.193520091154     1.212919355672     0.003343394154    12.000000000000
         C            1.886941091154    -0.000070644328     0.008444394154    12.000000000000
         H           -0.747784908846    -2.168218644328    -0.006618605846     1.007825032230
         H           -0.747502908846     2.168349355672    -0.006595605846     1.007825032230
         H           -2.729753908846     0.831937355672    -0.459981605846     1.007825032230
         H           -2.730120908846    -0.824475644328    -0.472603605846     1.007825032230
         H           -2.718719908846    -0.007193644328     0.972487394154     1.007825032230
         H            1.735763891154    -2.153859244328    -0.146292905846     1.007825032230
         H            1.735357091154     2.154000355672     0.003694394154     1.007825032230
         H            2.972904091154    -0.000139644328     0.012136394154     1.007825032230

  Basis Set: AUG-CC-PVTZ
    Blend: AUG-CC-PVTZ
  Basis Set: (AUG-CC-PVTZ AUX)
    Blend: AUG-CC-PVTZ-JKFIT
	 Reference Energy          =    -286.1871282123868241 [Eh]
	 Singles Energy            =      -0.0000000000000000 [Eh]
	 Same-Spin Energy          =      -0.3090475816227590 [Eh]
	 Opposite-Spin Energy      =      -0.9926790548642679 [Eh]
	 Correlation Energy        =      -1.3017266364870270 [Eh]
	 Total Energy              =    -287.4888548488738707 [Eh]

	 ================> DF-SCS-MP2 Energies <==================
	-----------------------------------------------------------
	 SCS Same-Spin Scale       =       0.3333333333333333 [-]
	 SCS Opposite-Spin Scale   =       1.2000000000000000 [-]
	 SCS Same-Spin Energy      =      -0.1030158605409197 [Eh]
	 SCS Opposite-Spin Energy  =      -1.1912148658371213 [Eh]
	 SCS Correlation Energy    =      -1.2942307263780410 [Eh]
	 SCS Total Energy          =    -287.4813589387648562 [Eh]
	-----------------------------------------------------------

  Dipole Moment: [D]
     X:    -7.2452      Y:     0.0113      Z:    -0.0143     Total:     7.2452

*** Psi4 exiting successfully. Buy a developer a beer!
