                               Psi4 1.3.2 release

  ==> Input File <==

--------------------------------------------------------------------------
#psi4
#
memory 32 gb

molecule  {
1 1
  N       -2.3156210     0.0000130     0.0092220
  C       -0.8265460     0.0000770    -0.0152130
  C       -0.1716580    -1.2259970    -0.0050100
  C       -0.1715260     1.2260380    -0.0050050
  C        1.2247150    -1.2130070     0.0014150
  C        1.2248800     1.2129210     0.0014120
  C        1.9183010    -0.0000690     0.0065130
  H       -0.7148041    -2.1689029    -0.2585438
  H       -0.7161430     2.1683510    -0.0085270
  H       -2.6983940     0.8319390    -0.4619130
  H       -2.6987610    -0.8244740    -0.4745350
  H       -2.6873600    -0.0071920     0.9705560
  H        1.7664630    -2.1541410     0.0017740
  H        1.7667170     2.1540020     0.0017630
  H        3.0042640    -0.0001380     0.0102050
units angstrom
no_reorient  #important for SAPT in psi4, default
symmetry c1  #important for SAPT in psi4, default
}

set PROPERTIES_ORIGIN ["COM"]
properties('MP2/aug-cc-pvtz', properties = ['dipole'])
--------------------------------------------------------------------------

    Molecular point group: c1
  Charge       = 1
  Multiplicity = 1
  Basis Set: AUG-CC-PVTZ
    Blend: AUG-CC-PVTZ
  Basis Set: (AUG-CC-PVTZ AUX)
    Blend: AUG-CC-PVTZ-JKFIT

    Orbital Energies [Eh]
    ---------------------

    Doubly Occupied:

       1A    -15.897176     2A    -11.469447     3A    -11.415701
       4A    -11.413673     5A    -11.397927     6A    -11.397793
       7A    -11.392608     8A     -1.511186     9A     -1.316179
      10A     -1.186955    11A     -1.179414    12A     -1.017207
      13A     -1.003151    14A     -0.957615    15A     -0.933717
      16A     -0.894775    17A     -0.832553    18A     -0.787362
      19A     -0.767514    20A     -0.753639    21A     -0.677921
      22A     -0.671446    23A     -0.660690    24A     -0.508317
      25A     -0.501648

  @DF-RHF Final Energy:  -286.18454817755287

   => Energetics <=

    Nuclear Repulsion Energy =            280.3832524318822266
    One-Electron Energy =                -932.0443719601372550
    Two-Electron Energy =                 365.4765713507022156
    Total Energy =                       -286.1845481775528697
  Basis Set: (AUG-CC-PVTZ AUX)
    Blend: AUG-CC-PVTZ-RI
    Molecular point group: c1

    Geometry (in Angstrom), charge = 1, multiplicity = 1:

       Center              X                  Y                   Z               Mass
    ------------   -----------------  -----------------  -----------------  -----------------
         N           -2.346991195412     0.000021740808     0.012224751679    14.003074004430
         C           -0.857916195412     0.000085740808    -0.012210248321    12.000000000000
         C           -0.203028195412    -1.225988259192    -0.002007248321    12.000000000000
         C           -0.202896195412     1.226046740808    -0.002002248321    12.000000000000
         C            1.193344804588    -1.212998259192     0.004417751679    12.000000000000
         C            1.193509804588     1.212929740808     0.004414751679    12.000000000000
         C            1.886930804588    -0.000060259192     0.009515751679    12.000000000000
         H           -0.746174295412    -2.168894159192    -0.255541048321     1.007825032230
         H           -0.747513195412     2.168359740808    -0.005524248321     1.007825032230
         H           -2.729764195412     0.831947740808    -0.458910248321     1.007825032230
         H           -2.730131195412    -0.824465259192    -0.471532248321     1.007825032230
         H           -2.718730195412    -0.007183259192     0.973558751679     1.007825032230
         H            1.735092804588    -2.154132259192     0.004776751679     1.007825032230
         H            1.735346804588     2.154010740808     0.004765751679     1.007825032230
         H            2.972893804588    -0.000129259192     0.013207751679     1.007825032230

  Basis Set: AUG-CC-PVTZ
    Blend: AUG-CC-PVTZ
  Basis Set: (AUG-CC-PVTZ AUX)
    Blend: AUG-CC-PVTZ-JKFIT
	 Reference Energy          =    -286.1845481775528697 [Eh]
	 Singles Energy            =      -0.0000000000000000 [Eh]
	 Same-Spin Energy          =      -0.3092082604024383 [Eh]
	 Opposite-Spin Energy      =      -0.9930422601813800 [Eh]
	 Correlation Energy        =      -1.3022505205838182 [Eh]
	 Total Energy              =    -287.4867986981366812 [Eh]

	 ================> DF-SCS-MP2 Energies <==================
	-----------------------------------------------------------
	 SCS Same-Spin Scale       =       0.3333333333333333 [-]
	 SCS Opposite-Spin Scale   =       1.2000000000000000 [-]
	 SCS Same-Spin Energy      =      -0.1030694201341461 [Eh]
	 SCS Opposite-Spin Energy  =      -1.1916507122176558 [Eh]
	 SCS Correlation Energy    =      -1.2947201323518018 [Eh]
	 SCS Total Energy          =    -287.4792683099046826 [Eh]
	-----------------------------------------------------------

  Dipole Moment: [D]
     X:    -7.2029      Y:     0.0396      Z:    -0.0893     Total:     7.2036

*** Psi4 exiting successfully. Buy a developer a beer!
