                               Psi4 1.3.2 release

  ==> Input File <==

--------------------------------------------------------------------------
#psi4
#
memory 32 gb

molecule  {
1 1
  N       -2.3156210     0.0000130     0.0092220
  C       -0.8265460     0.0000770    -0.0152130
  C       -0.1716580    -1.2259970    -0.0050100
  C       -0.1715260     1.2260380    -0.0050050
  C        1.2247150    -1.2130070     0.0014150
  C        1.2248800     1.2129210     0.0014120
  C        1.9183010    -0.0000690     0.0065130
  H       -0.7151283    -2.1687657    -0.2085450
  H       -0.7161430     2.1683510    -0.0085270
  H       -2.6983940     0.8319390    -0.4619130
  H       -2.6987610    -0.8244740    -0.4745350
  H       -2.6873600    -0.0071920     0.9705560
  H        1.7664630    -2.1541410     0.0017740
  H        1.7667170     2.1540020     0.0017630
  H        3.0042640    -0.0001380     0.0102050
units angstrom
no_reorient  #important for SAPT in psi4, default
symmetry c1  #important for SAPT in psi4, default
}

set PROPERTIES_ORIGIN ["COM"]
properties('MP2/aug-cc-pvtz', properties = ['dipole'])
--------------------------------------------------------------------------

    Molecular point group: c1
  Charge       = 1
  Multiplicity = 1
  Basis Set: AUG-CC-PVTZ
    Blend: AUG-CC-PVTZ
  Basis Set: (AUG-CC-PVTZ AUX)
    Blend: AUG-CC-PVTZ-JKFIT

    Orbital Energies [Eh]
    ---------------------

    Doubly Occupied:

       1A    -15.897215     2A    -11.469300     3A    -11.414909
       4A    -11.413586     5A    -11.397692     6A    -11.397554
       7A    -11.392526     8A     -1.511228     9A     -1.316119
      10A     -1.187117    11A     -1.179389    12A     -1.017367
      13A     -1.003281    14A     -0.957651    15A     -0.933904
      16A     -0.895119    17A     -0.833391    18A     -0.787383
      19A     -0.767645    20A     -0.754579    21A     -0.677100
      22A     -0.671541    23A     -0.661964    24A     -0.508250
      25A     -0.501665

  @DF-RHF Final Energy:  -286.18609106907934

   => Energetics <=

    Nuclear Repulsion Energy =            280.4223299512916014
    One-Electron Energy =                -932.1218905324367370
    Two-Electron Energy =                 365.5134695120657398
    Total Energy =                       -286.1860910690793389
  Basis Set: (AUG-CC-PVTZ AUX)
    Blend: AUG-CC-PVTZ-RI
    Molecular point group: c1

    Geometry (in Angstrom), charge = 1, multiplicity = 1:

       Center              X                  Y                   Z               Mass
    ------------   -----------------  -----------------  -----------------  -----------------
         N           -2.346987721915     0.000020270839     0.011689061667    14.003074004430
         C           -0.857912721915     0.000084270839    -0.012745938333    12.000000000000
         C           -0.203024721915    -1.225989729161    -0.002542938333    12.000000000000
         C           -0.202892721915     1.226045270839    -0.002537938333    12.000000000000
         C            1.193348278085    -1.212999729161     0.003882061667    12.000000000000
         C            1.193513278085     1.212928270839     0.003879061667    12.000000000000
         C            1.886934278085    -0.000061729161     0.008980061667    12.000000000000
         H           -0.746495021915    -2.168758429161    -0.206077938333     1.007825032230
         H           -0.747509721915     2.168358270839    -0.006059938333     1.007825032230
         H           -2.729760721915     0.831946270839    -0.459445938333     1.007825032230
         H           -2.730127721915    -0.824466729161    -0.472067938333     1.007825032230
         H           -2.718726721915    -0.007184729161     0.973023061667     1.007825032230
         H            1.735096278085    -2.154133729161     0.004241061667     1.007825032230
         H            1.735350278085     2.154009270839     0.004230061667     1.007825032230
         H            2.972897278085    -0.000130729161     0.012672061667     1.007825032230

  Basis Set: AUG-CC-PVTZ
    Blend: AUG-CC-PVTZ
  Basis Set: (AUG-CC-PVTZ AUX)
    Blend: AUG-CC-PVTZ-JKFIT
	 Reference Energy          =    -286.1860910690793389 [Eh]
	 Singles Energy            =      -0.0000000000000000 [Eh]
	 Same-Spin Energy          =      -0.3091214320253348 [Eh]
	 Opposite-Spin Energy      =      -0.9928374506279595 [Eh]
	 Correlation Energy        =      -1.3019588826532944 [Eh]
	 Total Energy              =    -287.4880499517326484 [Eh]

	 ================> DF-SCS-MP2 Energies <==================
	-----------------------------------------------------------
	 SCS Same-Spin Scale       =       0.3333333333333333 [-]
	 SCS Opposite-Spin Scale   =       1.2000000000000000 [-]
	 SCS Same-Spin Energy      =      -0.1030404773417783 [Eh]
	 SCS Opposite-Spin Energy  =      -1.1914049407535514 [Eh]
	 SCS Correlation Energy    =      -1.2944454180953298 [Eh]
	 SCS Total Energy          =    -287.4805364871746747 [Eh]
	-----------------------------------------------------------

  Dipole Moment: [D]
     X:    -7.2157      Y:     0.0260      Z:    -0.0573     Total:     7.2160

*** Psi4 exiting successfully. Buy a developer a beer!
