                               Psi4 1.3.2 release

  ==> Input File <==

--------------------------------------------------------------------------
#psi4
#
memory 32 gb

molecule  {
1 1
  N       -2.3156210     0.0000130     0.0092220
  C       -0.8265460     0.0000770    -0.0152130
  C       -0.1716580    -1.2259970    -0.0050100
  C       -0.1715260     1.2260380    -0.0050050
  C        1.2247150    -1.2130070     0.0014150
  C        1.2248800     1.2129210     0.0014120
  C        1.9183010    -0.0000690     0.0065130
  H       -0.7157766    -2.1684914    -0.1085475
  H       -0.7161430     2.1683510    -0.0085270
  H       -2.6983940     0.8319390    -0.4619130
  H       -2.6987610    -0.8244740    -0.4745350
  H       -2.6873600    -0.0071920     0.9705560
  H        1.7664630    -2.1541410     0.0017740
  H        1.7667170     2.1540020     0.0017630
  H        3.0042640    -0.0001380     0.0102050
units angstrom
no_reorient  #important for SAPT in psi4, default
symmetry c1  #important for SAPT in psi4, default
}

set PROPERTIES_ORIGIN ["COM"]
properties('MP2/aug-cc-pvtz', properties = ['dipole'])
--------------------------------------------------------------------------

    Molecular point group: c1
  Charge       = 1
  Multiplicity = 1
  Basis Set: AUG-CC-PVTZ
    Blend: AUG-CC-PVTZ
  Basis Set: (AUG-CC-PVTZ AUX)
    Blend: AUG-CC-PVTZ-JKFIT

    Orbital Energies [Eh]
    ---------------------

    Doubly Occupied:

       1A    -15.897257     2A    -11.469097     3A    -11.413809
       4A    -11.413469     5A    -11.397370     6A    -11.397224
       7A    -11.392412     8A     -1.511286     9A     -1.316035
      10A     -1.187353    11A     -1.179349    12A     -1.017597
      13A     -1.003459    14A     -0.957695    15A     -0.934183
      16A     -0.895633    17A     -0.834572    18A     -0.787415
      19A     -0.767890    20A     -0.755755    21A     -0.675453
      22A     -0.672068    23A     -0.663774    24A     -0.508158
      25A     -0.501678

  @DF-RHF Final Energy:  -286.18802114349501

   => Energetics <=

    Nuclear Repulsion Energy =            280.4760628297329959
    One-Electron Energy =                -932.2281807018820246
    Two-Electron Energy =                 365.5640967286540217
    Total Energy =                       -286.1880211434950070
  Basis Set: (AUG-CC-PVTZ AUX)
    Blend: AUG-CC-PVTZ-RI
    Molecular point group: c1

    Geometry (in Angstrom), charge = 1, multiplicity = 1:

       Center              X                  Y                   Z               Mass
    ------------   -----------------  -----------------  -----------------  -----------------
         N           -2.346980775991     0.000017331973     0.010617682713    14.003074004430
         C           -0.857905775991     0.000081331973    -0.013817317287    12.000000000000
         C           -0.203017775991    -1.225992668027    -0.003614317287    12.000000000000
         C           -0.202885775991     1.226042331973    -0.003609317287    12.000000000000
         C            1.193355224009    -1.213002668027     0.002810682713    12.000000000000
         C            1.193520224009     1.212925331973     0.002807682713    12.000000000000
         C            1.886941224009    -0.000064668027     0.007908682713    12.000000000000
         H           -0.747136375991    -2.168487068027    -0.107151817287     1.007825032230
         H           -0.747502775991     2.168355331973    -0.007131317287     1.007825032230
         H           -2.729753775991     0.831943331973    -0.460517317287     1.007825032230
         H           -2.730120775991    -0.824469668027    -0.473139317287     1.007825032230
         H           -2.718719775991    -0.007187668027     0.971951682713     1.007825032230
         H            1.735103224009    -2.154136668027     0.003169682713     1.007825032230
         H            1.735357224009     2.154006331973     0.003158682713     1.007825032230
         H            2.972904224009    -0.000133668027     0.011600682713     1.007825032230

  Basis Set: AUG-CC-PVTZ
    Blend: AUG-CC-PVTZ
  Basis Set: (AUG-CC-PVTZ AUX)
    Blend: AUG-CC-PVTZ-JKFIT
	 Reference Energy          =    -286.1880211434950070 [Eh]
	 Singles Energy            =      -0.0000000000000000 [Eh]
	 Same-Spin Energy          =      -0.3090019457159207 [Eh]
	 Opposite-Spin Energy      =      -0.9925656031575283 [Eh]
	 Correlation Energy        =      -1.3015675488734488 [Eh]
	 Total Energy              =    -287.4895886923684429 [Eh]

	 ================> DF-SCS-MP2 Energies <==================
	-----------------------------------------------------------
	 SCS Same-Spin Scale       =       0.3333333333333333 [-]
	 SCS Opposite-Spin Scale   =       1.2000000000000000 [-]
	 SCS Same-Spin Energy      =      -0.1030006485719736 [Eh]
	 SCS Opposite-Spin Energy  =      -1.1910787237890339 [Eh]
	 SCS Correlation Energy    =      -1.2940793723610073 [Eh]
	 SCS Total Energy          =    -287.4821005158560183 [Eh]
	-----------------------------------------------------------

  Dipole Moment: [D]
     X:    -7.2341      Y:     0.0070      Z:     0.0077     Total:     7.2341

*** Psi4 exiting successfully. Buy a developer a beer!
