                               Psi4 1.3.2 release

  ==> Input File <==

--------------------------------------------------------------------------
#psi4
#
memory 32 gb

molecule  {
1 1
  N       -2.3156210     0.0000130     0.0092220
  C       -0.8265460     0.0000770    -0.0152130
  C       -0.1716580    -1.2259970    -0.0050100
  C       -0.1715260     1.2260380    -0.0050050
  C        1.2247150    -1.2130070     0.0014150
  C        1.2248800     1.2129210     0.0014120
  C        1.9183010    -0.0000690     0.0065130
  H       -0.7164250    -2.1682170    -0.0085500
  H       -0.7161430     2.1683510    -0.0085270
  H       -2.6983940     0.8319390    -0.4619130
  H       -2.6987610    -0.8244740    -0.4745350
  H       -2.6873600    -0.0071920     0.9705560
  H        1.7669035    -2.1539521    -0.0982249
  H        1.7667170     2.1540020     0.0017630
  H        3.0042640    -0.0001380     0.0102050
units angstrom
no_reorient  #important for SAPT in psi4, default
symmetry c1  #important for SAPT in psi4, default
}

set PROPERTIES_ORIGIN ["COM"]
properties('MP2/aug-cc-pvtz', properties = ['dipole'])
--------------------------------------------------------------------------

    Molecular point group: c1
  Charge       = 1
  Multiplicity = 1
  Basis Set: AUG-CC-PVTZ
    Blend: AUG-CC-PVTZ
  Basis Set: (AUG-CC-PVTZ AUX)
    Blend: AUG-CC-PVTZ-JKFIT

    Orbital Energies [Eh]
    ---------------------

    Doubly Occupied:

       1A    -15.897248     2A    -11.469028     3A    -11.413516
       4A    -11.413424     5A    -11.397562     6A    -11.397180
       7A    -11.392450     8A     -1.511309     9A     -1.316013
      10A     -1.187370    11A     -1.179316    12A     -1.017501
      13A     -1.003502    14A     -0.957704    15A     -0.934229
      16A     -0.895532    17A     -0.834986    18A     -0.787429
      19A     -0.767613    20A     -0.755901    21A     -0.675496
      22A     -0.672101    23A     -0.663385    24A     -0.508115
      25A     -0.501570

  @DF-RHF Final Energy:  -286.18797369589356

   => Energetics <=

    Nuclear Repulsion Energy =            280.4778118444459665
    One-Electron Energy =                -932.2326129383385478
    Two-Electron Energy =                 365.5668273979990772
    Total Energy =                       -286.1879736958935609
  Basis Set: (AUG-CC-PVTZ AUX)
    Blend: AUG-CC-PVTZ-RI
    Molecular point group: c1

    Geometry (in Angstrom), charge = 1, multiplicity = 1:

       Center              X                  Y                   Z               Mass
    ------------   -----------------  -----------------  -----------------  -----------------
         N           -2.346978548539     0.000012368150     0.010617697713    14.003074004430
         C           -0.857903548539     0.000076368150    -0.013817302287    12.000000000000
         C           -0.203015548539    -1.225997631850    -0.003614302287    12.000000000000
         C           -0.202883548539     1.226037368150    -0.003609302287    12.000000000000
         C            1.193357451461    -1.213007631850     0.002810697713    12.000000000000
         C            1.193522451461     1.212920368150     0.002807697713    12.000000000000
         C            1.886943451461    -0.000069631850     0.007908697713    12.000000000000
         H           -0.747782548539    -2.168217631850    -0.007154302287     1.007825032230
         H           -0.747500548539     2.168350368150    -0.007131302287     1.007825032230
         H           -2.729751548539     0.831938368150    -0.460517302287     1.007825032230
         H           -2.730118548539    -0.824474631850    -0.473139302287     1.007825032230
         H           -2.718717548539    -0.007192631850     0.971951697713     1.007825032230
         H            1.735545951461    -2.153952731850    -0.096829202287     1.007825032230
         H            1.735359451461     2.154001368150     0.003158697713     1.007825032230
         H            2.972906451461    -0.000138631850     0.011600697713     1.007825032230

  Basis Set: AUG-CC-PVTZ
    Blend: AUG-CC-PVTZ
  Basis Set: (AUG-CC-PVTZ AUX)
    Blend: AUG-CC-PVTZ-JKFIT
	 Reference Energy          =    -286.1879736958935609 [Eh]
	 Singles Energy            =      -0.0000000000000000 [Eh]
	 Same-Spin Energy          =      -0.3089996318621904 [Eh]
	 Opposite-Spin Energy      =      -0.9925608433174786 [Eh]
	 Correlation Energy        =      -1.3015604751796690 [Eh]
	 Total Energy              =    -287.4895341710732168 [Eh]

	 ================> DF-SCS-MP2 Energies <==================
	-----------------------------------------------------------
	 SCS Same-Spin Scale       =       0.3333333333333333 [-]
	 SCS Opposite-Spin Scale   =       1.2000000000000000 [-]
	 SCS Same-Spin Energy      =      -0.1029998772873968 [Eh]
	 SCS Opposite-Spin Energy  =      -1.1910730119809743 [Eh]
	 SCS Correlation Energy    =      -1.2940728892683711 [Eh]
	 SCS Total Energy          =    -287.4820465851619247 [Eh]
	-----------------------------------------------------------

  Dipole Moment: [D]
     X:    -7.2430      Y:     0.0051      Z:     0.0150     Total:     7.2431

*** Psi4 exiting successfully. Buy a developer a beer!
