                               Psi4 1.3.2 release

  ==> Input File <==

--------------------------------------------------------------------------
#psi4
#
memory 32 gb

molecule  {
1 1
  N       -2.3156210     0.0000130     0.0092220
  C       -0.8265460     0.0000770    -0.0152130
  C       -0.1716580    -1.2259970    -0.0050100
  C       -0.1701987     1.2260375     0.1949906
  C        1.2247150    -1.2130070     0.0014150
  C        1.2248800     1.2129210     0.0014120
  C        1.9183010    -0.0000690     0.0065130
  H       -0.7164250    -2.1682170    -0.0085500
  H       -0.7161430     2.1683510    -0.0085270
  H       -2.6983940     0.8319390    -0.4619130
  H       -2.6987610    -0.8244740    -0.4745350
  H       -2.6873600    -0.0071920     0.9705560
  H        1.7664630    -2.1541410     0.0017740
  H        1.7667170     2.1540020     0.0017630
  H        3.0042640    -0.0001380     0.0102050
units angstrom
no_reorient  #important for SAPT in psi4, default
symmetry c1  #important for SAPT in psi4, default
}

set PROPERTIES_ORIGIN ["COM"]
properties('MP2/aug-cc-pvtz', properties = ['dipole'])
--------------------------------------------------------------------------

    Molecular point group: c1
  Charge       = 1
  Multiplicity = 1
  Basis Set: AUG-CC-PVTZ
    Blend: AUG-CC-PVTZ
  Basis Set: (AUG-CC-PVTZ AUX)
    Blend: AUG-CC-PVTZ-JKFIT

    Orbital Energies [Eh]
    ---------------------

    Doubly Occupied:

       1A    -15.896937     2A    -11.471656     3A    -11.416625
       4A    -11.413642     5A    -11.400800     6A    -11.399123
       7A    -11.392428     8A     -1.510981     9A     -1.314719
      10A     -1.186104    11A     -1.178495    12A     -1.016228
      13A     -1.002432    14A     -0.957488    15A     -0.934040
      16A     -0.893826    17A     -0.832583    18A     -0.784375
      19A     -0.767075    20A     -0.752429    21A     -0.676085
      22A     -0.669854    23A     -0.661069    24A     -0.507185
      25A     -0.501905

  @DF-RHF Final Energy:  -286.17604165481004

   => Energetics <=

    Nuclear Repulsion Energy =            280.0604109354716797
    One-Electron Energy =                -931.3967394308150460
    Two-Electron Energy =                 365.1602868405333879
    Total Energy =                       -286.1760416548100352
  Basis Set: (AUG-CC-PVTZ AUX)
    Blend: AUG-CC-PVTZ-RI
    Molecular point group: c1

    Geometry (in Angstrom), charge = 1, multiplicity = 1:

       Center              X                  Y                   Z               Mass
    ------------   -----------------  -----------------  -----------------  -----------------
         N           -2.347143153249     0.000014455821    -0.015967224090    14.003074004430
         C           -0.858068153249     0.000078455821    -0.040402224090    12.000000000000
         C           -0.203180153249    -1.225995544179    -0.030199224090    12.000000000000
         C           -0.201720853249     1.226038955821     0.169801375910    12.000000000000
         C            1.193192846751    -1.213005544179    -0.023774224090    12.000000000000
         C            1.193357846751     1.212922455821    -0.023777224090    12.000000000000
         C            1.886778846751    -0.000067544179    -0.018676224090    12.000000000000
         H           -0.747947153249    -2.168215544179    -0.033739224090     1.007825032230
         H           -0.747665153249     2.168352455821    -0.033716224090     1.007825032230
         H           -2.729916153249     0.831940455821    -0.487102224090     1.007825032230
         H           -2.730283153249    -0.824472544179    -0.499724224090     1.007825032230
         H           -2.718882153249    -0.007190544179     0.945366775910     1.007825032230
         H            1.734940846751    -2.154139544179    -0.023415224090     1.007825032230
         H            1.735194846751     2.154003455821    -0.023426224090     1.007825032230
         H            2.972741846751    -0.000136544179    -0.014984224090     1.007825032230

  Basis Set: AUG-CC-PVTZ
    Blend: AUG-CC-PVTZ
  Basis Set: (AUG-CC-PVTZ AUX)
    Blend: AUG-CC-PVTZ-JKFIT
	 Reference Energy          =    -286.1760416548100352 [Eh]
	 Singles Energy            =      -0.0000000000000000 [Eh]
	 Same-Spin Energy          =      -0.3096124518150974 [Eh]
	 Opposite-Spin Energy      =      -0.9945808160445521 [Eh]
	 Correlation Energy        =      -1.3041932678596495 [Eh]
	 Total Energy              =    -287.4802349226696947 [Eh]

	 ================> DF-SCS-MP2 Energies <==================
	-----------------------------------------------------------
	 SCS Same-Spin Scale       =       0.3333333333333333 [-]
	 SCS Opposite-Spin Scale   =       1.2000000000000000 [-]
	 SCS Same-Spin Energy      =      -0.1032041506050325 [Eh]
	 SCS Opposite-Spin Energy  =      -1.1934969792534624 [Eh]
	 SCS Correlation Energy    =      -1.2967011298584949 [Eh]
	 SCS Total Energy          =    -287.4727427846685259 [Eh]
	-----------------------------------------------------------

  Dipole Moment: [D]
     X:    -7.1739      Y:    -0.0731      Z:    -0.1333     Total:     7.1755

*** Psi4 exiting successfully. Buy a developer a beer!
