                               Psi4 1.3.2 release

  ==> Input File <==

--------------------------------------------------------------------------
#psi4
#
memory 32 gb

molecule  {
1 1
  N       -2.3156210     0.0000130     0.0092220
  C       -0.8265460     0.0000770    -0.0152130
  C       -0.1716580    -1.2259970    -0.0050100
  C       -0.1715260     1.2260380    -0.0050050
  C        1.2247150    -1.2130070     0.0014150
  C        1.2248800     1.2129210     0.0014120
  C        1.9183010    -0.0000690     0.0065130
  H       -0.7164250    -2.1682170    -0.0085500
  H       -0.7161430     2.1683510    -0.0085270
  H       -2.6983940     0.8319390    -0.4619130
  H       -2.6987610    -0.8244740    -0.4745350
  H       -2.6873600    -0.0071920     0.9705560
  H        1.7677845    -2.1535742    -0.2982226
  H        1.7667170     2.1540020     0.0017630
  H        3.0042640    -0.0001380     0.0102050
units angstrom
no_reorient  #important for SAPT in psi4, default
symmetry c1  #important for SAPT in psi4, default
}

set PROPERTIES_ORIGIN ["COM"]
properties('MP2/aug-cc-pvtz', properties = ['dipole'])
--------------------------------------------------------------------------

    Molecular point group: c1
  Charge       = 1
  Multiplicity = 1
  Basis Set: AUG-CC-PVTZ
    Blend: AUG-CC-PVTZ
  Basis Set: (AUG-CC-PVTZ AUX)
    Blend: AUG-CC-PVTZ-JKFIT

    Orbital Energies [Eh]
    ---------------------

    Doubly Occupied:

       1A    -15.897346     2A    -11.469193     3A    -11.414083
       4A    -11.413863     5A    -11.400436     6A    -11.397371
       7A    -11.393024     8A     -1.511426     9A     -1.316164
      10A     -1.187018    11A     -1.179234    12A     -1.016430
      13A     -1.003469    14A     -0.957811    15A     -0.933833
      16A     -0.893435    17A     -0.835031    18A     -0.787579
      19A     -0.765085    20A     -0.753497    21A     -0.678863
      22A     -0.671712    23A     -0.656585    24A     -0.508033
      25A     -0.500984

  @DF-RHF Final Energy:  -286.18212991180758

   => Energetics <=

    Nuclear Repulsion Energy =            280.3457916621345589
    One-Electron Energy =                -931.9728354380148403
    Two-Electron Energy =                 365.4449138640727597
    Total Energy =                       -286.1821299118075785
  Basis Set: (AUG-CC-PVTZ AUX)
    Blend: AUG-CC-PVTZ-RI
    Molecular point group: c1

    Geometry (in Angstrom), charge = 1, multiplicity = 1:

       Center              X                  Y                   Z               Mass
    ------------   -----------------  -----------------  -----------------  -----------------
         N           -2.346987987623     0.000008319308     0.012760484548    14.003074004430
         C           -0.857912987623     0.000072319308    -0.011674515452    12.000000000000
         C           -0.203024987623    -1.226001680692    -0.001471515452    12.000000000000
         C           -0.202892987623     1.226033319308    -0.001466515452    12.000000000000
         C            1.193348012377    -1.213011680692     0.004953484548    12.000000000000
         C            1.193513012377     1.212916319308     0.004950484548    12.000000000000
         C            1.886934012377    -0.000073680692     0.010051484548    12.000000000000
         H           -0.747791987623    -2.168221680692    -0.005011515452     1.007825032230
         H           -0.747509987623     2.168346319308    -0.004988515452     1.007825032230
         H           -2.729760987623     0.831934319308    -0.458374515452     1.007825032230
         H           -2.730127987623    -0.824478680692    -0.470996515452     1.007825032230
         H           -2.718726987623    -0.007196680692     0.974094484548     1.007825032230
         H            1.736417512377    -2.153578880692    -0.294684115452     1.007825032230
         H            1.735350012377     2.153997319308     0.005301484548     1.007825032230
         H            2.972897012377    -0.000142680692     0.013743484548     1.007825032230

  Basis Set: AUG-CC-PVTZ
    Blend: AUG-CC-PVTZ
  Basis Set: (AUG-CC-PVTZ AUX)
    Blend: AUG-CC-PVTZ-JKFIT
	 Reference Energy          =    -286.1821299118075785 [Eh]
	 Singles Energy            =      -0.0000000000000000 [Eh]
	 Same-Spin Energy          =      -0.3092925184388171 [Eh]
	 Opposite-Spin Energy      =      -0.9933280635297070 [Eh]
	 Correlation Energy        =      -1.3026205819685241 [Eh]
	 Total Energy              =    -287.4847504937761187 [Eh]

	 ================> DF-SCS-MP2 Energies <==================
	-----------------------------------------------------------
	 SCS Same-Spin Scale       =       0.3333333333333333 [-]
	 SCS Opposite-Spin Scale   =       1.2000000000000000 [-]
	 SCS Same-Spin Energy      =      -0.1030975061462724 [Eh]
	 SCS Opposite-Spin Energy  =      -1.1919936762356484 [Eh]
	 SCS Correlation Energy    =      -1.2950911823819209 [Eh]
	 SCS Total Energy          =    -287.4772210941894741 [Eh]
	-----------------------------------------------------------

  Dipole Moment: [D]
     X:    -7.2587      Y:     0.0432      Z:    -0.1017     Total:     7.2596

*** Psi4 exiting successfully. Buy a developer a beer!
