                               Psi4 1.4a2.dev612

  ==> Input File <==

--------------------------------------------------------------------------
#psi4
#
memory 32 gb

molecule  {
0 1
 Cl       -2.9707590    -0.0000040     0.8385160
 Cl       -1.2311530    -1.4484720    -0.9693440
 Cl       -1.2311580     1.4484760    -0.9693400
  C       -0.2962350     0.0000000     1.1437290
  C        1.1252770     0.0000000     0.6524850
  C       -1.3694210     0.0000000     0.0492630
  C        1.7473120    -1.2802122     0.6703847
  C        1.8035180     1.2073330     0.4379420
  C        3.1257690    -1.2076600    -0.0068740
  C        3.1257690     1.2076600    -0.0068730
  C        3.7894190     0.0000000    -0.2330360
  H       -0.4871660     0.8829540     1.7629540
  H       -0.4871650    -0.8829530     1.7629540
  H        1.2944460    -2.1507970     0.6220660
  H        1.2944470     2.1507980     0.6220670
  H        3.6405560    -2.1515660    -0.1688970
  H        3.6405570     2.1515660    -0.1688960
  H        4.8208550     0.0000000    -0.5768690
units angstrom
no_reorient  #important for SAPT in psi4, default
symmetry c1  #important for SAPT in psi4, default
}

set PROPERTIES_ORIGIN ["COM"]
properties('MP2/aug-cc-pvtz', properties = ['dipole'])
--------------------------------------------------------------------------

    Molecular point group: c1
  Charge       = 0
  Multiplicity = 1
  Basis Set: AUG-CC-PVTZ
    Blend: AUG-CC-PVTZ
  Basis Set: (AUG-CC-PVTZ AUX)
    Blend: AUG-CC-PVTZ-JKFIT

    Orbital Energies [Eh]
    ---------------------

    Doubly Occupied:

       1A   -104.856873     2A   -104.856772     3A   -104.856578
       4A    -11.435506     5A    -11.267623     6A    -11.263385
       7A    -11.260174     8A    -11.251512     9A    -11.250251
      10A    -11.245232    11A    -11.243894    12A    -10.581501
      13A    -10.581260    14A    -10.581232    15A     -8.048255
      16A     -8.047990    17A     -8.047985    18A     -8.046192
      19A     -8.046161    20A     -8.045953    21A     -8.045925
      22A     -8.045917    23A     -8.045889    24A     -1.245548
      25A     -1.153844    26A     -1.107178    27A     -1.105697
      28A     -1.067347    29A     -1.011520    30A     -0.972793
      31A     -0.849481    32A     -0.827500    33A     -0.782447
      34A     -0.707202    35A     -0.671702    36A     -0.663602
      37A     -0.644231    38A     -0.621059    39A     -0.617321
      40A     -0.589877    41A     -0.573881    42A     -0.546945
      43A     -0.518019    44A     -0.499837    45A     -0.497538
      46A     -0.495494    47A     -0.481663    48A     -0.456373
      49A     -0.454683    50A     -0.453349    51A     -0.442888
      52A     -0.344863    53A     -0.331947

  @DF-RHF Final Energy: -1685.62428360346303

   => Energetics <=

    Nuclear Repulsion Energy =            875.9072059350278323
    One-Electron Energy =               -4063.6871990585732419
    Two-Electron Energy =                1502.1557095200823824
    Total Energy =                      -1685.6242836034630272
  Basis Set: (AUG-CC-PVTZ AUX)
    Blend: AUG-CC-PVTZ-RI
    Molecular point group: c1

    Geometry (in Angstrom), charge = 0, multiplicity = 1:

       Center              X                  Y                   Z               Mass
    ------------   -----------------  -----------------  -----------------  -----------------
         CL          -2.876763323765     0.004201341304     0.848622767539    34.968852682000
         CL          -1.137157323765    -1.444266658696    -0.959237232461    34.968852682000
         CL          -1.137162323765     1.452681341304    -0.959233232461    34.968852682000
         C           -0.202239323765     0.004205341304     1.153835767539    12.000000000000
         C            1.219272676235     0.004205341304     0.662591767539    12.000000000000
         C           -1.275425323765     0.004205341304     0.059369767539    12.000000000000
         C            1.841307676235    -1.276006858696     0.680491467539    12.000000000000
         C            1.897513676235     1.211538341304     0.448048767539    12.000000000000
         C            3.219764676235    -1.203454658696     0.003232767539    12.000000000000
         C            3.219764676235     1.211865341304     0.003233767539    12.000000000000
         C            3.883414676235     0.004205341304    -0.222929232461    12.000000000000
         H           -0.393170323765     0.887159341304     1.773060767539     1.007825032230
         H           -0.393169323765    -0.878747658696     1.773060767539     1.007825032230
         H            1.388441676235    -2.146591658696     0.632172767539     1.007825032230
         H            1.388442676235     2.155003341304     0.632173767539     1.007825032230
         H            3.734551676235    -2.147360658696    -0.158790232461     1.007825032230
         H            3.734552676235     2.155771341304    -0.158789232461     1.007825032230
         H            4.914850676235     0.004205341304    -0.566762232461     1.007825032230

  Basis Set: AUG-CC-PVTZ
    Blend: AUG-CC-PVTZ
  Basis Set: (AUG-CC-PVTZ AUX)
    Blend: AUG-CC-PVTZ-JKFIT
	 Reference Energy          =   -1685.6242836034630272 [Eh]
	 Singles Energy            =      -0.0000000000000000 [Eh]
	 Same-Spin Energy          =      -0.5404475563879783 [Eh]
	 Opposite-Spin Energy      =      -1.6225894765278484 [Eh]
	 Correlation Energy        =      -2.1630370329158266 [Eh]
	 Total Energy              =   -1687.7873206363788086 [Eh]

	 ================> DF-SCS-MP2 Energies <==================
	-----------------------------------------------------------
	 SCS Same-Spin Scale       =       0.3333333333333333 [-]
	 SCS Opposite-Spin Scale   =       1.2000000000000000 [-]
	 SCS Same-Spin Energy      =      -0.1801491854626594 [Eh]
	 SCS Opposite-Spin Energy  =      -1.9471073718334180 [Eh]
	 SCS Correlation Energy    =      -2.1272565572960773 [Eh]
	 SCS Total Energy          =   -1687.7515401607590775 [Eh]
	-----------------------------------------------------------

  Dipole Moment: [D]
     X:     1.6965      Y:     0.1043      Z:     0.8176     Total:     1.8861

*** Psi4 exiting successfully. Buy a developer a beer!
