                               Psi4 1.4a2.dev612

  ==> Input File <==

--------------------------------------------------------------------------
#psi4
#
memory 32 gb

molecule  {
0 1
 Cl       -2.9707590    -0.0000040     0.8385160
 Cl       -1.2311530    -1.4484720    -0.9693440
 Cl       -1.2311580     1.4484760    -0.9693400
  C       -0.2962350     0.0000000     1.1437290
  C        1.1252770     0.0000000     0.6524850
  C       -1.3694210     0.0000000     0.0492630
  C        1.7585530    -1.2656364     0.6238962
  C        1.8035180     1.2073330     0.4379420
  C        3.1257690    -1.2076600    -0.0068740
  C        3.1257690     1.2076600    -0.0068730
  C        3.7894190     0.0000000    -0.2330360
  H       -0.4871660     0.8829540     1.7629540
  H       -0.4871650    -0.8829530     1.7629540
  H        1.2944460    -2.1507970     0.6220660
  H        1.2944470     2.1507980     0.6220670
  H        3.6405560    -2.1515660    -0.1688970
  H        3.6405570     2.1515660    -0.1688960
  H        4.8208550     0.0000000    -0.5768690
units angstrom
no_reorient  #important for SAPT in psi4, default
symmetry c1  #important for SAPT in psi4, default
}

set PROPERTIES_ORIGIN ["COM"]
properties('MP2/aug-cc-pvtz', properties = ['dipole'])
--------------------------------------------------------------------------

    Molecular point group: c1
  Charge       = 0
  Multiplicity = 1
  Basis Set: AUG-CC-PVTZ
    Blend: AUG-CC-PVTZ
  Basis Set: (AUG-CC-PVTZ AUX)
    Blend: AUG-CC-PVTZ-JKFIT

    Orbital Energies [Eh]
    ---------------------

    Doubly Occupied:

       1A   -104.856849     2A   -104.856825     3A   -104.856537
       4A    -11.435567     5A    -11.268125     6A    -11.260740
       7A    -11.256751     8A    -11.249905     9A    -11.248385
      10A    -11.245124    11A    -11.243917    12A    -10.581456
      13A    -10.581335    14A    -10.581188    15A     -8.048209
      16A     -8.048066    17A     -8.047940    18A     -8.046145
      19A     -8.046115    20A     -8.046029    21A     -8.046001
      22A     -8.045872    23A     -8.045843    24A     -1.245570
      25A     -1.155399    26A     -1.107140    27A     -1.105733
      28A     -1.066897    29A     -1.013559    30A     -0.973242
      31A     -0.846873    32A     -0.828609    33A     -0.783435
      34A     -0.706922    35A     -0.669412    36A     -0.663715
      37A     -0.643875    38A     -0.620781    39A     -0.617759
      40A     -0.591808    41A     -0.573713    42A     -0.547225
      43A     -0.515677    44A     -0.500900    45A     -0.500143
      46A     -0.495524    47A     -0.483862    48A     -0.456448
      49A     -0.455164    50A     -0.454690    51A     -0.442885
      52A     -0.344199    53A     -0.333755

  @DF-RHF Final Energy: -1685.63823091778931

   => Energetics <=

    Nuclear Repulsion Energy =            876.4638449976356469
    One-Electron Energy =               -4064.8284795060026227
    Two-Electron Energy =                1502.7264035905777746
    Total Energy =                      -1685.6382309177893148
  Basis Set: (AUG-CC-PVTZ AUX)
    Blend: AUG-CC-PVTZ-RI
    Molecular point group: c1

    Geometry (in Angstrom), charge = 0, multiplicity = 1:

       Center              X                  Y                   Z               Mass
    ------------   -----------------  -----------------  -----------------  -----------------
         CL          -2.877411963576     0.003360273412     0.851305295061    34.968852682000
         CL          -1.137805963576    -1.445107726588    -0.956554704939    34.968852682000
         CL          -1.137810963576     1.451840273412    -0.956550704939    34.968852682000
         C           -0.202887963576     0.003364273412     1.156518295061    12.000000000000
         C            1.218624036424     0.003364273412     0.665274295061    12.000000000000
         C           -1.276073963576     0.003364273412     0.062052295061    12.000000000000
         C            1.851900036424    -1.262272126588     0.636685495061    12.000000000000
         C            1.896865036424     1.210697273412     0.450731295061    12.000000000000
         C            3.219116036424    -1.204295726588     0.005915295061    12.000000000000
         C            3.219116036424     1.211024273412     0.005916295061    12.000000000000
         C            3.882766036424     0.003364273412    -0.220246704939    12.000000000000
         H           -0.393818963576     0.886318273412     1.775743295061     1.007825032230
         H           -0.393817963576    -0.879588726588     1.775743295061     1.007825032230
         H            1.387793036424    -2.147432726588     0.634855295061     1.007825032230
         H            1.387794036424     2.154162273412     0.634856295061     1.007825032230
         H            3.733903036424    -2.148201726588    -0.156107704939     1.007825032230
         H            3.733904036424     2.154930273412    -0.156106704939     1.007825032230
         H            4.914202036424     0.003364273412    -0.564079704939     1.007825032230

  Basis Set: AUG-CC-PVTZ
    Blend: AUG-CC-PVTZ
  Basis Set: (AUG-CC-PVTZ AUX)
    Blend: AUG-CC-PVTZ-JKFIT
	 Reference Energy          =   -1685.6382309177893148 [Eh]
	 Singles Energy            =      -0.0000000000000000 [Eh]
	 Same-Spin Energy          =      -0.5401255393016053 [Eh]
	 Opposite-Spin Energy      =      -1.6212036673101882 [Eh]
	 Correlation Energy        =      -2.1613292066117937 [Eh]
	 Total Energy              =   -1687.7995601244010686 [Eh]

	 ================> DF-SCS-MP2 Energies <==================
	-----------------------------------------------------------
	 SCS Same-Spin Scale       =       0.3333333333333333 [-]
	 SCS Opposite-Spin Scale   =       1.2000000000000000 [-]
	 SCS Same-Spin Energy      =      -0.1800418464338684 [Eh]
	 SCS Opposite-Spin Energy  =      -1.9454444007722258 [Eh]
	 SCS Correlation Energy    =      -2.1254862472060942 [Eh]
	 SCS Total Energy          =   -1687.7637171649953416 [Eh]
	-----------------------------------------------------------

  Dipole Moment: [D]
     X:     1.6793      Y:     0.0648      Z:     0.8444     Total:     1.8808

*** Psi4 exiting successfully. Buy a developer a beer!
