                               Psi4 1.4a2.dev612

  ==> Input File <==

--------------------------------------------------------------------------
#psi4
#
memory 32 gb

molecule  {
0 1
 Cl       -2.9707590    -0.0000040     0.8385160
 Cl       -1.2311530    -1.4484720    -0.9693440
 Cl       -1.2311580     1.4484760    -0.9693400
  C       -0.2962350     0.0000000     1.1437290
  C        1.1252770     0.0000000     0.6524850
  C       -1.3694210     0.0000000     0.0492630
  C        1.7360710    -1.2947880     0.7168733
  C        1.8035180     1.2073330     0.4379420
  C        3.1257690    -1.2076600    -0.0068740
  C        3.1257690     1.2076600    -0.0068730
  C        3.7894190     0.0000000    -0.2330360
  H       -0.4871660     0.8829540     1.7629540
  H       -0.4871650    -0.8829530     1.7629540
  H        1.2944460    -2.1507970     0.6220660
  H        1.2944470     2.1507980     0.6220670
  H        3.6405560    -2.1515660    -0.1688970
  H        3.6405570     2.1515660    -0.1688960
  H        4.8208550     0.0000000    -0.5768690
units angstrom
no_reorient  #important for SAPT in psi4, default
symmetry c1  #important for SAPT in psi4, default
}

set PROPERTIES_ORIGIN ["COM"]
properties('MP2/aug-cc-pvtz', properties = ['dipole'])
--------------------------------------------------------------------------

    Molecular point group: c1
  Charge       = 0
  Multiplicity = 1
  Basis Set: AUG-CC-PVTZ
    Blend: AUG-CC-PVTZ
  Basis Set: (AUG-CC-PVTZ AUX)
    Blend: AUG-CC-PVTZ-JKFIT

    Orbital Energies [Eh]
    ---------------------

    Doubly Occupied:

       1A   -104.856928     2A   -104.856721     3A   -104.856646
       4A    -11.435485     5A    -11.267308     6A    -11.266352
       7A    -11.263533     8A    -11.253131     9A    -11.252486
      10A    -11.245328    11A    -11.243849    12A    -10.581554
      13A    -10.581306    14A    -10.581209    15A     -8.048307
      16A     -8.048057    17A     -8.047940    18A     -8.046245
      19A     -8.046214    20A     -8.045990    21A     -8.045962
      22A     -8.045903    23A     -8.045875    24A     -1.245554
      25A     -1.152423    26A     -1.107234    27A     -1.105686
      28A     -1.067874    29A     -1.009551    30A     -0.972253
      31A     -0.852016    32A     -0.826498    33A     -0.781444
      34A     -0.707277    35A     -0.674107    36A     -0.663288
      37A     -0.644589    38A     -0.621339    39A     -0.616638
      40A     -0.587815    41A     -0.573946    42A     -0.546754
      43A     -0.520173    44A     -0.499147    45A     -0.495571
      46A     -0.494736    47A     -0.479183    48A     -0.456383
      49A     -0.454695    50A     -0.450789    51A     -0.442908
      52A     -0.345457    53A     -0.330391

  @DF-RHF Final Energy: -1685.60809455358003

   => Energetics <=

    Nuclear Repulsion Energy =            875.3215244764724048
    One-Electron Energy =               -4062.4831332827575352
    Two-Electron Energy =                1501.5535142527050994
    Total Energy =                      -1685.6080945535800311
  Basis Set: (AUG-CC-PVTZ AUX)
    Blend: AUG-CC-PVTZ-RI
    Molecular point group: c1

    Geometry (in Angstrom), charge = 0, multiplicity = 1:

       Center              X                  Y                   Z               Mass
    ------------   -----------------  -----------------  -----------------  -----------------
         CL          -2.876114683953     0.005042409195     0.845940234247    34.968852682000
         CL          -1.136508683953    -1.443425590805    -0.961919765753    34.968852682000
         CL          -1.136513683953     1.453522409195    -0.961915765753    34.968852682000
         C           -0.201590683953     0.005046409195     1.151153234247    12.000000000000
         C            1.219921316047     0.005046409195     0.659909234247    12.000000000000
         C           -1.274776683953     0.005046409195     0.056687234247    12.000000000000
         C            1.830715316047    -1.289741590805     0.724297534247    12.000000000000
         C            1.898162316047     1.212379409195     0.445366234247    12.000000000000
         C            3.220413316047    -1.202613590805     0.000550234247    12.000000000000
         C            3.220413316047     1.212706409195     0.000551234247    12.000000000000
         C            3.884063316047     0.005046409195    -0.225611765753    12.000000000000
         H           -0.392521683953     0.888000409195     1.770378234247     1.007825032230
         H           -0.392520683953    -0.877906590805     1.770378234247     1.007825032230
         H            1.389090316047    -2.145750590805     0.629490234247     1.007825032230
         H            1.389091316047     2.155844409195     0.629491234247     1.007825032230
         H            3.735200316047    -2.146519590805    -0.161472765753     1.007825032230
         H            3.735201316047     2.156612409195    -0.161471765753     1.007825032230
         H            4.915499316047     0.005046409195    -0.569444765753     1.007825032230

  Basis Set: AUG-CC-PVTZ
    Blend: AUG-CC-PVTZ
  Basis Set: (AUG-CC-PVTZ AUX)
    Blend: AUG-CC-PVTZ-JKFIT
	 Reference Energy          =   -1685.6080945535800311 [Eh]
	 Singles Energy            =      -0.0000000000000000 [Eh]
	 Same-Spin Energy          =      -0.5408394200857496 [Eh]
	 Opposite-Spin Energy      =      -1.6242178185652900 [Eh]
	 Correlation Energy        =      -2.1650572386510394 [Eh]
	 Total Energy              =   -1687.7731517922311468 [Eh]

	 ================> DF-SCS-MP2 Energies <==================
	-----------------------------------------------------------
	 SCS Same-Spin Scale       =       0.3333333333333333 [-]
	 SCS Opposite-Spin Scale   =       1.2000000000000000 [-]
	 SCS Same-Spin Energy      =      -0.1802798066952498 [Eh]
	 SCS Opposite-Spin Energy  =      -1.9490613822783480 [Eh]
	 SCS Correlation Energy    =      -2.1293411889735978 [Eh]
	 SCS Total Energy          =   -1687.7374357425535436 [Eh]
	-----------------------------------------------------------

  Dipole Moment: [D]
     X:     1.7168      Y:     0.1521      Z:     0.7893     Total:     1.8956

*** Psi4 exiting successfully. Buy a developer a beer!
