                               Psi4 1.4a2.dev612

  ==> Input File <==

--------------------------------------------------------------------------
#psi4
#
memory 32 gb

molecule  {
0 1
 Cl       -2.9707590    -0.0000040     0.8385160
 Cl       -1.2311530    -1.4484720    -0.9693440
 Cl       -1.2311580     1.4484760    -0.9693400
  C       -0.2962350     0.0000000     1.1437290
  C        1.1252770     0.0000000     0.6524850
  C       -1.3694210     0.0000000     0.0492630
  C        1.7697940    -1.2510605     0.5774076
  C        1.8035180     1.2073330     0.4379420
  C        3.1257690    -1.2076600    -0.0068740
  C        3.1257690     1.2076600    -0.0068730
  C        3.7894190     0.0000000    -0.2330360
  H       -0.4871660     0.8829540     1.7629540
  H       -0.4871650    -0.8829530     1.7629540
  H        1.2944460    -2.1507970     0.6220660
  H        1.2944470     2.1507980     0.6220670
  H        3.6405560    -2.1515660    -0.1688970
  H        3.6405570     2.1515660    -0.1688960
  H        4.8208550     0.0000000    -0.5768690
units angstrom
no_reorient  #important for SAPT in psi4, default
symmetry c1  #important for SAPT in psi4, default
}

set PROPERTIES_ORIGIN ["COM"]
properties('MP2/aug-cc-pvtz', properties = ['dipole'])
--------------------------------------------------------------------------

    Molecular point group: c1
  Charge       = 0
  Multiplicity = 1
  Basis Set: AUG-CC-PVTZ
    Blend: AUG-CC-PVTZ
  Basis Set: (AUG-CC-PVTZ AUX)
    Blend: AUG-CC-PVTZ-JKFIT

    Orbital Energies [Eh]
    ---------------------

    Doubly Occupied:

       1A   -104.856945     2A   -104.856775     3A   -104.856517
       4A    -11.435660     5A    -11.268707     6A    -11.258545
       7A    -11.253326     8A    -11.248375     9A    -11.246906
      10A    -11.244980    11A    -11.243900    12A    -10.581431
      13A    -10.581407    14A    -10.581165    15A     -8.048161
      16A     -8.048161    17A     -8.047917    18A     -8.046123
      19A     -8.046097    20A     -8.046095    21A     -8.046066
      22A     -8.045849    23A     -8.045820    24A     -1.245612
      25A     -1.157073    26A     -1.107111    27A     -1.105788
      28A     -1.066540    29A     -1.015657    30A     -0.973619
      31A     -0.844246    32A     -0.829813    33A     -0.784403
      34A     -0.706508    35A     -0.667809    36A     -0.663126
      37A     -0.643538    38A     -0.620748    39A     -0.617728
      40A     -0.593431    41A     -0.573471    42A     -0.547566
      43A     -0.513173    44A     -0.503251    45A     -0.501585
      46A     -0.495509    47A     -0.485687    48A     -0.457070
      49A     -0.455954    50A     -0.454709    51A     -0.442893
      52A     -0.343456    53A     -0.335795

  @DF-RHF Final Energy: -1685.64956678071712

   => Energetics <=

    Nuclear Repulsion Energy =            876.9903641079025647
    One-Electron Energy =               -4065.9042679737963226
    Two-Electron Energy =                1503.2643370851765212
    Total Energy =                      -1685.6495667807171230
  Basis Set: (AUG-CC-PVTZ AUX)
    Blend: AUG-CC-PVTZ-RI
    Molecular point group: c1

    Geometry (in Angstrom), charge = 0, multiplicity = 1:

       Center              X                  Y                   Z               Mass
    ------------   -----------------  -----------------  -----------------  -----------------
         CL          -2.878060603388     0.002519199751     0.853987828353    34.968852682000
         CL          -1.138454603388    -1.445948800249    -0.953872171647    34.968852682000
         CL          -1.138459603388     1.450999199751    -0.953868171647    34.968852682000
         C           -0.203536603388     0.002523199751     1.159200828353    12.000000000000
         C            1.217975396612     0.002523199751     0.667956828353    12.000000000000
         C           -1.276722603388     0.002523199751     0.064734828353    12.000000000000
         C            1.862492396612    -1.248537300249     0.592879428353    12.000000000000
         C            1.896216396612     1.209856199751     0.453413828353    12.000000000000
         C            3.218467396612    -1.205136800249     0.008597828353    12.000000000000
         C            3.218467396612     1.210183199751     0.008598828353    12.000000000000
         C            3.882117396612     0.002523199751    -0.217564171647    12.000000000000
         H           -0.394467603388     0.885477199751     1.778425828353     1.007825032230
         H           -0.394466603388    -0.880429800249     1.778425828353     1.007825032230
         H            1.387144396612    -2.148273800249     0.637537828353     1.007825032230
         H            1.387145396612     2.153321199751     0.637538828353     1.007825032230
         H            3.733254396612    -2.149042800249    -0.153425171647     1.007825032230
         H            3.733255396612     2.154089199751    -0.153424171647     1.007825032230
         H            4.913553396612     0.002523199751    -0.561397171647     1.007825032230

  Basis Set: AUG-CC-PVTZ
    Blend: AUG-CC-PVTZ
  Basis Set: (AUG-CC-PVTZ AUX)
    Blend: AUG-CC-PVTZ-JKFIT
	 Reference Energy          =   -1685.6495667807171230 [Eh]
	 Singles Energy            =      -0.0000000000000000 [Eh]
	 Same-Spin Energy          =      -0.5398813913405022 [Eh]
	 Opposite-Spin Energy      =      -1.6200807408088260 [Eh]
	 Correlation Energy        =      -2.1599621321493281 [Eh]
	 Total Energy              =   -1687.8095289128664263 [Eh]

	 ================> DF-SCS-MP2 Energies <==================
	-----------------------------------------------------------
	 SCS Same-Spin Scale       =       0.3333333333333333 [-]
	 SCS Opposite-Spin Scale   =       1.2000000000000000 [-]
	 SCS Same-Spin Energy      =      -0.1799604637801674 [Eh]
	 SCS Opposite-Spin Energy  =      -1.9440968889705912 [Eh]
	 SCS Correlation Energy    =      -2.1240573527507585 [Eh]
	 SCS Total Energy          =   -1687.7736241334678198 [Eh]
	-----------------------------------------------------------

  Dipole Moment: [D]
     X:     1.6654      Y:     0.0343      Z:     0.8692     Total:     1.8789

*** Psi4 exiting successfully. Buy a developer a beer!
