                               Psi4 1.4a2.dev612

  ==> Input File <==

--------------------------------------------------------------------------
#psi4
#
memory 32 gb

molecule  {
0 1
 Cl       -2.9707590    -0.0000040     0.8385160
 Cl       -1.2311530    -1.4484720    -0.9693440
 Cl       -1.2311580     1.4484760    -0.9693400
  C       -0.2962350     0.0000000     1.1437290
  C        1.1252770     0.0000000     0.6524850
  C       -1.3694210     0.0000000     0.0492630
  C        1.7922760    -1.2219088     0.4844305
  C        1.8035180     1.2073330     0.4379420
  C        3.1257690    -1.2076600    -0.0068740
  C        3.1257690     1.2076600    -0.0068730
  C        3.7894190     0.0000000    -0.2330360
  H       -0.4871660     0.8829540     1.7629540
  H       -0.4871650    -0.8829530     1.7629540
  H        1.2944460    -2.1507970     0.6220660
  H        1.2944470     2.1507980     0.6220670
  H        3.6405560    -2.1515660    -0.1688970
  H        3.6405570     2.1515660    -0.1688960
  H        4.8208550     0.0000000    -0.5768690
units angstrom
no_reorient  #important for SAPT in psi4, default
symmetry c1  #important for SAPT in psi4, default
}

set PROPERTIES_ORIGIN ["COM"]
properties('MP2/aug-cc-pvtz', properties = ['dipole'])
--------------------------------------------------------------------------

    Molecular point group: c1
  Charge       = 0
  Multiplicity = 1
  Basis Set: AUG-CC-PVTZ
    Blend: AUG-CC-PVTZ
  Basis Set: (AUG-CC-PVTZ AUX)
    Blend: AUG-CC-PVTZ-JKFIT

    Orbital Energies [Eh]
    ---------------------

    Doubly Occupied:

       1A   -104.857166     2A   -104.856640     3A   -104.856523
       4A    -11.435907     5A    -11.270055     6A    -11.255587
       7A    -11.246941     8A    -11.245681     9A    -11.245402
      10A    -11.244442    11A    -11.243408    12A    -10.581650
      13A    -10.581278    14A    -10.581166    15A     -8.048382
      16A     -8.048031    17A     -8.047919    18A     -8.046343
      19A     -8.046316    20A     -8.045963    21A     -8.045933
      22A     -8.045849    23A     -8.045819    24A     -1.245730
      25A     -1.160739    26A     -1.107060    27A     -1.105929
      28A     -1.066181    29A     -1.019974    30A     -0.974191
      31A     -0.839101    32A     -0.832405    33A     -0.786276
      34A     -0.705572    35A     -0.667676    36A     -0.659250
      37A     -0.643003    38A     -0.621979    39A     -0.616084
      40A     -0.594966    41A     -0.572771    42A     -0.548283
      43A     -0.510572    44A     -0.505776    45A     -0.503436
      46A     -0.495165    47A     -0.488263    48A     -0.458965
      49A     -0.455916    50A     -0.454749    51A     -0.442922
      52A     -0.341791    53A     -0.340434

  @DF-RHF Final Energy: -1685.66324089972727

   => Energetics <=

    Nuclear Repulsion Energy =            877.9485560240196946
    One-Electron Energy =               -4067.8484778678543989
    Two-Electron Energy =                1504.2366809441075475
    Total Energy =                      -1685.6632408997272705
  Basis Set: (AUG-CC-PVTZ AUX)
    Blend: AUG-CC-PVTZ-RI
    Molecular point group: c1

    Geometry (in Angstrom), charge = 0, multiplicity = 1:

       Center              X                  Y                   Z               Mass
    ------------   -----------------  -----------------  -----------------  -----------------
         CL          -2.879357883010     0.000837058199     0.859352889168    34.968852682000
         CL          -1.139751883010    -1.447630941801    -0.948507110832    34.968852682000
         CL          -1.139756883010     1.449317058199    -0.948503110832    34.968852682000
         C           -0.204833883010     0.000841058199     1.164565889168    12.000000000000
         C            1.216678116990     0.000841058199     0.673321889168    12.000000000000
         C           -1.278019883010     0.000841058199     0.070099889168    12.000000000000
         C            1.883677116990    -1.221067741801     0.505267389168    12.000000000000
         C            1.894919116990     1.208174058199     0.458778889168    12.000000000000
         C            3.217170116990    -1.206818941801     0.013962889168    12.000000000000
         C            3.217170116990     1.208501058199     0.013963889168    12.000000000000
         C            3.880820116990     0.000841058199    -0.212199110832    12.000000000000
         H           -0.395764883010     0.883795058199     1.783790889168     1.007825032230
         H           -0.395763883010    -0.882111941801     1.783790889168     1.007825032230
         H            1.385847116990    -2.149955941801     0.642902889168     1.007825032230
         H            1.385848116990     2.151639058199     0.642903889168     1.007825032230
         H            3.731957116990    -2.150724941801    -0.148060110832     1.007825032230
         H            3.731958116990     2.152407058199    -0.148059110832     1.007825032230
         H            4.912256116990     0.000841058199    -0.556032110832     1.007825032230

  Basis Set: AUG-CC-PVTZ
    Blend: AUG-CC-PVTZ
  Basis Set: (AUG-CC-PVTZ AUX)
    Blend: AUG-CC-PVTZ-JKFIT
	 Reference Energy          =   -1685.6632408997272705 [Eh]
	 Singles Energy            =      -0.0000000000000000 [Eh]
	 Same-Spin Energy          =      -0.5396399206803351 [Eh]
	 Opposite-Spin Energy      =      -1.6186816646357949 [Eh]
	 Correlation Energy        =      -2.1583215853161297 [Eh]
	 Total Energy              =   -1687.8215624850433869 [Eh]

	 ================> DF-SCS-MP2 Energies <==================
	-----------------------------------------------------------
	 SCS Same-Spin Scale       =       0.3333333333333333 [-]
	 SCS Opposite-Spin Scale   =       1.2000000000000000 [-]
	 SCS Same-Spin Energy      =      -0.1798799735601117 [Eh]
	 SCS Opposite-Spin Energy  =      -1.9424179975629539 [Eh]
	 SCS Correlation Energy    =      -2.1222979711230656 [Eh]
	 SCS Total Energy          =   -1687.7855388708503597 [Eh]
	-----------------------------------------------------------

  Dipole Moment: [D]
     X:     1.6482      Y:     0.0019      Z:     0.9119     Total:     1.8837

*** Psi4 exiting successfully. Buy a developer a beer!
