                               Psi4 1.4a2.dev612

  ==> Input File <==

--------------------------------------------------------------------------
#psi4
#
memory 32 gb

molecule  {
0 1
 Cl       -2.9707590    -0.0000040     0.8385160
 Cl       -1.2311530    -1.4484720    -0.9693440
 Cl       -1.2311580     1.4484760    -0.9693400
  C       -0.2962350     0.0000000     1.1437290
  C        1.1252770     0.0000000     0.6524850
  C       -1.3694210     0.0000000     0.0492630
  C        1.7810350    -1.2364847     0.5309191
  C        1.8035180     1.2073330     0.4379420
  C        3.1257690    -1.2076600    -0.0068740
  C        3.1257690     1.2076600    -0.0068730
  C        3.7894190     0.0000000    -0.2330360
  H       -0.4871660     0.8829540     1.7629540
  H       -0.4871650    -0.8829530     1.7629540
  H        1.2944460    -2.1507970     0.6220660
  H        1.2944470     2.1507980     0.6220670
  H        3.6405560    -2.1515660    -0.1688970
  H        3.6405570     2.1515660    -0.1688960
  H        4.8208550     0.0000000    -0.5768690
units angstrom
no_reorient  #important for SAPT in psi4, default
symmetry c1  #important for SAPT in psi4, default
}

set PROPERTIES_ORIGIN ["COM"]
properties('MP2/aug-cc-pvtz', properties = ['dipole'])
--------------------------------------------------------------------------

    Molecular point group: c1
  Charge       = 0
  Multiplicity = 1
  Basis Set: AUG-CC-PVTZ
    Blend: AUG-CC-PVTZ
  Basis Set: (AUG-CC-PVTZ AUX)
    Blend: AUG-CC-PVTZ-JKFIT

    Orbital Energies [Eh]
    ---------------------

    Doubly Occupied:

       1A   -104.857052     2A   -104.856716     3A   -104.856514
       4A    -11.435776     5A    -11.269355     6A    -11.256823
       7A    -11.249980     8A    -11.246975     9A    -11.245901
      10A    -11.244751    11A    -11.243777    12A    -10.581537
      13A    -10.581351    14A    -10.581159    15A     -8.048268
      16A     -8.048104    17A     -8.047912    18A     -8.046230
      19A     -8.046203    20A     -8.046038    21A     -8.046008
      22A     -8.045843    23A     -8.045813    24A     -1.245667
      25A     -1.158855    26A     -1.107087    27A     -1.105855
      28A     -1.066294    29A     -1.017801    30A     -0.973934
      31A     -0.841642    32A     -0.831090    33A     -0.785350
      34A     -0.706037    35A     -0.667396    36A     -0.661437
      37A     -0.643239    38A     -0.621184    39A     -0.617078
      40A     -0.594551    41A     -0.573161    42A     -0.547932
      43A     -0.510845    44A     -0.505472    45A     -0.502753
      46A     -0.495419    47A     -0.487140    48A     -0.458084
      49A     -0.456003    50A     -0.454732    51A     -0.442907
      52A     -0.342639    53A     -0.338044

  @DF-RHF Final Energy: -1685.65798244779216

   => Energetics <=

    Nuclear Repulsion Energy =            877.4856512757633027
    One-Electron Energy =               -4066.9118373724104458
    Two-Electron Energy =                1503.7682036488549784
    Total Energy =                      -1685.6579824477921647
  Basis Set: (AUG-CC-PVTZ AUX)
    Blend: AUG-CC-PVTZ-RI
    Molecular point group: c1

    Geometry (in Angstrom), charge = 0, multiplicity = 1:

       Center              X                  Y                   Z               Mass
    ------------   -----------------  -----------------  -----------------  -----------------
         CL          -2.878709243199     0.001678131860     0.856670355875    34.968852682000
         CL          -1.139103243199    -1.446789868140    -0.951189644125    34.968852682000
         CL          -1.139108243199     1.450158131860    -0.951185644125    34.968852682000
         C           -0.204185243199     0.001682131860     1.161883355875    12.000000000000
         C            1.217326756801     0.001682131860     0.670639355875    12.000000000000
         C           -1.277371243199     0.001682131860     0.067417355875    12.000000000000
         C            1.873084756801    -1.234802568140     0.549073455875    12.000000000000
         C            1.895567756801     1.209015131860     0.456096355875    12.000000000000
         C            3.217818756801    -1.205977868140     0.011280355875    12.000000000000
         C            3.217818756801     1.209342131860     0.011281355875    12.000000000000
         C            3.881468756801     0.001682131860    -0.214881644125    12.000000000000
         H           -0.395116243199     0.884636131860     1.781108355875     1.007825032230
         H           -0.395115243199    -0.881270868140     1.781108355875     1.007825032230
         H            1.386495756801    -2.149114868140     0.640220355875     1.007825032230
         H            1.386496756801     2.152480131860     0.640221355875     1.007825032230
         H            3.732605756801    -2.149883868140    -0.150742644125     1.007825032230
         H            3.732606756801     2.153248131860    -0.150741644125     1.007825032230
         H            4.912904756801     0.001682131860    -0.558714644125     1.007825032230

  Basis Set: AUG-CC-PVTZ
    Blend: AUG-CC-PVTZ
  Basis Set: (AUG-CC-PVTZ AUX)
    Blend: AUG-CC-PVTZ-JKFIT
	 Reference Energy          =   -1685.6579824477921647 [Eh]
	 Singles Energy            =      -0.0000000000000000 [Eh]
	 Same-Spin Energy          =      -0.5397191677864117 [Eh]
	 Opposite-Spin Energy      =      -1.6192352242357759 [Eh]
	 Correlation Energy        =      -2.1589543920221876 [Eh]
	 Total Energy              =   -1687.8169368398143888 [Eh]

	 ================> DF-SCS-MP2 Energies <==================
	-----------------------------------------------------------
	 SCS Same-Spin Scale       =       0.3333333333333333 [-]
	 SCS Opposite-Spin Scale   =       1.2000000000000000 [-]
	 SCS Same-Spin Energy      =      -0.1799063892621372 [Eh]
	 SCS Opposite-Spin Energy  =      -1.9430822690829310 [Eh]
	 SCS Correlation Energy    =      -2.1229886583450681 [Eh]
	 SCS Total Energy          =   -1687.7809711061372582 [Eh]
	-----------------------------------------------------------

  Dipole Moment: [D]
     X:     1.6549      Y:     0.0133      Z:     0.8917     Total:     1.8799

*** Psi4 exiting successfully. Buy a developer a beer!
