                               Psi4 1.4a2.dev612

  ==> Input File <==

--------------------------------------------------------------------------
#psi4
#
memory 32 gb

molecule  {
0 1
 Cl       -2.9707590    -0.0000040     0.8385160
 Cl       -1.2311530    -1.4484720    -0.9693440
 Cl       -1.2311580     1.4484760    -0.9693400
  C       -0.2962350     0.0000000     1.1437290
  C        1.1252770     0.0000000     0.6524850
  C       -1.3694210     0.0000000     0.0492630
  C        1.8035170    -1.2073330     0.4379420
  C        1.8035180     1.2073330     0.4379420
  C        3.1257690    -1.2076600    -0.0068740
  C        3.1257690     1.2076600    -0.0068730
  C        3.7894190     0.0000000    -0.2330360
  H       -0.4871660     0.8829540     1.7629540
  H       -0.4871650    -0.8829530     1.7629540
  H        1.2944460    -2.1507970     0.6220660
  H        1.2944470     2.1507980     0.6220670
  H        3.6405560    -2.1515660    -0.1688970
  H        3.6405570     2.1515660    -0.1688960
  H        4.8208550     0.0000000    -0.5768690
units angstrom
no_reorient  #important for SAPT in psi4, default
symmetry c1  #important for SAPT in psi4, default
}

set PROPERTIES_ORIGIN ["COM"]
properties('MP2/aug-cc-pvtz', properties = ['dipole'])
--------------------------------------------------------------------------

    Molecular point group: c1
  Charge       = 0
  Multiplicity = 1
  Basis Set: AUG-CC-PVTZ
    Blend: AUG-CC-PVTZ
  Basis Set: (AUG-CC-PVTZ AUX)
    Blend: AUG-CC-PVTZ-JKFIT

    Orbital Energies [Eh]
    ---------------------

    Doubly Occupied:

       1A   -104.857278     2A   -104.856540     3A   -104.856540
       4A    -11.436044     5A    -11.270796     6A    -11.254840
       7A    -11.245282     8A    -11.245274     9A    -11.244610
      10A    -11.243161    11A    -11.242720    12A    -10.581765
      13A    -10.581185    14A    -10.581176    15A     -8.048497
      16A     -8.047933    17A     -8.047933    18A     -8.046456
      19A     -8.046430    20A     -8.045864    21A     -8.045863
      22A     -8.045834    23A     -8.045833    24A     -1.245795
      25A     -1.162718    26A     -1.107027    27A     -1.106002
      28A     -1.066224    29A     -1.022150    30A     -0.974388
      31A     -0.836684    32A     -0.833676    33A     -0.787175
      34A     -0.705163    35A     -0.668195    36A     -0.657098
      37A     -0.642849    38A     -0.622988    39A     -0.615112
      40A     -0.594528    41A     -0.572277    42A     -0.548573
      43A     -0.512452    44A     -0.506351    45A     -0.501470
      46A     -0.494460    47A     -0.489095    48A     -0.459688
      49A     -0.455756    50A     -0.454741    51A     -0.442932
      52A     -0.343168    53A     -0.340691

  @DF-RHF Final Energy: -1685.66518261858619

   => Energetics <=

    Nuclear Repulsion Energy =            878.3778554376925740
    One-Electron Energy =               -4068.7115180617252008
    Two-Electron Energy =                1504.6684800054463267
    Total Energy =                      -1685.6651826185861864
  Basis Set: (AUG-CC-PVTZ AUX)
    Blend: AUG-CC-PVTZ-RI
    Molecular point group: c1

    Geometry (in Angstrom), charge = 0, multiplicity = 1:

       Center              X                  Y                   Z               Mass
    ------------   -----------------  -----------------  -----------------  -----------------
         CL          -2.880006522822    -0.000004009692     0.862035416689    34.968852682000
         CL          -1.140400522822    -1.448472009692    -0.945824583311    34.968852682000
         CL          -1.140405522822     1.448475990308    -0.945820583311    34.968852682000
         C           -0.205482522822    -0.000000009692     1.167248416689    12.000000000000
         C            1.216029477178    -0.000000009692     0.676004416689    12.000000000000
         C           -1.278668522822    -0.000000009692     0.072782416689    12.000000000000
         C            1.894269477178    -1.207333009692     0.461461416689    12.000000000000
         C            1.894270477178     1.207332990308     0.461461416689    12.000000000000
         C            3.216521477178    -1.207660009692     0.016645416689    12.000000000000
         C            3.216521477178     1.207659990308     0.016646416689    12.000000000000
         C            3.880171477178    -0.000000009692    -0.209516583311    12.000000000000
         H           -0.396413522822     0.882953990308     1.786473416689     1.007825032230
         H           -0.396412522822    -0.882953009692     1.786473416689     1.007825032230
         H            1.385198477178    -2.150797009692     0.645585416689     1.007825032230
         H            1.385199477178     2.150797990308     0.645586416689     1.007825032230
         H            3.731308477178    -2.151566009692    -0.145377583311     1.007825032230
         H            3.731309477178     2.151565990308    -0.145376583311     1.007825032230
         H            4.911607477178    -0.000000009692    -0.553349583311     1.007825032230

  Basis Set: AUG-CC-PVTZ
    Blend: AUG-CC-PVTZ
  Basis Set: (AUG-CC-PVTZ AUX)
    Blend: AUG-CC-PVTZ-JKFIT
	 Reference Energy          =   -1685.6651826185861864 [Eh]
	 Singles Energy            =      -0.0000000000000000 [Eh]
	 Same-Spin Energy          =      -0.5396424582101740 [Eh]
	 Opposite-Spin Energy      =      -1.6184274808012238 [Eh]
	 Correlation Energy        =      -2.1580699390113978 [Eh]
	 Total Energy              =   -1687.8232525575976979 [Eh]

	 ================> DF-SCS-MP2 Energies <==================
	-----------------------------------------------------------
	 SCS Same-Spin Scale       =       0.3333333333333333 [-]
	 SCS Opposite-Spin Scale   =       1.2000000000000000 [-]
	 SCS Same-Spin Energy      =      -0.1798808194033913 [Eh]
	 SCS Opposite-Spin Energy  =      -1.9421129769614685 [Eh]
	 SCS Correlation Energy    =      -2.1219937963648596 [Eh]
	 SCS Total Energy          =   -1687.7871764149510909 [Eh]
	-----------------------------------------------------------

  Dipole Moment: [D]
     X:     1.6456      Y:    -0.0000      Z:     0.9300     Total:     1.8902

*** Psi4 exiting successfully. Buy a developer a beer!
