                               Psi4 1.4a3.dev225

  ==> Input File <==

--------------------------------------------------------------------------
#psi4
#
memory 32 gb

molecule  {
0 1
  O        1.7203660    -0.6953490    -0.0000010
  N        0.1393260     1.0073400     0.0000030
  C        0.4331392    -0.3425121    -0.0000001
  C       -0.5457690    -1.3124170    -0.0000030
  C       -1.8791730    -0.9359260    -0.0000020
  C       -2.2045600     0.4273250     0.0000020
  C       -1.1677370     1.3501220     0.0000040
  C        2.6948290     0.3578870    -0.0000010
  H       -0.2317940    -2.3512570    -0.0000050
  H       -2.6601020    -1.6923860    -0.0000030
  H       -3.2375940     0.7610840     0.0000020
  H       -1.3695760     2.4196570     0.0000060
  H        2.5921510     0.9846430     0.8882900
  H        2.5921450     0.9846480    -0.8882890
  H        3.6559850    -0.1549850    -0.0000060
units angstrom
no_reorient  #important for SAPT in psi4, default
symmetry c1  #important for SAPT in psi4, default
}

set PROPERTIES_ORIGIN ["COM"]
properties('MP2/aug-cc-pvtz', properties = ['dipole'])
--------------------------------------------------------------------------

    Molecular point group: c1
  Charge       = 0
  Multiplicity = 1
  Basis Set: AUG-CC-PVTZ
    Blend: AUG-CC-PVTZ
  Basis Set: (AUG-CC-PVTZ AUX)
    Blend: AUG-CC-PVTZ-JKFIT

    Orbital Energies [Eh]
    ---------------------

    Doubly Occupied:

       1A    -20.591762     2A    -15.562071     3A    -11.339035
       4A    -11.279761     5A    -11.278088     6A    -11.263484
       7A    -11.232058     8A    -11.231601     9A     -1.426939
      10A     -1.234728    11A     -1.086290    12A     -1.033360
      13A     -0.949177    14A     -0.860024    15A     -0.830342
      16A     -0.728711    17A     -0.684784    18A     -0.667648
      19A     -0.657017    20A     -0.620148    21A     -0.598352
      22A     -0.564098    23A     -0.543420    24A     -0.536607
      25A     -0.513463    26A     -0.481373    27A     -0.423019
      28A     -0.381991    29A     -0.324027

  @DF-RHF Final Energy:  -360.71180882228589

   => Energetics <=

    Nuclear Repulsion Energy =            350.2599072567878125
    One-Electron Energy =               -1184.0966778159020123
    Two-Electron Energy =                 473.1249617368283680
    Total Energy =                       -360.7118088222858887
  Basis Set: (AUG-CC-PVTZ AUX)
    Blend: AUG-CC-PVTZ-RI
    Molecular point group: c1

    Geometry (in Angstrom), charge = 0, multiplicity = 1:

       Center              X                  Y                   Z               Mass
    ------------   -----------------  -----------------  -----------------  -----------------
         O            1.731474750787    -0.681377820385    -0.000001181336    15.994914619570
         N            0.150434750787     1.021311179615     0.000002818664    14.003074004430
         C            0.444247950787    -0.328540920385    -0.000000281336    12.000000000000
         C           -0.534660249213    -1.298445820385    -0.000003181336    12.000000000000
         C           -1.868064249213    -0.921954820385    -0.000002181336    12.000000000000
         C           -2.193451249213     0.441296179615     0.000001818664    12.000000000000
         C           -1.156628249213     1.364093179615     0.000003818664    12.000000000000
         C            2.705937750787     0.371858179615    -0.000001181336    12.000000000000
         H           -0.220685249213    -2.337285820385    -0.000005181336     1.007825032230
         H           -2.648993249213    -1.678414820385    -0.000003181336     1.007825032230
         H           -3.226485249213     0.775055179615     0.000001818664     1.007825032230
         H           -1.358467249213     2.433628179615     0.000005818664     1.007825032230
         H            2.603259750787     0.998614179615     0.888289818664     1.007825032230
         H            2.603253750787     0.998619179615    -0.888289181336     1.007825032230
         H            3.667093750787    -0.141013820385    -0.000006181336     1.007825032230

  Basis Set: AUG-CC-PVTZ
    Blend: AUG-CC-PVTZ
  Basis Set: (AUG-CC-PVTZ AUX)
    Blend: AUG-CC-PVTZ-JKFIT
	 Reference Energy          =    -360.7118088222858887 [Eh]
	 Singles Energy            =      -0.0000000000000000 [Eh]
	 Same-Spin Energy          =      -0.3791274228244497 [Eh]
	 Opposite-Spin Energy      =      -1.1794178093809102 [Eh]
	 Correlation Energy        =      -1.5585452322053599 [Eh]
	 Total Energy              =    -362.2703540544912357 [Eh]

	 ================> DF-SCS-MP2 Energies <==================
	-----------------------------------------------------------
	 SCS Same-Spin Scale       =       0.3333333333333333 [-]
	 SCS Opposite-Spin Scale   =       1.2000000000000000 [-]
	 SCS Same-Spin Energy      =      -0.1263758076081499 [Eh]
	 SCS Opposite-Spin Energy  =      -1.4153013712570923 [Eh]
	 SCS Correlation Energy    =      -1.5416771788652421 [Eh]
	 SCS Total Energy          =    -362.2534860011511455 [Eh]
	-----------------------------------------------------------

  Dipole Moment: [D]
     X:    -0.5936      Y:    -0.2875      Z:    -0.0000     Total:     0.6596

*** Psi4 exiting successfully. Buy a developer a beer!
