                               Psi4 1.3.2 release

  ==> Input File <==

--------------------------------------------------------------------------
#psi4
#
memory 32 gb

molecule  {
0 1
  O        1.7203660    -0.6953490    -0.0000010
  N        0.1393260     1.0073400     0.0000030
  C        0.4437733    -0.3913681    -0.0000002
  C       -0.5457690    -1.3124170    -0.0000030
  C       -1.8791730    -0.9359260    -0.0000020
  C       -2.2045600     0.4273250     0.0000020
  C       -1.1677370     1.3501220     0.0000040
  C        2.6948290     0.3578870    -0.0000010
  H       -0.2317940    -2.3512570    -0.0000050
  H       -2.6601020    -1.6923860    -0.0000030
  H       -3.2375940     0.7610840     0.0000020
  H       -1.3695760     2.4196570     0.0000060
  H        2.5921510     0.9846430     0.8882900
  H        2.5921450     0.9846480    -0.8882890
  H        3.6559850    -0.1549850    -0.0000060
units angstrom
no_reorient  #important for SAPT in psi4, default
symmetry c1  #important for SAPT in psi4, default
}

set PROPERTIES_ORIGIN ["COM"]
properties('MP2/aug-cc-pvtz', properties = ['dipole'])
--------------------------------------------------------------------------

    Molecular point group: c1
  Charge       = 0
  Multiplicity = 1
  Basis Set: AUG-CC-PVTZ
    Blend: AUG-CC-PVTZ
  Basis Set: (AUG-CC-PVTZ AUX)
    Blend: AUG-CC-PVTZ-JKFIT

    Orbital Energies [Eh]
    ---------------------

    Doubly Occupied:

       1A    -20.594633     2A    -15.562135     3A    -11.339122
       4A    -11.281384     5A    -11.278494     6A    -11.264065
       7A    -11.229943     8A    -11.227403     9A     -1.436517
      10A     -1.223408    11A     -1.084322    12A     -1.035451
      13A     -0.953601    14A     -0.858767    15A     -0.828639
      16A     -0.731004    17A     -0.685631    18A     -0.667387
      19A     -0.661022    20A     -0.620722    21A     -0.598080
      22A     -0.566044    23A     -0.542114    24A     -0.535379
      25A     -0.512467    26A     -0.483640    27A     -0.417345
      28A     -0.378849    29A     -0.322484

  @DF-RHF Final Energy:  -360.70258189643152

   => Energetics <=

    Nuclear Repulsion Energy =            350.0734360250028772
    One-Electron Energy =               -1183.7119331034177776
    Two-Electron Energy =                 472.9359151819834324
    Total Energy =                       -360.7025818964315249
  Basis Set: (AUG-CC-PVTZ AUX)
    Blend: AUG-CC-PVTZ-RI
    Molecular point group: c1

    Geometry (in Angstrom), charge = 0, multiplicity = 1:

       Center              X                  Y                   Z               Mass
    ------------   -----------------  -----------------  -----------------  -----------------
         O            1.730304590623    -0.676001780574    -0.000001170332    15.994914619570
         N            0.149264590623     1.026687219426     0.000002829668    14.003074004430
         C            0.453711890623    -0.372020880574    -0.000000370332    12.000000000000
         C           -0.535830409377    -1.293069780574    -0.000003170332    12.000000000000
         C           -1.869234409377    -0.916578780574    -0.000002170332    12.000000000000
         C           -2.194621409377     0.446672219426     0.000001829668    12.000000000000
         C           -1.157798409377     1.369469219426     0.000003829668    12.000000000000
         C            2.704767590623     0.377234219426    -0.000001170332    12.000000000000
         H           -0.221855409377    -2.331909780574    -0.000005170332     1.007825032230
         H           -2.650163409377    -1.673038780574    -0.000003170332     1.007825032230
         H           -3.227655409377     0.780431219426     0.000001829668     1.007825032230
         H           -1.359637409377     2.439004219426     0.000005829668     1.007825032230
         H            2.602089590623     1.003990219426     0.888289829668     1.007825032230
         H            2.602083590623     1.003995219426    -0.888289170332     1.007825032230
         H            3.665923590623    -0.135637780574    -0.000006170332     1.007825032230

  Basis Set: AUG-CC-PVTZ
    Blend: AUG-CC-PVTZ
  Basis Set: (AUG-CC-PVTZ AUX)
    Blend: AUG-CC-PVTZ-JKFIT
	 Reference Energy          =    -360.7025818964315249 [Eh]
	 Singles Energy            =      -0.0000000000000000 [Eh]
	 Same-Spin Energy          =      -0.3794199210324448 [Eh]
	 Opposite-Spin Energy      =      -1.1801544860109283 [Eh]
	 Correlation Energy        =      -1.5595744070433732 [Eh]
	 Total Energy              =    -362.2621563034749101 [Eh]

	 ================> DF-SCS-MP2 Energies <==================
	-----------------------------------------------------------
	 SCS Same-Spin Scale       =       0.3333333333333333 [-]
	 SCS Opposite-Spin Scale   =       1.2000000000000000 [-]
	 SCS Same-Spin Energy      =      -0.1264733070108149 [Eh]
	 SCS Opposite-Spin Energy  =      -1.4161853832131139 [Eh]
	 SCS Correlation Energy    =      -1.5426586902239290 [Eh]
	 SCS Total Energy          =    -362.2452405866554273 [Eh]
	-----------------------------------------------------------

  Dipole Moment: [D]
     X:    -0.4089      Y:    -0.3124      Z:    -0.0000     Total:     0.5146

*** Psi4 exiting successfully. Buy a developer a beer!
