                               Psi4 1.3.2 release

  ==> Input File <==

--------------------------------------------------------------------------
#psi4
#
memory 32 gb

molecule  {
0 1
  O        1.7203660    -0.6953490    -0.0000010
  N        0.1393260     1.0073400     0.0000030
  C        0.4297132    -0.2710664     0.0000000
  C       -0.5457690    -1.3124170    -0.0000030
  C       -1.8791730    -0.9359260    -0.0000020
  C       -2.2045600     0.4273250     0.0000020
  C       -1.1677370     1.3501220     0.0000040
  C        2.6948290     0.3578870    -0.0000010
  H       -0.2317940    -2.3512570    -0.0000050
  H       -2.6601020    -1.6923860    -0.0000030
  H       -3.2375940     0.7610840     0.0000020
  H       -1.3695760     2.4196570     0.0000060
  H        2.5921510     0.9846430     0.8882900
  H        2.5921450     0.9846480    -0.8882890
  H        3.6559850    -0.1549850    -0.0000060
units angstrom
no_reorient  #important for SAPT in psi4, default
symmetry c1  #important for SAPT in psi4, default
}

set PROPERTIES_ORIGIN ["COM"]
properties('MP2/aug-cc-pvtz', properties = ['dipole'])
--------------------------------------------------------------------------

    Molecular point group: c1
  Charge       = 0
  Multiplicity = 1
  Basis Set: AUG-CC-PVTZ
    Blend: AUG-CC-PVTZ
  Basis Set: (AUG-CC-PVTZ AUX)
    Blend: AUG-CC-PVTZ-JKFIT

    Orbital Energies [Eh]
    ---------------------

    Doubly Occupied:

       1A    -20.589407     2A    -15.560214     3A    -11.338700
       4A    -11.280749     5A    -11.274778     6A    -11.261392
       7A    -11.238708     8A    -11.233712     9A     -1.418765
      10A     -1.252940    11A     -1.089017    12A     -1.028728
      13A     -0.944997    14A     -0.864528    15A     -0.828245
      16A     -0.727190    17A     -0.686158    18A     -0.667856
      19A     -0.654343    20A     -0.619094    21A     -0.596459
      22A     -0.560744    23A     -0.547122    24A     -0.539030
      25A     -0.514829    26A     -0.478627    27A     -0.426480
      28A     -0.388121    29A     -0.323884

  @DF-RHF Final Energy:  -360.71550218357277

   => Energetics <=

    Nuclear Repulsion Energy =            350.5721306630434810
    One-Electron Energy =               -1184.7056322262303638
    Two-Electron Energy =                 473.4179993796141162
    Total Energy =                       -360.7155021835727666
  Basis Set: (AUG-CC-PVTZ AUX)
    Blend: AUG-CC-PVTZ-RI
    Molecular point group: c1

    Geometry (in Angstrom), charge = 0, multiplicity = 1:

       Center              X                  Y                   Z               Mass
    ------------   -----------------  -----------------  -----------------  -----------------
         O            1.731851742608    -0.689239596371    -0.000001192340    15.994914619570
         N            0.150811742608     1.013449403629     0.000002807660    14.003074004430
         C            0.441198942608    -0.264956996371    -0.000000192340    12.000000000000
         C           -0.534283257392    -1.306307596371    -0.000003192340    12.000000000000
         C           -1.867687257392    -0.929816596371    -0.000002192340    12.000000000000
         C           -2.193074257392     0.433434403629     0.000001807660    12.000000000000
         C           -1.156251257392     1.356231403629     0.000003807660    12.000000000000
         C            2.706314742608     0.363996403629    -0.000001192340    12.000000000000
         H           -0.220308257392    -2.345147596371    -0.000005192340     1.007825032230
         H           -2.648616257392    -1.686276596371    -0.000003192340     1.007825032230
         H           -3.226108257392     0.767193403629     0.000001807660     1.007825032230
         H           -1.358090257392     2.425766403629     0.000005807660     1.007825032230
         H            2.603636742608     0.990752403629     0.888289807660     1.007825032230
         H            2.603630742608     0.990757403629    -0.888289192340     1.007825032230
         H            3.667470742608    -0.148875596371    -0.000006192340     1.007825032230

  Basis Set: AUG-CC-PVTZ
    Blend: AUG-CC-PVTZ
  Basis Set: (AUG-CC-PVTZ AUX)
    Blend: AUG-CC-PVTZ-JKFIT
	 Reference Energy          =    -360.7155021835727666 [Eh]
	 Singles Energy            =      -0.0000000000000000 [Eh]
	 Same-Spin Energy          =      -0.3785343426067960 [Eh]
	 Opposite-Spin Energy      =      -1.1787908738726165 [Eh]
	 Correlation Energy        =      -1.5573252164794125 [Eh]
	 Total Energy              =    -362.2728274000521651 [Eh]

	 ================> DF-SCS-MP2 Energies <==================
	-----------------------------------------------------------
	 SCS Same-Spin Scale       =       0.3333333333333333 [-]
	 SCS Opposite-Spin Scale   =       1.2000000000000000 [-]
	 SCS Same-Spin Energy      =      -0.1261781142022653 [Eh]
	 SCS Opposite-Spin Energy  =      -1.4145490486471397 [Eh]
	 SCS Correlation Energy    =      -1.5407271628494050 [Eh]
	 SCS Total Energy          =    -362.2562293464221739 [Eh]
	-----------------------------------------------------------

  Dipole Moment: [D]
     X:    -0.7529      Y:    -0.2360      Z:    -0.0000     Total:     0.7890

*** Psi4 exiting successfully. Buy a developer a beer!
