                               Psi4 1.3.2 release

  ==> Input File <==

--------------------------------------------------------------------------
#psi4
#
memory 32 gb

molecule  {
0 1
  O        1.7203660    -0.6953490    -0.0000010
  N        0.1393260     1.0073400     0.0000030
  C        0.3876265    -0.4315199    -0.0000001
  C       -0.5457690    -1.3124170    -0.0000030
  C       -1.8791730    -0.9359260    -0.0000020
  C       -2.2045600     0.4273250     0.0000020
  C       -1.1677370     1.3501220     0.0000040
  C        2.6948290     0.3578870    -0.0000010
  H       -0.2317940    -2.3512570    -0.0000050
  H       -2.6601020    -1.6923860    -0.0000030
  H       -3.2375940     0.7610840     0.0000020
  H       -1.3695760     2.4196570     0.0000060
  H        2.5921510     0.9846430     0.8882900
  H        2.5921450     0.9846480    -0.8882890
  H        3.6559850    -0.1549850    -0.0000060
units angstrom
no_reorient  #important for SAPT in psi4, default
symmetry c1  #important for SAPT in psi4, default
}

set PROPERTIES_ORIGIN ["COM"]
properties('MP2/aug-cc-pvtz', properties = ['dipole'])
--------------------------------------------------------------------------

    Molecular point group: c1
  Charge       = 0
  Multiplicity = 1
  Basis Set: AUG-CC-PVTZ
    Blend: AUG-CC-PVTZ
  Basis Set: (AUG-CC-PVTZ AUX)
    Blend: AUG-CC-PVTZ-JKFIT

    Orbital Energies [Eh]
    ---------------------

    Doubly Occupied:

       1A    -20.581403     2A    -15.567933     3A    -11.331914
       4A    -11.281340     5A    -11.275255     6A    -11.269070
       7A    -11.234909     8A    -11.222552     9A     -1.407539
      10A     -1.224773    11A     -1.094363    12A     -1.040603
      13A     -0.944457    14A     -0.867142    15A     -0.825969
      16A     -0.725537    17A     -0.683918    18A     -0.661441
      19A     -0.647535    20A     -0.626329    21A     -0.597254
      22A     -0.568001    23A     -0.543008    24A     -0.534295
      25A     -0.498439    26A     -0.476620    27A     -0.423904
      28A     -0.382379    29A     -0.331828

  @DF-RHF Final Energy:  -360.68655374169725

   => Energetics <=

    Nuclear Repulsion Energy =            349.9875362128564120
    One-Electron Energy =               -1183.6087578744211442
    Two-Electron Energy =                 472.9346679198674792
    Total Energy =                       -360.6865537416972529
  Basis Set: (AUG-CC-PVTZ AUX)
    Blend: AUG-CC-PVTZ-RI
    Molecular point group: c1

    Geometry (in Angstrom), charge = 0, multiplicity = 1:

       Center              X                  Y                   Z               Mass
    ------------   -----------------  -----------------  -----------------  -----------------
         O            1.736482898960    -0.671583537670    -0.000001181336    15.994914619570
         N            0.155442898960     1.031105462330     0.000002818664    14.003074004430
         C            0.403743398960    -0.407754437670    -0.000000281336    12.000000000000
         C           -0.529652101040    -1.288651537670    -0.000003181336    12.000000000000
         C           -1.863056101040    -0.912160537670    -0.000002181336    12.000000000000
         C           -2.188443101040     0.451090462330     0.000001818664    12.000000000000
         C           -1.151620101040     1.373887462330     0.000003818664    12.000000000000
         C            2.710945898960     0.381652462330    -0.000001181336    12.000000000000
         H           -0.215677101040    -2.327491537670    -0.000005181336     1.007825032230
         H           -2.643985101040    -1.668620537670    -0.000003181336     1.007825032230
         H           -3.221477101040     0.784849462330     0.000001818664     1.007825032230
         H           -1.353459101040     2.443422462330     0.000005818664     1.007825032230
         H            2.608267898960     1.008408462330     0.888289818664     1.007825032230
         H            2.608261898960     1.008413462330    -0.888289181336     1.007825032230
         H            3.672101898960    -0.131219537670    -0.000006181336     1.007825032230

  Basis Set: AUG-CC-PVTZ
    Blend: AUG-CC-PVTZ
  Basis Set: (AUG-CC-PVTZ AUX)
    Blend: AUG-CC-PVTZ-JKFIT
	 Reference Energy          =    -360.6865537416972529 [Eh]
	 Singles Energy            =      -0.0000000000000000 [Eh]
	 Same-Spin Energy          =      -0.3794799791711065 [Eh]
	 Opposite-Spin Energy      =      -1.1816020912082204 [Eh]
	 Correlation Energy        =      -1.5610820703793269 [Eh]
	 Total Energy              =    -362.2476358120765667 [Eh]

	 ================> DF-SCS-MP2 Energies <==================
	-----------------------------------------------------------
	 SCS Same-Spin Scale       =       0.3333333333333333 [-]
	 SCS Opposite-Spin Scale   =       1.2000000000000000 [-]
	 SCS Same-Spin Energy      =      -0.1264933263903688 [Eh]
	 SCS Opposite-Spin Energy  =      -1.4179225094498644 [Eh]
	 SCS Correlation Energy    =      -1.5444158358402333 [Eh]
	 SCS Total Energy          =    -362.2309695775375076 [Eh]
	-----------------------------------------------------------

  Dipole Moment: [D]
     X:    -0.9023      Y:    -0.2602      Z:    -0.0000     Total:     0.9391

*** Psi4 exiting successfully. Buy a developer a beer!
