                               Psi4 1.3.2 release

  ==> Input File <==

--------------------------------------------------------------------------
#psi4
#
memory 32 gb

molecule  {
0 1
  O        1.7452252    -0.6038363    -0.0000008
  N        0.1393260     1.0073400     0.0000030
  C        0.4225050    -0.2936560     0.0000000
  C       -0.5457690    -1.3124170    -0.0000030
  C       -1.8791730    -0.9359260    -0.0000020
  C       -2.2045600     0.4273250     0.0000020
  C       -1.1677370     1.3501220     0.0000040
  C        2.6948290     0.3578870    -0.0000010
  H       -0.2317940    -2.3512570    -0.0000050
  H       -2.6601020    -1.6923860    -0.0000030
  H       -3.2375940     0.7610840     0.0000020
  H       -1.3695760     2.4196570     0.0000060
  H        2.5921510     0.9846430     0.8882900
  H        2.5921450     0.9846480    -0.8882890
  H        3.6559850    -0.1549850    -0.0000060
units angstrom
no_reorient  #important for SAPT in psi4, default
symmetry c1  #important for SAPT in psi4, default
}

set PROPERTIES_ORIGIN ["COM"]
properties('MP2/aug-cc-pvtz', properties = ['dipole'])
--------------------------------------------------------------------------

    Molecular point group: c1
  Charge       = 0
  Multiplicity = 1
  Basis Set: AUG-CC-PVTZ
    Blend: AUG-CC-PVTZ
  Basis Set: (AUG-CC-PVTZ AUX)
    Blend: AUG-CC-PVTZ-JKFIT

    Orbital Energies [Eh]
    ---------------------

    Doubly Occupied:

       1A    -20.582663     2A    -15.561756     3A    -11.342258
       4A    -11.281881     5A    -11.265861     6A    -11.265848
       7A    -11.241487     8A    -11.235568     9A     -1.436710
      10A     -1.251231    11A     -1.091293    12A     -1.039150
      13A     -0.946773    14A     -0.867171    15A     -0.828571
      16A     -0.733538    17A     -0.690351    18A     -0.671824
      19A     -0.666072    20A     -0.623267    21A     -0.609179
      22A     -0.571349    23A     -0.545568    24A     -0.539293
      25A     -0.495037    26A     -0.467928    27A     -0.429505
      28A     -0.387866    29A     -0.327305

  @DF-RHF Final Energy:  -360.71250582251753

   => Energetics <=

    Nuclear Repulsion Energy =            351.7886780396833046
    One-Electron Energy =               -1187.0097692979804833
    Two-Electron Energy =                 474.5085854357796507
    Total Energy =                       -360.7125058225175280
  Basis Set: (AUG-CC-PVTZ AUX)
    Blend: AUG-CC-PVTZ-RI
    Molecular point group: c1

    Geometry (in Angstrom), charge = 0, multiplicity = 1:

       Center              X                  Y                   Z               Mass
    ------------   -----------------  -----------------  -----------------  -----------------
         O            1.753857989867    -0.608663461214    -0.000001021674    15.994914619570
         N            0.147958789867     1.002512838786     0.000002778326    14.003074004430
         C            0.431137789867    -0.298483161214    -0.000000221674    12.000000000000
         C           -0.537136210133    -1.317244161214    -0.000003221674    12.000000000000
         C           -1.870540210133    -0.940753161214    -0.000002221674    12.000000000000
         C           -2.195927210133     0.422497838786     0.000001778326    12.000000000000
         C           -1.159104210133     1.345294838786     0.000003778326    12.000000000000
         C            2.703461789867     0.353059838786    -0.000001221674    12.000000000000
         H           -0.223161210133    -2.356084161214    -0.000005221674     1.007825032230
         H           -2.651469210133    -1.697213161214    -0.000003221674     1.007825032230
         H           -3.228961210133     0.756256838786     0.000001778326     1.007825032230
         H           -1.360943210133     2.414829838786     0.000005778326     1.007825032230
         H            2.600783789867     0.979815838786     0.888289778326     1.007825032230
         H            2.600777789867     0.979820838786    -0.888289221674     1.007825032230
         H            3.664617789867    -0.159812161214    -0.000006221674     1.007825032230

  Basis Set: AUG-CC-PVTZ
    Blend: AUG-CC-PVTZ
  Basis Set: (AUG-CC-PVTZ AUX)
    Blend: AUG-CC-PVTZ-JKFIT
	 Reference Energy          =    -360.7125058225175280 [Eh]
	 Singles Energy            =      -0.0000000000000000 [Eh]
	 Same-Spin Energy          =      -0.3784520121836110 [Eh]
	 Opposite-Spin Energy      =      -1.1768999265348139 [Eh]
	 Correlation Energy        =      -1.5553519387184249 [Eh]
	 Total Energy              =    -362.2678577612359732 [Eh]

	 ================> DF-SCS-MP2 Energies <==================
	-----------------------------------------------------------
	 SCS Same-Spin Scale       =       0.3333333333333333 [-]
	 SCS Opposite-Spin Scale   =       1.2000000000000000 [-]
	 SCS Same-Spin Energy      =      -0.1261506707278703 [Eh]
	 SCS Opposite-Spin Energy  =      -1.4122799118417766 [Eh]
	 SCS Correlation Energy    =      -1.5384305825696469 [Eh]
	 SCS Total Energy          =    -362.2509364050872023 [Eh]
	-----------------------------------------------------------

  Dipole Moment: [D]
     X:    -1.0420      Y:    -0.4722      Z:    -0.0000     Total:     1.1440

*** Psi4 exiting successfully. Buy a developer a beer!
