                               Psi4 1.3.2 release

  ==> Input File <==

--------------------------------------------------------------------------
#psi4
#
memory 32 gb

molecule  {
0 1
  O        1.7203660    -0.6953490    -0.0000010
  N        0.1393260     1.0073400     0.0000030
  C        0.3269759    -0.2640894     0.0000001
  C       -0.5457690    -1.3124170    -0.0000030
  C       -1.8791730    -0.9359260    -0.0000020
  C       -2.2045600     0.4273250     0.0000020
  C       -1.1677370     1.3501220     0.0000040
  C        2.6948290     0.3578870    -0.0000010
  H       -0.2317940    -2.3512570    -0.0000050
  H       -2.6601020    -1.6923860    -0.0000030
  H       -3.2375940     0.7610840     0.0000020
  H       -1.3695760     2.4196570     0.0000060
  H        2.5921510     0.9846430     0.8882900
  H        2.5921450     0.9846480    -0.8882890
  H        3.6559850    -0.1549850    -0.0000060
units angstrom
no_reorient  #important for SAPT in psi4, default
symmetry c1  #important for SAPT in psi4, default
}

set PROPERTIES_ORIGIN ["COM"]
properties('MP2/aug-cc-pvtz', properties = ['dipole'])
--------------------------------------------------------------------------

    Molecular point group: c1
  Charge       = 0
  Multiplicity = 1
  Basis Set: AUG-CC-PVTZ
    Blend: AUG-CC-PVTZ
  Basis Set: (AUG-CC-PVTZ AUX)
    Blend: AUG-CC-PVTZ-JKFIT

    Orbital Energies [Eh]
    ---------------------

    Doubly Occupied:

       1A    -20.566703     2A    -15.568435     3A    -11.332655
       4A    -11.287197     5A    -11.268738     6A    -11.262413
       7A    -11.241138     8A    -11.240105     9A     -1.374723
      10A     -1.268412    11A     -1.103604    12A     -1.036534
      13A     -0.926336    14A     -0.874223    15A     -0.833456
      16A     -0.723962    17A     -0.685062    18A     -0.660625
      19A     -0.633580    20A     -0.619140    21A     -0.599696
      22A     -0.558150    23A     -0.555317    24A     -0.542250
      25A     -0.488034    26A     -0.460952    27A     -0.445178
      28A     -0.395335    29A     -0.337948

  @DF-RHF Final Energy:  -360.70289852142440

   => Energetics <=

    Nuclear Repulsion Energy =            350.7937454948415166
    One-Electron Energy =               -1185.2134847174304468
    Two-Electron Energy =                 473.7168407011645854
    Total Energy =                       -360.7028985214244017
  Basis Set: (AUG-CC-PVTZ AUX)
    Blend: AUG-CC-PVTZ-RI
    Molecular point group: c1

    Geometry (in Angstrom), charge = 0, multiplicity = 1:

       Center              X                  Y                   Z               Mass
    ------------   -----------------  -----------------  -----------------  -----------------
         O            1.743156798587    -0.690007334822    -0.000001203344    15.994914619570
         N            0.162116798587     1.012681665178     0.000002796656    14.003074004430
         C            0.349766698587    -0.258747734822    -0.000000103344    12.000000000000
         C           -0.522978201413    -1.307075334822    -0.000003203344    12.000000000000
         C           -1.856382201413    -0.930584334822    -0.000002203344    12.000000000000
         C           -2.181769201413     0.432666665178     0.000001796656    12.000000000000
         C           -1.144946201413     1.355463665178     0.000003796656    12.000000000000
         C            2.717619798587     0.363228665178    -0.000001203344    12.000000000000
         H           -0.209003201413    -2.345915334822    -0.000005203344     1.007825032230
         H           -2.637311201413    -1.687044334822    -0.000003203344     1.007825032230
         H           -3.214803201413     0.766425665178     0.000001796656     1.007825032230
         H           -1.346785201413     2.424998665178     0.000005796656     1.007825032230
         H            2.614941798587     0.989984665178     0.888289796656     1.007825032230
         H            2.614935798587     0.989989665178    -0.888289203344     1.007825032230
         H            3.678775798587    -0.149643334822    -0.000006203344     1.007825032230

  Basis Set: AUG-CC-PVTZ
    Blend: AUG-CC-PVTZ
  Basis Set: (AUG-CC-PVTZ AUX)
    Blend: AUG-CC-PVTZ-JKFIT
	 Reference Energy          =    -360.7028985214244017 [Eh]
	 Singles Energy            =      -0.0000000000000000 [Eh]
	 Same-Spin Energy          =      -0.3792204781321650 [Eh]
	 Opposite-Spin Energy      =      -1.1803874130424488 [Eh]
	 Correlation Energy        =      -1.5596078911746138 [Eh]
	 Total Energy              =    -362.2625064125990093 [Eh]

	 ================> DF-SCS-MP2 Energies <==================
	-----------------------------------------------------------
	 SCS Same-Spin Scale       =       0.3333333333333333 [-]
	 SCS Opposite-Spin Scale   =       1.2000000000000000 [-]
	 SCS Same-Spin Energy      =      -0.1264068260440550 [Eh]
	 SCS Opposite-Spin Energy  =      -1.4164648956509385 [Eh]
	 SCS Correlation Energy    =      -1.5428717216949934 [Eh]
	 SCS Total Energy          =    -362.2457702431194093 [Eh]
	-----------------------------------------------------------

  Dipole Moment: [D]
     X:    -1.6641      Y:    -0.1400      Z:    -0.0000     Total:     1.6700

*** Psi4 exiting successfully. Buy a developer a beer!
