                               Psi4 1.3.2 release

  ==> Input File <==

--------------------------------------------------------------------------
#psi4
#
memory 32 gb

molecule  {
0 1
  O        1.7203660    -0.6953490    -0.0000010
  N        0.1393260     1.0073400     0.0000030
  C        0.3976458    -0.3851687    -0.0000000
  C       -0.5457690    -1.3124170    -0.0000030
  C       -1.8791730    -0.9359260    -0.0000020
  C       -2.2045600     0.4273250     0.0000020
  C       -1.1677370     1.3501220     0.0000040
  C        2.6948290     0.3578870    -0.0000010
  H       -0.2317940    -2.3512570    -0.0000050
  H       -2.6601020    -1.6923860    -0.0000030
  H       -3.2375940     0.7610840     0.0000020
  H       -1.3695760     2.4196570     0.0000060
  H        2.5921510     0.9846430     0.8882900
  H        2.5921450     0.9846480    -0.8882890
  H        3.6559850    -0.1549850    -0.0000060
units angstrom
no_reorient  #important for SAPT in psi4, default
symmetry c1  #important for SAPT in psi4, default
}

set PROPERTIES_ORIGIN ["COM"]
properties('MP2/aug-cc-pvtz', properties = ['dipole'])
--------------------------------------------------------------------------

    Molecular point group: c1
  Charge       = 0
  Multiplicity = 1
  Basis Set: AUG-CC-PVTZ
    Blend: AUG-CC-PVTZ
  Basis Set: (AUG-CC-PVTZ AUX)
    Blend: AUG-CC-PVTZ-JKFIT

    Orbital Energies [Eh]
    ---------------------

    Doubly Occupied:

       1A    -20.583903     2A    -15.566243     3A    -11.334801
       4A    -11.281405     5A    -11.275032     6A    -11.267275
       7A    -11.234118     8A    -11.227517     9A     -1.410880
      10A     -1.231236    11A     -1.091526    12A     -1.038086
      13A     -0.944383    14A     -0.864070    15A     -0.829661
      16A     -0.725872    17A     -0.683374    18A     -0.663932
      19A     -0.649208    20A     -0.623594    21A     -0.598664
      22A     -0.565999    23A     -0.543442    24A     -0.535961
      25A     -0.503250    26A     -0.477208    27A     -0.426828
      28A     -0.382382    29A     -0.330041

  @DF-RHF Final Energy:  -360.70191967698901

   => Energetics <=

    Nuclear Repulsion Energy =            350.1301997717986296
    One-Electron Energy =               -1183.8844545630356606
    Two-Electron Energy =                 473.0523351142480237
    Total Energy =                       -360.7019196769890073
  Basis Set: (AUG-CC-PVTZ AUX)
    Blend: AUG-CC-PVTZ-RI
    Molecular point group: c1

    Geometry (in Angstrom), charge = 0, multiplicity = 1:

       Center              X                  Y                   Z               Mass
    ------------   -----------------  -----------------  -----------------  -----------------
         O            1.735380390451    -0.676683953106    -0.000001192340    15.994914619570
         N            0.154340390451     1.026005046894     0.000002807660    14.003074004430
         C            0.412660190451    -0.366503653106    -0.000000192340    12.000000000000
         C           -0.530754609549    -1.293751953106    -0.000003192340    12.000000000000
         C           -1.864158609549    -0.917260953106    -0.000002192340    12.000000000000
         C           -2.189545609549     0.445990046894     0.000001807660    12.000000000000
         C           -1.152722609549     1.368787046894     0.000003807660    12.000000000000
         C            2.709843390451     0.376552046894    -0.000001192340    12.000000000000
         H           -0.216779609549    -2.332591953106    -0.000005192340     1.007825032230
         H           -2.645087609549    -1.673720953106    -0.000003192340     1.007825032230
         H           -3.222579609549     0.779749046894     0.000001807660     1.007825032230
         H           -1.354561609549     2.438322046894     0.000005807660     1.007825032230
         H            2.607165390451     1.003308046894     0.888289807660     1.007825032230
         H            2.607159390451     1.003313046894    -0.888289192340     1.007825032230
         H            3.670999390451    -0.136319953106    -0.000006192340     1.007825032230

  Basis Set: AUG-CC-PVTZ
    Blend: AUG-CC-PVTZ
  Basis Set: (AUG-CC-PVTZ AUX)
    Blend: AUG-CC-PVTZ-JKFIT
	 Reference Energy          =    -360.7019196769890073 [Eh]
	 Singles Energy            =      -0.0000000000000000 [Eh]
	 Same-Spin Energy          =      -0.3793783210911719 [Eh]
	 Opposite-Spin Energy      =      -1.1804827444242116 [Eh]
	 Correlation Energy        =      -1.5598610655153835 [Eh]
	 Total Energy              =    -362.2617807425044134 [Eh]

	 ================> DF-SCS-MP2 Energies <==================
	-----------------------------------------------------------
	 SCS Same-Spin Scale       =       0.3333333333333333 [-]
	 SCS Opposite-Spin Scale   =       1.2000000000000000 [-]
	 SCS Same-Spin Energy      =      -0.1264594403637239 [Eh]
	 SCS Opposite-Spin Energy  =      -1.4165792933090540 [Eh]
	 SCS Correlation Energy    =      -1.5430387336727780 [Eh]
	 SCS Total Energy          =    -362.2449584106618090 [Eh]
	-----------------------------------------------------------

  Dipole Moment: [D]
     X:    -0.8653      Y:    -0.2644      Z:    -0.0000     Total:     0.9048

*** Psi4 exiting successfully. Buy a developer a beer!
