                               Psi4 1.3.2 release

  ==> Input File <==

--------------------------------------------------------------------------
#psi4
#
memory 32 gb

molecule  {
0 1
  O        1.7203660    -0.6953490    -0.0000010
  N        0.1393260     1.0073400     0.0000030
  C        0.4650417    -0.4890802    -0.0000005
  C       -0.5457690    -1.3124170    -0.0000030
  C       -1.8791730    -0.9359260    -0.0000020
  C       -2.2045600     0.4273250     0.0000020
  C       -1.1677370     1.3501220     0.0000040
  C        2.6948290     0.3578870    -0.0000010
  H       -0.2317940    -2.3512570    -0.0000050
  H       -2.6601020    -1.6923860    -0.0000030
  H       -3.2375940     0.7610840     0.0000020
  H       -1.3695760     2.4196570     0.0000060
  H        2.5921510     0.9846430     0.8882900
  H        2.5921450     0.9846480    -0.8882890
  H        3.6559850    -0.1549850    -0.0000060
units angstrom
no_reorient  #important for SAPT in psi4, default
symmetry c1  #important for SAPT in psi4, default
}

set PROPERTIES_ORIGIN ["COM"]
properties('MP2/aug-cc-pvtz', properties = ['dipole'])
--------------------------------------------------------------------------

    Molecular point group: c1
  Charge       = 0
  Multiplicity = 1
  Basis Set: AUG-CC-PVTZ
    Blend: AUG-CC-PVTZ
  Basis Set: (AUG-CC-PVTZ AUX)
    Blend: AUG-CC-PVTZ-JKFIT

    Orbital Energies [Eh]
    ---------------------

    Doubly Occupied:

       1A    -20.599422     2A    -15.560625     3A    -11.338629
       4A    -11.288053     5A    -11.275325     6A    -11.264519
       7A    -11.227620     8A    -11.218842     9A     -1.454825
      10A     -1.205714    11A     -1.083277    12A     -1.037899
      13A     -0.962927    14A     -0.861365    15A     -0.820551
      16A     -0.736258    17A     -0.689512    18A     -0.669483
      19A     -0.667266    20A     -0.621267    21A     -0.594986
      22A     -0.568659    23A     -0.543023    24A     -0.535033
      25A     -0.505718    26A     -0.485869    27A     -0.401923
      28A     -0.375792    29A     -0.318680

  @DF-RHF Final Energy:  -360.67058958967596

   => Energetics <=

    Nuclear Repulsion Energy =            349.7478510828126446
    One-Electron Energy =               -1183.0107561374722991
    Two-Electron Energy =                 472.5923154649836988
    Total Energy =                       -360.6705895896759557
  Basis Set: (AUG-CC-PVTZ AUX)
    Blend: AUG-CC-PVTZ-RI
    Molecular point group: c1

    Geometry (in Angstrom), charge = 0, multiplicity = 1:

       Center              X                  Y                   Z               Mass
    ------------   -----------------  -----------------  -----------------  -----------------
         O            1.727964248288    -0.665249689947    -0.000001137321    15.994914619570
         N            0.146924248288     1.037439310053     0.000002862679    14.003074004430
         C            0.472639948288    -0.458980889947    -0.000000637321    12.000000000000
         C           -0.538170751712    -1.282317689947    -0.000003137321    12.000000000000
         C           -1.871574751712    -0.905826689947    -0.000002137321    12.000000000000
         C           -2.196961751712     0.457424310053     0.000001862679    12.000000000000
         C           -1.160138751712     1.380221310053     0.000003862679    12.000000000000
         C            2.702427248288     0.387986310053    -0.000001137321    12.000000000000
         H           -0.224195751712    -2.321157689947    -0.000005137321     1.007825032230
         H           -2.652503751712    -1.662286689947    -0.000003137321     1.007825032230
         H           -3.229995751712     0.791183310053     0.000001862679     1.007825032230
         H           -1.361977751712     2.449756310053     0.000005862679     1.007825032230
         H            2.599749248288     1.014742310053     0.888289862679     1.007825032230
         H            2.599743248288     1.014747310053    -0.888289137321     1.007825032230
         H            3.663583248288    -0.124885689947    -0.000006137321     1.007825032230

  Basis Set: AUG-CC-PVTZ
    Blend: AUG-CC-PVTZ
  Basis Set: (AUG-CC-PVTZ AUX)
    Blend: AUG-CC-PVTZ-JKFIT
	 Reference Energy          =    -360.6705895896759557 [Eh]
	 Singles Energy            =      -0.0000000000000000 [Eh]
	 Same-Spin Energy          =      -0.3800181255422861 [Eh]
	 Opposite-Spin Energy      =      -1.1826084925892295 [Eh]
	 Correlation Energy        =      -1.5626266181315156 [Eh]
	 Total Energy              =    -362.2332162078074589 [Eh]

	 ================> DF-SCS-MP2 Energies <==================
	-----------------------------------------------------------
	 SCS Same-Spin Scale       =       0.3333333333333333 [-]
	 SCS Opposite-Spin Scale   =       1.2000000000000000 [-]
	 SCS Same-Spin Energy      =      -0.1266727085140954 [Eh]
	 SCS Opposite-Spin Energy  =      -1.4191301911070753 [Eh]
	 SCS Correlation Energy    =      -1.5458028996211706 [Eh]
	 SCS Total Energy          =    -362.2163924892971067 [Eh]
	-----------------------------------------------------------

  Dipole Moment: [D]
     X:    -0.0402      Y:    -0.3436      Z:    -0.0000     Total:     0.3460

*** Psi4 exiting successfully. Buy a developer a beer!
