                               Psi4 1.3.2 release

  ==> Input File <==

--------------------------------------------------------------------------
#psi4
#
memory 32 gb

molecule  {
0 1
  O        1.7797900    -0.7396199     0.1306376
  N        0.1393260     1.0073400     0.0000030
  C        0.4225050    -0.2936560     0.0000000
  C       -0.5457690    -1.3124170    -0.0000030
  C       -1.8791730    -0.9359260    -0.0000020
  C       -2.2045600     0.4273250     0.0000020
  C       -1.1677370     1.3501220     0.0000040
  C        2.6948290     0.3578870    -0.0000010
  H       -0.2317940    -2.3512570    -0.0000050
  H       -2.6601020    -1.6923860    -0.0000030
  H       -3.2375940     0.7610840     0.0000020
  H       -1.3695760     2.4196570     0.0000060
  H        2.5921510     0.9846430     0.8882900
  H        2.5921450     0.9846480    -0.8882890
  H        3.6559850    -0.1549850    -0.0000060
units angstrom
no_reorient  #important for SAPT in psi4, default
symmetry c1  #important for SAPT in psi4, default
}

set PROPERTIES_ORIGIN ["COM"]
properties('MP2/aug-cc-pvtz', properties = ['dipole'])
--------------------------------------------------------------------------

    Molecular point group: c1
  Charge       = 0
  Multiplicity = 1
  Basis Set: AUG-CC-PVTZ
    Blend: AUG-CC-PVTZ
  Basis Set: (AUG-CC-PVTZ AUX)
    Blend: AUG-CC-PVTZ-JKFIT

    Orbital Energies [Eh]
    ---------------------

    Doubly Occupied:

       1A    -20.586915     2A    -15.569511     3A    -11.342882
       4A    -11.284768     5A    -11.268185     6A    -11.265796
       7A    -11.242165     8A    -11.239589     9A     -1.389861
      10A     -1.253285    11A     -1.092779    12A     -1.031599
      13A     -0.933243    14A     -0.864311    15A     -0.834286
      16A     -0.722692    17A     -0.681192    18A     -0.665411
      19A     -0.641116    20A     -0.621007    21A     -0.595874
      22A     -0.563767    23A     -0.544251    24A     -0.541434
      25A     -0.506393    26A     -0.471256    27A     -0.431481
      28A     -0.389697    29A     -0.333073

  @DF-RHF Final Energy:  -360.70398603992999

   => Energetics <=

    Nuclear Repulsion Energy =            348.4439176841929680
    One-Electron Energy =               -1180.4801648647039656
    Two-Electron Energy =                 471.3322611405810676
    Total Energy =                       -360.7039860399299869
  Basis Set: (AUG-CC-PVTZ AUX)
    Blend: AUG-CC-PVTZ-RI
    Molecular point group: c1

    Geometry (in Angstrom), charge = 0, multiplicity = 1:

       Center              X                  Y                   Z               Mass
    ------------   -----------------  -----------------  -----------------  -----------------
         O            1.783353124456    -0.724531499131     0.111476469604    15.994914619570
         N            0.142889124456     1.022428400869    -0.019158130396    14.003074004430
         C            0.426068124456    -0.278567599131    -0.019161130396    12.000000000000
         C           -0.542205875544    -1.297328599131    -0.019164130396    12.000000000000
         C           -1.875609875544    -0.920837599131    -0.019163130396    12.000000000000
         C           -2.200996875544     0.442413400869    -0.019159130396    12.000000000000
         C           -1.164173875544     1.365210400869    -0.019157130396    12.000000000000
         C            2.698392124456     0.372975400869    -0.019162130396    12.000000000000
         H           -0.228230875544    -2.336168599131    -0.019166130396     1.007825032230
         H           -2.656538875544    -1.677297599131    -0.019164130396     1.007825032230
         H           -3.234030875544     0.776172400869    -0.019159130396     1.007825032230
         H           -1.366012875544     2.434745400869    -0.019155130396     1.007825032230
         H            2.595714124456     0.999731400869     0.869128869604     1.007825032230
         H            2.595708124456     0.999736400869    -0.907450130396     1.007825032230
         H            3.659548124456    -0.139896599131    -0.019167130396     1.007825032230

  Basis Set: AUG-CC-PVTZ
    Blend: AUG-CC-PVTZ
  Basis Set: (AUG-CC-PVTZ AUX)
    Blend: AUG-CC-PVTZ-JKFIT
	 Reference Energy          =    -360.7039860399299869 [Eh]
	 Singles Energy            =      -0.0000000000000000 [Eh]
	 Same-Spin Energy          =      -0.3797485155191896 [Eh]
	 Opposite-Spin Energy      =      -1.1820392320863360 [Eh]
	 Correlation Energy        =      -1.5617877476055257 [Eh]
	 Total Energy              =    -362.2657737875355224 [Eh]

	 ================> DF-SCS-MP2 Energies <==================
	-----------------------------------------------------------
	 SCS Same-Spin Scale       =       0.3333333333333333 [-]
	 SCS Opposite-Spin Scale   =       1.2000000000000000 [-]
	 SCS Same-Spin Energy      =      -0.1265828385063965 [Eh]
	 SCS Opposite-Spin Energy  =      -1.4184470785036032 [Eh]
	 SCS Correlation Energy    =      -1.5450299170099997 [Eh]
	 SCS Total Energy          =    -362.2490159569400134 [Eh]
	-----------------------------------------------------------

  Dipole Moment: [D]
     X:    -1.3409      Y:    -0.1434      Z:    -0.1826     Total:     1.3609

*** Psi4 exiting successfully. Buy a developer a beer!
