                               Psi4 1.3.2 release

  ==> Input File <==

--------------------------------------------------------------------------
#psi4
#
memory 32 gb

molecule  {
0 1
  O        1.7552445    -0.5574851    -0.0000006
  N        0.1393260     1.0073400     0.0000030
  C        0.4225050    -0.2936560     0.0000000
  C       -0.5457690    -1.3124170    -0.0000030
  C       -1.8791730    -0.9359260    -0.0000020
  C       -2.2045600     0.4273250     0.0000020
  C       -1.1677370     1.3501220     0.0000040
  C        2.6948290     0.3578870    -0.0000010
  H       -0.2317940    -2.3512570    -0.0000050
  H       -2.6601020    -1.6923860    -0.0000030
  H       -3.2375940     0.7610840     0.0000020
  H       -1.3695760     2.4196570     0.0000060
  H        2.5921510     0.9846430     0.8882900
  H        2.5921450     0.9846480    -0.8882890
  H        3.6559850    -0.1549850    -0.0000060
units angstrom
no_reorient  #important for SAPT in psi4, default
symmetry c1  #important for SAPT in psi4, default
}

set PROPERTIES_ORIGIN ["COM"]
properties('MP2/aug-cc-pvtz', properties = ['dipole'])
--------------------------------------------------------------------------

    Molecular point group: c1
  Charge       = 0
  Multiplicity = 1
  Basis Set: AUG-CC-PVTZ
    Blend: AUG-CC-PVTZ
  Basis Set: (AUG-CC-PVTZ AUX)
    Blend: AUG-CC-PVTZ-JKFIT

    Orbital Energies [Eh]
    ---------------------

    Doubly Occupied:

       1A    -20.579342     2A    -15.561904     3A    -11.344706
       4A    -11.282352     5A    -11.267443     6A    -11.261802
       7A    -11.243978     8A    -11.236612     9A     -1.447974
      10A     -1.253156    11A     -1.092472    12A     -1.043723
      13A     -0.948442    14A     -0.869182    15A     -0.827724
      16A     -0.736803    17A     -0.693593    18A     -0.674062
      19A     -0.673519    20A     -0.625433    21A     -0.615371
      22A     -0.574669    23A     -0.545903    24A     -0.539909
      25A     -0.485015    26A     -0.461900    27A     -0.430469
      28A     -0.388622    29A     -0.328147

  @DF-RHF Final Energy:  -360.70481665161657

   => Energetics <=

    Nuclear Repulsion Energy =            352.5012620824370515
    One-Electron Energy =               -1188.3437073133711692
    Two-Electron Energy =                 475.1376285793175498
    Total Energy =                       -360.7048166516165679
  Basis Set: (AUG-CC-PVTZ AUX)
    Blend: AUG-CC-PVTZ-RI
    Molecular point group: c1

    Geometry (in Angstrom), charge = 0, multiplicity = 1:

       Center              X                  Y                   Z               Mass
    ------------   -----------------  -----------------  -----------------  -----------------
         O            1.762407745746    -0.569110653665    -0.000000851008    15.994914619570
         N            0.146489245746     0.995714446335     0.000002748992    14.003074004430
         C            0.429668245746    -0.305281553665    -0.000000251008    12.000000000000
         C           -0.538605754254    -1.324042553665    -0.000003251008    12.000000000000
         C           -1.872009754254    -0.947551553665    -0.000002251008    12.000000000000
         C           -2.197396754254     0.415699446335     0.000001748992    12.000000000000
         C           -1.160573754254     1.338496446335     0.000003748992    12.000000000000
         C            2.701992245746     0.346261446335    -0.000001251008    12.000000000000
         H           -0.224630754254    -2.362882553665    -0.000005251008     1.007825032230
         H           -2.652938754254    -1.704011553665    -0.000003251008     1.007825032230
         H           -3.230430754254     0.749458446335     0.000001748992     1.007825032230
         H           -1.362412754254     2.408031446335     0.000005748992     1.007825032230
         H            2.599314245746     0.973017446335     0.888289748992     1.007825032230
         H            2.599308245746     0.973022446335    -0.888289251008     1.007825032230
         H            3.663148245746    -0.166610553665    -0.000006251008     1.007825032230

  Basis Set: AUG-CC-PVTZ
    Blend: AUG-CC-PVTZ
  Basis Set: (AUG-CC-PVTZ AUX)
    Blend: AUG-CC-PVTZ-JKFIT
	 Reference Energy          =    -360.7048166516165679 [Eh]
	 Singles Energy            =      -0.0000000000000000 [Eh]
	 Same-Spin Energy          =      -0.3784755603197147 [Eh]
	 Opposite-Spin Energy      =      -1.1762319878146026 [Eh]
	 Correlation Energy        =      -1.5547075481343173 [Eh]
	 Total Energy              =    -362.2595241997508992 [Eh]

	 ================> DF-SCS-MP2 Energies <==================
	-----------------------------------------------------------
	 SCS Same-Spin Scale       =       0.3333333333333333 [-]
	 SCS Opposite-Spin Scale   =       1.2000000000000000 [-]
	 SCS Same-Spin Energy      =      -0.1261585201065716 [Eh]
	 SCS Opposite-Spin Energy  =      -1.4114783853775230 [Eh]
	 SCS Correlation Energy    =      -1.5376369054840946 [Eh]
	 SCS Total Energy          =    -362.2424535571006459 [Eh]
	-----------------------------------------------------------

  Dipole Moment: [D]
     X:    -1.1861      Y:    -0.5980      Z:    -0.0000     Total:     1.3283

*** Psi4 exiting successfully. Buy a developer a beer!
