                               Psi4 1.3.2 release

  ==> Input File <==

--------------------------------------------------------------------------
#psi4
#
memory 32 gb

molecule  {
0 1
  O        1.7203660    -0.6953490    -0.0000010
  N        0.1393260     1.0073400     0.0000030
  C        0.3799683    -0.0982318     0.0000005
  C       -0.5457690    -1.3124170    -0.0000030
  C       -1.8791730    -0.9359260    -0.0000020
  C       -2.2045600     0.4273250     0.0000020
  C       -1.1677370     1.3501220     0.0000040
  C        2.6948290     0.3578870    -0.0000010
  H       -0.2317940    -2.3512570    -0.0000050
  H       -2.6601020    -1.6923860    -0.0000030
  H       -3.2375940     0.7610840     0.0000020
  H       -1.3695760     2.4196570     0.0000060
  H        2.5921510     0.9846430     0.8882900
  H        2.5921450     0.9846480    -0.8882890
  H        3.6559850    -0.1549850    -0.0000060
units angstrom
no_reorient  #important for SAPT in psi4, default
symmetry c1  #important for SAPT in psi4, default
}

set PROPERTIES_ORIGIN ["COM"]
properties('MP2/aug-cc-pvtz', properties = ['dipole'])
--------------------------------------------------------------------------

    Molecular point group: c1
  Charge       = 0
  Multiplicity = 1
  Basis Set: AUG-CC-PVTZ
    Blend: AUG-CC-PVTZ
  Basis Set: (AUG-CC-PVTZ AUX)
    Blend: AUG-CC-PVTZ-JKFIT

    Orbital Energies [Eh]
    ---------------------

    Doubly Occupied:

       1A    -20.568660     2A    -15.556381     3A    -11.327786
       4A    -11.286622     5A    -11.261587     6A    -11.258125
       7A    -11.252994     8A    -11.245064     9A     -1.389770
      10A     -1.312459    11A     -1.104454    12A     -1.020608
      13A     -0.926165    14A     -0.885036    15A     -0.816449
      16A     -0.728201    17A     -0.690487    18A     -0.664146
      19A     -0.644099    20A     -0.616018    21A     -0.591947
      22A     -0.571286    23A     -0.558739    24A     -0.540116
      25A     -0.502254    26A     -0.460172    27A     -0.425799
      28A     -0.413860    29A     -0.326996

  @DF-RHF Final Energy:  -360.65378496250577

   => Energetics <=

    Nuclear Repulsion Energy =            351.7901392372453415
    One-Electron Energy =               -1186.9952908728487273
    Two-Electron Energy =                 474.5513666730976752
    Total Energy =                       -360.6537849625057675
  Basis Set: (AUG-CC-PVTZ AUX)
    Blend: AUG-CC-PVTZ-RI
    Molecular point group: c1

    Geometry (in Angstrom), charge = 0, multiplicity = 1:

       Center              X                  Y                   Z               Mass
    ------------   -----------------  -----------------  -----------------  -----------------
         O            1.737325595621    -0.708258052454    -0.000001247359    15.994914619570
         N            0.156285595621     0.994430947546     0.000002752641    14.003074004430
         C            0.396927895621    -0.111140852454     0.000000252641    12.000000000000
         C           -0.528809404379    -1.325326052454    -0.000003247359    12.000000000000
         C           -1.862213404379    -0.948835052454    -0.000002247359    12.000000000000
         C           -2.187600404379     0.414415947546     0.000001752641    12.000000000000
         C           -1.150777404379     1.337212947546     0.000003752641    12.000000000000
         C            2.711788595621     0.344977947546    -0.000001247359    12.000000000000
         H           -0.214834404379    -2.364166052454    -0.000005247359     1.007825032230
         H           -2.643142404379    -1.705295052454    -0.000003247359     1.007825032230
         H           -3.220634404379     0.748174947546     0.000001752641     1.007825032230
         H           -1.352616404379     2.406747947546     0.000005752641     1.007825032230
         H            2.609110595621     0.971733947546     0.888289752641     1.007825032230
         H            2.609104595621     0.971738947546    -0.888289247359     1.007825032230
         H            3.672944595621    -0.167894052454    -0.000006247359     1.007825032230

  Basis Set: AUG-CC-PVTZ
    Blend: AUG-CC-PVTZ
  Basis Set: (AUG-CC-PVTZ AUX)
    Blend: AUG-CC-PVTZ-JKFIT
	 Reference Energy          =    -360.6537849625057675 [Eh]
	 Singles Energy            =      -0.0000000000000000 [Eh]
	 Same-Spin Energy          =      -0.3769005705530319 [Eh]
	 Opposite-Spin Energy      =      -1.1801283462617298 [Eh]
	 Correlation Energy        =      -1.5570289168147617 [Eh]
	 Total Energy              =    -362.2108138793205399 [Eh]

	 ================> DF-SCS-MP2 Energies <==================
	-----------------------------------------------------------
	 SCS Same-Spin Scale       =       0.3333333333333333 [-]
	 SCS Opposite-Spin Scale   =       1.2000000000000000 [-]
	 SCS Same-Spin Energy      =      -0.1256335235176773 [Eh]
	 SCS Opposite-Spin Energy  =      -1.4161540155140757 [Eh]
	 SCS Correlation Energy    =      -1.5417875390317530 [Eh]
	 SCS Total Energy          =    -362.1955725015375265 [Eh]
	-----------------------------------------------------------

  Dipole Moment: [D]
     X:    -1.5305      Y:     0.1321      Z:    -0.0000     Total:     1.5362

*** Psi4 exiting successfully. Buy a developer a beer!
