                               Psi4 1.3.2 release

  ==> Input File <==

--------------------------------------------------------------------------
#psi4
#
memory 32 gb

molecule  {
0 1
  O        1.7203660    -0.6953490    -0.0000010
  N        0.1393260     1.0073400     0.0000030
  C        0.2314467    -0.2345227     0.0000001
  C       -0.5457690    -1.3124170    -0.0000030
  C       -1.8791730    -0.9359260    -0.0000020
  C       -2.2045600     0.4273250     0.0000020
  C       -1.1677370     1.3501220     0.0000040
  C        2.6948290     0.3578870    -0.0000010
  H       -0.2317940    -2.3512570    -0.0000050
  H       -2.6601020    -1.6923860    -0.0000030
  H       -3.2375940     0.7610840     0.0000020
  H       -1.3695760     2.4196570     0.0000060
  H        2.5921510     0.9846430     0.8882900
  H        2.5921450     0.9846480    -0.8882890
  H        3.6559850    -0.1549850    -0.0000060
units angstrom
no_reorient  #important for SAPT in psi4, default
symmetry c1  #important for SAPT in psi4, default
}

set PROPERTIES_ORIGIN ["COM"]
properties('MP2/aug-cc-pvtz', properties = ['dipole'])
--------------------------------------------------------------------------

    Molecular point group: c1
  Charge       = 0
  Multiplicity = 1
  Basis Set: AUG-CC-PVTZ
    Blend: AUG-CC-PVTZ
  Basis Set: (AUG-CC-PVTZ AUX)
    Blend: AUG-CC-PVTZ-JKFIT

    Orbital Energies [Eh]
    ---------------------

    Doubly Occupied:

       1A    -20.544215     2A    -15.575747     3A    -11.331313
       4A    -11.294337     5A    -11.275300     6A    -11.250683
       7A    -11.247732     8A    -11.244552     9A     -1.351639
      10A     -1.279471    11A     -1.120233    12A     -1.042933
      13A     -0.911696    14A     -0.882961    15A     -0.836850
      16A     -0.729218    17A     -0.689561    18A     -0.658175
      19A     -0.620942    20A     -0.612953    21A     -0.601711
      22A     -0.565444    23A     -0.555472    24A     -0.537332
      25A     -0.474875    26A     -0.445451    27A     -0.442541
      28A     -0.404690    29A     -0.348494

  @DF-RHF Final Energy:  -360.67006314741946

   => Energetics <=

    Nuclear Repulsion Energy =            351.2666424028075767
    One-Electron Energy =               -1186.1203703775531721
    Two-Electron Energy =                 474.1836648273261972
    Total Energy =                       -360.6700631474194552
  Basis Set: (AUG-CC-PVTZ AUX)
    Blend: AUG-CC-PVTZ-RI
    Molecular point group: c1

    Geometry (in Angstrom), charge = 0, multiplicity = 1:

       Center              X                  Y                   Z               Mass
    ------------   -----------------  -----------------  -----------------  -----------------
         O            1.753668686223    -0.693260809447    -0.000001203344    15.994914619570
         N            0.172628686223     1.009428190553     0.000002796656    14.003074004430
         C            0.264749386223    -0.232434509447    -0.000000103344    12.000000000000
         C           -0.512466313777    -1.310328809447    -0.000003203344    12.000000000000
         C           -1.845870313777    -0.933837809447    -0.000002203344    12.000000000000
         C           -2.171257313777     0.429413190553     0.000001796656    12.000000000000
         C           -1.134434313777     1.352210190553     0.000003796656    12.000000000000
         C            2.728131686223     0.359975190553    -0.000001203344    12.000000000000
         H           -0.198491313777    -2.349168809447    -0.000005203344     1.007825032230
         H           -2.626799313777    -1.690297809447    -0.000003203344     1.007825032230
         H           -3.204291313777     0.763172190553     0.000001796656     1.007825032230
         H           -1.336273313777     2.421745190553     0.000005796656     1.007825032230
         H            2.625453686223     0.986731190553     0.888289796656     1.007825032230
         H            2.625447686223     0.986736190553    -0.888289203344     1.007825032230
         H            3.689287686223    -0.152896809447    -0.000006203344     1.007825032230

  Basis Set: AUG-CC-PVTZ
    Blend: AUG-CC-PVTZ
  Basis Set: (AUG-CC-PVTZ AUX)
    Blend: AUG-CC-PVTZ-JKFIT
	 Reference Energy          =    -360.6700631474194552 [Eh]
	 Singles Energy            =      -0.0000000000000000 [Eh]
	 Same-Spin Energy          =      -0.3804696034897024 [Eh]
	 Opposite-Spin Energy      =      -1.1831539891785052 [Eh]
	 Correlation Energy        =      -1.5636235926682076 [Eh]
	 Total Energy              =    -362.2336867400876486 [Eh]

	 ================> DF-SCS-MP2 Energies <==================
	-----------------------------------------------------------
	 SCS Same-Spin Scale       =       0.3333333333333333 [-]
	 SCS Opposite-Spin Scale   =       1.2000000000000000 [-]
	 SCS Same-Spin Energy      =      -0.1268232011632341 [Eh]
	 SCS Opposite-Spin Energy  =      -1.4197847870142062 [Eh]
	 SCS Correlation Energy    =      -1.5466079881774404 [Eh]
	 SCS Total Energy          =    -362.2166711355968687 [Eh]
	-----------------------------------------------------------

  Dipole Moment: [D]
     X:    -2.4856      Y:    -0.0354      Z:    -0.0000     Total:     2.4858

*** Psi4 exiting successfully. Buy a developer a beer!
