                               Psi4 1.3.2 release

  ==> Input File <==

--------------------------------------------------------------------------
#psi4
#
memory 32 gb

molecule  {
0 1
  O        1.7131578    -0.7179386    -0.0000011
  N        0.1393260     1.0073400     0.0000030
  C        0.4225050    -0.2936560     0.0000000
  C       -0.5457690    -1.3124170    -0.0000030
  C       -1.8791730    -0.9359260    -0.0000020
  C       -2.2045600     0.4273250     0.0000020
  C       -1.1677370     1.3501220     0.0000040
  C        2.6948290     0.3578870    -0.0000010
  H       -0.2317940    -2.3512570    -0.0000050
  H       -2.6601020    -1.6923860    -0.0000030
  H       -3.2375940     0.7610840     0.0000020
  H       -1.3695760     2.4196570     0.0000060
  H        2.5921510     0.9846430     0.8882900
  H        2.5921450     0.9846480    -0.8882890
  H        3.6559850    -0.1549850    -0.0000060
units angstrom
no_reorient  #important for SAPT in psi4, default
symmetry c1  #important for SAPT in psi4, default
}

set PROPERTIES_ORIGIN ["COM"]
properties('MP2/aug-cc-pvtz', properties = ['dipole'])
--------------------------------------------------------------------------

    Molecular point group: c1
  Charge       = 0
  Multiplicity = 1
  Basis Set: AUG-CC-PVTZ
    Blend: AUG-CC-PVTZ
  Basis Set: (AUG-CC-PVTZ AUX)
    Blend: AUG-CC-PVTZ-JKFIT

    Orbital Energies [Eh]
    ---------------------

    Doubly Occupied:

       1A    -20.589644     2A    -15.561540     3A    -11.337580
       4A    -11.280693     5A    -11.277171     6A    -11.261913
       7A    -11.235560     8A    -11.233124     9A     -1.413046
      10A     -1.247280    11A     -1.088531    12A     -1.028941
      13A     -0.944591    14A     -0.862604    15A     -0.830006
      16A     -0.725196    17A     -0.684016    18A     -0.666354
      19A     -0.650425    20A     -0.618681    21A     -0.595296
      22A     -0.558696    23A     -0.546494    24A     -0.538521
      25A     -0.516420    26A     -0.480535    27A     -0.426794
      28A     -0.386065    29A     -0.324612

  @DF-RHF Final Energy:  -360.71421256958502

   => Energetics <=

    Nuclear Repulsion Energy =            350.1696343086129559
    One-Electron Energy =               -1183.9470363992807052
    Two-Electron Energy =                 473.0631895210826769
    Total Energy =                       -360.7142125695850154
  Basis Set: (AUG-CC-PVTZ AUX)
    Blend: AUG-CC-PVTZ-RI
    Molecular point group: c1

    Geometry (in Angstrom), charge = 0, multiplicity = 1:

       Center              X                  Y                   Z               Mass
    ------------   -----------------  -----------------  -----------------  -----------------
         O            1.726493958282    -0.706030224378    -0.000001277673    15.994914619570
         N            0.152662158282     1.019248375622     0.000002822327    14.003074004430
         C            0.435841158282    -0.281747624378    -0.000000177673    12.000000000000
         C           -0.532432841718    -1.300508624378    -0.000003177673    12.000000000000
         C           -1.865836841718    -0.924017624378    -0.000002177673    12.000000000000
         C           -2.191223841718     0.439233375622     0.000001822327    12.000000000000
         C           -1.154400841718     1.362030375622     0.000003822327    12.000000000000
         C            2.708165158282     0.369795375622    -0.000001177673    12.000000000000
         H           -0.218457841718    -2.339348624378    -0.000005177673     1.007825032230
         H           -2.646765841718    -1.680477624378    -0.000003177673     1.007825032230
         H           -3.224257841718     0.772992375622     0.000001822327     1.007825032230
         H           -1.356239841718     2.431565375622     0.000005822327     1.007825032230
         H            2.605487158282     0.996551375622     0.888289822327     1.007825032230
         H            2.605481158282     0.996556375622    -0.888289177673     1.007825032230
         H            3.669321158282    -0.143076624378    -0.000006177673     1.007825032230

  Basis Set: AUG-CC-PVTZ
    Blend: AUG-CC-PVTZ
  Basis Set: (AUG-CC-PVTZ AUX)
    Blend: AUG-CC-PVTZ-JKFIT
	 Reference Energy          =    -360.7142125695850154 [Eh]
	 Singles Energy            =      -0.0000000000000000 [Eh]
	 Same-Spin Energy          =      -0.3789276583202697 [Eh]
	 Opposite-Spin Energy      =      -1.1796681388164170 [Eh]
	 Correlation Energy        =      -1.5585957971366866 [Eh]
	 Total Energy              =    -362.2728083667216765 [Eh]

	 ================> DF-SCS-MP2 Energies <==================
	-----------------------------------------------------------
	 SCS Same-Spin Scale       =       0.3333333333333333 [-]
	 SCS Opposite-Spin Scale   =       1.2000000000000000 [-]
	 SCS Same-Spin Energy      =      -0.1263092194400899 [Eh]
	 SCS Opposite-Spin Energy  =      -1.4156017665797003 [Eh]
	 SCS Correlation Energy    =      -1.5419109860197902 [Eh]
	 SCS Total Energy          =    -362.2561235556048018 [Eh]
	-----------------------------------------------------------

  Dipole Moment: [D]
     X:    -0.7162      Y:    -0.1986      Z:    -0.0000     Total:     0.7432

*** Psi4 exiting successfully. Buy a developer a beer!
