                               Psi4 1.3.2 release

  ==> Input File <==

--------------------------------------------------------------------------
#psi4
#
memory 32 gb

molecule  {
0 1
  O        1.7203660    -0.6953490    -0.0000010
  N        0.1393260     1.0073400     0.0000030
  C        0.4092767    -0.3391954    -0.0000000
  C       -0.5457690    -1.3124170    -0.0000030
  C       -1.8791730    -0.9359260    -0.0000020
  C       -2.2045600     0.4273250     0.0000020
  C       -1.1677370     1.3501220     0.0000040
  C        2.6948290     0.3578870    -0.0000010
  H       -0.2317940    -2.3512570    -0.0000050
  H       -2.6601020    -1.6923860    -0.0000030
  H       -3.2375940     0.7610840     0.0000020
  H       -1.3695760     2.4196570     0.0000060
  H        2.5921510     0.9846430     0.8882900
  H        2.5921450     0.9846480    -0.8882890
  H        3.6559850    -0.1549850    -0.0000060
units angstrom
no_reorient  #important for SAPT in psi4, default
symmetry c1  #important for SAPT in psi4, default
}

set PROPERTIES_ORIGIN ["COM"]
properties('MP2/aug-cc-pvtz', properties = ['dipole'])
--------------------------------------------------------------------------

    Molecular point group: c1
  Charge       = 0
  Multiplicity = 1
  Basis Set: AUG-CC-PVTZ
    Blend: AUG-CC-PVTZ
  Basis Set: (AUG-CC-PVTZ AUX)
    Blend: AUG-CC-PVTZ-JKFIT

    Orbital Energies [Eh]
    ---------------------

    Doubly Occupied:

       1A    -20.586281     2A    -15.564089     3A    -11.337020
       4A    -11.281245     5A    -11.274893     6A    -11.265133
       7A    -11.233668     8A    -11.232309     9A     -1.414153
      10A     -1.238974    11A     -1.089800    12A     -1.034771
      13A     -0.944499    14A     -0.862665    15A     -0.831136
      16A     -0.726303    17A     -0.683732    18A     -0.666013
      19A     -0.651118    20A     -0.621192    21A     -0.598934
      22A     -0.563945    23A     -0.544468    24A     -0.537364
      25A     -0.508068    26A     -0.477791    27A     -0.427939
      28A     -0.383780    29A     -0.327768

  @DF-RHF Final Energy:  -360.71162004695884

   => Energetics <=

    Nuclear Repulsion Energy =            350.2919469204190932
    One-Electron Energy =               -1184.1890304481926250
    Two-Electron Energy =                 473.1854634808146329
    Total Energy =                       -360.7116200469588421
  Basis Set: (AUG-CC-PVTZ AUX)
    Blend: AUG-CC-PVTZ-RI
    Molecular point group: c1

    Geometry (in Angstrom), charge = 0, multiplicity = 1:

       Center              X                  Y                   Z               Mass
    ------------   -----------------  -----------------  -----------------  -----------------
         O            1.734100543934    -0.681742785001    -0.000001192340    15.994914619570
         N            0.153060543934     1.020946214999     0.000002807660    14.003074004430
         C            0.423011243934    -0.325589185001    -0.000000192340    12.000000000000
         C           -0.532034456066    -1.298810785001    -0.000003192340    12.000000000000
         C           -1.865438456066    -0.922319785001    -0.000002192340    12.000000000000
         C           -2.190825456066     0.440931214999     0.000001807660    12.000000000000
         C           -1.154002456066     1.363728214999     0.000003807660    12.000000000000
         C            2.708563543934     0.371493214999    -0.000001192340    12.000000000000
         H           -0.218059456066    -2.337650785001    -0.000005192340     1.007825032230
         H           -2.646367456066    -1.678779785001    -0.000003192340     1.007825032230
         H           -3.223859456066     0.774690214999     0.000001807660     1.007825032230
         H           -1.355841456066     2.433263214999     0.000005807660     1.007825032230
         H            2.605885543934     0.998249214999     0.888289807660     1.007825032230
         H            2.605879543934     0.998254214999    -0.888289192340     1.007825032230
         H            3.669719543934    -0.141378785001    -0.000006192340     1.007825032230

  Basis Set: AUG-CC-PVTZ
    Blend: AUG-CC-PVTZ
  Basis Set: (AUG-CC-PVTZ AUX)
    Blend: AUG-CC-PVTZ-JKFIT
	 Reference Energy          =    -360.7116200469588421 [Eh]
	 Singles Energy            =      -0.0000000000000000 [Eh]
	 Same-Spin Energy          =      -0.3791511893738238 [Eh]
	 Opposite-Spin Energy      =      -1.1796089468114557 [Eh]
	 Correlation Energy        =      -1.5587601361852794 [Eh]
	 Total Energy              =    -362.2703801831441410 [Eh]

	 ================> DF-SCS-MP2 Energies <==================
	-----------------------------------------------------------
	 SCS Same-Spin Scale       =       0.3333333333333333 [-]
	 SCS Opposite-Spin Scale   =       1.2000000000000000 [-]
	 SCS Same-Spin Energy      =      -0.1263837297912746 [Eh]
	 SCS Opposite-Spin Energy  =      -1.4155307361737468 [Eh]
	 SCS Correlation Energy    =      -1.5419144659650215 [Eh]
	 SCS Total Energy          =    -362.2535345129238635 [Eh]
	-----------------------------------------------------------

  Dipole Moment: [D]
     X:    -0.8241      Y:    -0.2625      Z:    -0.0000     Total:     0.8649

*** Psi4 exiting successfully. Buy a developer a beer!
