                               Psi4 1.3.2 release

  ==> Input File <==

--------------------------------------------------------------------------
#psi4
#
memory 32 gb

molecule  {
0 1
  O        1.7203660    -0.6953490    -0.0000010
  N        0.1393260     1.0073400     0.0000030
  C        0.4373145    -0.2486060     0.0000000
  C       -0.5457690    -1.3124170    -0.0000030
  C       -1.8791730    -0.9359260    -0.0000020
  C       -2.2045600     0.4273250     0.0000020
  C       -1.1677370     1.3501220     0.0000040
  C        2.6948290     0.3578870    -0.0000010
  H       -0.2317940    -2.3512570    -0.0000050
  H       -2.6601020    -1.6923860    -0.0000030
  H       -3.2375940     0.7610840     0.0000020
  H       -1.3695760     2.4196570     0.0000060
  H        2.5921510     0.9846430     0.8882900
  H        2.5921450     0.9846480    -0.8882890
  H        3.6559850    -0.1549850    -0.0000060
units angstrom
no_reorient  #important for SAPT in psi4, default
symmetry c1  #important for SAPT in psi4, default
}

set PROPERTIES_ORIGIN ["COM"]
properties('MP2/aug-cc-pvtz', properties = ['dipole'])
--------------------------------------------------------------------------

    Molecular point group: c1
  Charge       = 0
  Multiplicity = 1
  Basis Set: AUG-CC-PVTZ
    Blend: AUG-CC-PVTZ
  Basis Set: (AUG-CC-PVTZ AUX)
    Blend: AUG-CC-PVTZ-JKFIT

    Orbital Energies [Eh]
    ---------------------

    Doubly Occupied:

       1A    -20.590314     2A    -15.558806     3A    -11.338806
       4A    -11.280544     5A    -11.274765     6A    -11.260030
       7A    -11.240530     8A    -11.233922     9A     -1.420210
      10A     -1.258181    11A     -1.089126    12A     -1.026563
      13A     -0.945243    14A     -0.865896    15A     -0.826233
      16A     -0.727577    17A     -0.687386    18A     -0.668131
      19A     -0.655513    20A     -0.618831    21A     -0.594930
      22A     -0.559652    23A     -0.548316    24A     -0.539471
      25A     -0.516881    26A     -0.478898    27A     -0.425178
      28A     -0.390025    29A     -0.322557

  @DF-RHF Final Energy:  -360.71390762339792

   => Energetics <=

    Nuclear Repulsion Energy =            350.6753830064535009
    One-Electron Energy =               -1184.8935497606578338
    Two-Electron Energy =                 473.5042591308063606
    Total Energy =                       -360.7139076233979154
  Basis Set: (AUG-CC-PVTZ AUX)
    Blend: AUG-CC-PVTZ-RI
    Molecular point group: c1

    Geometry (in Angstrom), charge = 0, multiplicity = 1:

       Center              X                  Y                   Z               Mass
    ------------   -----------------  -----------------  -----------------  -----------------
         O            1.731015307136    -0.691711104570    -0.000001192340    15.994914619570
         N            0.149975307136     1.010977895430     0.000002807660    14.003074004430
         C            0.447963807136    -0.244968104570    -0.000000192340    12.000000000000
         C           -0.535119692864    -1.308779104570    -0.000003192340    12.000000000000
         C           -1.868523692864    -0.932288104570    -0.000002192340    12.000000000000
         C           -2.193910692864     0.430962895430     0.000001807660    12.000000000000
         C           -1.157087692864     1.353759895430     0.000003807660    12.000000000000
         C            2.705478307136     0.361524895430    -0.000001192340    12.000000000000
         H           -0.221144692864    -2.347619104570    -0.000005192340     1.007825032230
         H           -2.649452692864    -1.688748104570    -0.000003192340     1.007825032230
         H           -3.226944692864     0.764721895430     0.000001807660     1.007825032230
         H           -1.358926692864     2.423294895430     0.000005807660     1.007825032230
         H            2.602800307136     0.988280895430     0.888289807660     1.007825032230
         H            2.602794307136     0.988285895430    -0.888289192340     1.007825032230
         H            3.666634307136    -0.151347104570    -0.000006192340     1.007825032230

  Basis Set: AUG-CC-PVTZ
    Blend: AUG-CC-PVTZ
  Basis Set: (AUG-CC-PVTZ AUX)
    Blend: AUG-CC-PVTZ-JKFIT
	 Reference Energy          =    -360.7139076233979154 [Eh]
	 Singles Energy            =      -0.0000000000000000 [Eh]
	 Same-Spin Energy          =      -0.3782703561149300 [Eh]
	 Opposite-Spin Energy      =      -1.1786567312568075 [Eh]
	 Correlation Energy        =      -1.5569270873717376 [Eh]
	 Total Energy              =    -362.2708347107696341 [Eh]

	 ================> DF-SCS-MP2 Energies <==================
	-----------------------------------------------------------
	 SCS Same-Spin Scale       =       0.3333333333333333 [-]
	 SCS Opposite-Spin Scale   =       1.2000000000000000 [-]
	 SCS Same-Spin Energy      =      -0.1260901187049767 [Eh]
	 SCS Opposite-Spin Energy  =      -1.4143880775081690 [Eh]
	 SCS Correlation Energy    =      -1.5404781962131455 [Eh]
	 SCS Total Energy          =    -362.2543858196110591 [Eh]
	-----------------------------------------------------------

  Dipole Moment: [D]
     X:    -0.7261      Y:    -0.2184      Z:    -0.0000     Total:     0.7583

*** Psi4 exiting successfully. Buy a developer a beer!
