                               Psi4 1.3.2 release

  ==> Input File <==

--------------------------------------------------------------------------
#psi4
#
memory 32 gb

molecule  {
0 1
  O        1.6716184    -0.6395386    -0.1306396
  N        0.1393260     1.0073400     0.0000030
  C        0.4225050    -0.2936560     0.0000000
  C       -0.5457690    -1.3124170    -0.0000030
  C       -1.8791730    -0.9359260    -0.0000020
  C       -2.2045600     0.4273250     0.0000020
  C       -1.1677370     1.3501220     0.0000040
  C        2.6948290     0.3578870    -0.0000010
  H       -0.2317940    -2.3512570    -0.0000050
  H       -2.6601020    -1.6923860    -0.0000030
  H       -3.2375940     0.7610840     0.0000020
  H       -1.3695760     2.4196570     0.0000060
  H        2.5921510     0.9846430     0.8882900
  H        2.5921450     0.9846480    -0.8882890
  H        3.6559850    -0.1549850    -0.0000060
units angstrom
no_reorient  #important for SAPT in psi4, default
symmetry c1  #important for SAPT in psi4, default
}

set PROPERTIES_ORIGIN ["COM"]
properties('MP2/aug-cc-pvtz', properties = ['dipole'])
--------------------------------------------------------------------------

    Molecular point group: c1
  Charge       = 0
  Multiplicity = 1
  Basis Set: AUG-CC-PVTZ
    Blend: AUG-CC-PVTZ
  Basis Set: (AUG-CC-PVTZ AUX)
    Blend: AUG-CC-PVTZ-JKFIT

    Orbital Energies [Eh]
    ---------------------

    Doubly Occupied:

       1A    -20.588529     2A    -15.554505     3A    -11.334414
       4A    -11.280336     5A    -11.277772     6A    -11.260444
       7A    -11.232628     8A    -11.228835     9A     -1.441023
      10A     -1.243203    11A     -1.086210    12A     -1.031547
      13A     -0.953077    14A     -0.863529    15A     -0.826431
      16A     -0.731264    17A     -0.690182    18A     -0.667874
      19A     -0.662546    20A     -0.618086    21A     -0.600514
      22A     -0.563886    23A     -0.545382    24A     -0.535803
      25A     -0.513547    26A     -0.480174    27A     -0.423196
      28A     -0.383522    29A     -0.319143

  @DF-RHF Final Energy:  -360.71343029967056

   => Energetics <=

    Nuclear Repulsion Energy =            352.1571126388258222
    One-Electron Energy =               -1187.8658844864439743
    Two-Electron Energy =                 474.9953415479476462
    Total Energy =                       -360.7134302996705628
  Basis Set: (AUG-CC-PVTZ AUX)
    Blend: AUG-CC-PVTZ-RI
    Molecular point group: c1

    Geometry (in Angstrom), charge = 0, multiplicity = 1:

       Center              X                  Y                   Z               Mass
    ------------   -----------------  -----------------  -----------------  -----------------
         O            1.691047197596    -0.639129257158    -0.111478854283    15.994914619570
         N            0.158754797596     1.007749342842     0.019163745717    14.003074004430
         C            0.441933797596    -0.293246657158     0.019160745717    12.000000000000
         C           -0.526340202404    -1.312007657158     0.019157745717    12.000000000000
         C           -1.859744202404    -0.935516657158     0.019158745717    12.000000000000
         C           -2.185131202404     0.427734342842     0.019162745717    12.000000000000
         C           -1.148308202404     1.350531342842     0.019164745717    12.000000000000
         C            2.714257797596     0.358296342842     0.019159745717    12.000000000000
         H           -0.212365202404    -2.350847657158     0.019155745717     1.007825032230
         H           -2.640673202404    -1.691976657158     0.019157745717     1.007825032230
         H           -3.218165202404     0.761493342842     0.019162745717     1.007825032230
         H           -1.350147202404     2.420066342842     0.019166745717     1.007825032230
         H            2.611579797596     0.985052342842     0.907450745717     1.007825032230
         H            2.611573797596     0.985057342842    -0.869128254283     1.007825032230
         H            3.675413797596    -0.154575657158     0.019154745717     1.007825032230

  Basis Set: AUG-CC-PVTZ
    Blend: AUG-CC-PVTZ
  Basis Set: (AUG-CC-PVTZ AUX)
    Blend: AUG-CC-PVTZ-JKFIT
	 Reference Energy          =    -360.7134302996705628 [Eh]
	 Singles Energy            =      -0.0000000000000000 [Eh]
	 Same-Spin Energy          =      -0.3783021381066856 [Eh]
	 Opposite-Spin Energy      =      -1.1772295012856304 [Eh]
	 Correlation Energy        =      -1.5555316393923160 [Eh]
	 Total Energy              =    -362.2689619390628764 [Eh]

	 ================> DF-SCS-MP2 Energies <==================
	-----------------------------------------------------------
	 SCS Same-Spin Scale       =       0.3333333333333333 [-]
	 SCS Opposite-Spin Scale   =       1.2000000000000000 [-]
	 SCS Same-Spin Energy      =      -0.1261007127022285 [Eh]
	 SCS Opposite-Spin Energy  =      -1.4126754015427565 [Eh]
	 SCS Correlation Energy    =      -1.5387761142449849 [Eh]
	 SCS Total Energy          =    -362.2522064139155304 [Eh]
	-----------------------------------------------------------

  Dipole Moment: [D]
     X:    -0.3446      Y:    -0.3518      Z:     0.1644     Total:     0.5192

*** Psi4 exiting successfully. Buy a developer a beer!
