                               Psi4 1.3.2 release

  ==> Input File <==

--------------------------------------------------------------------------
#psi4
#
memory 32 gb

molecule  {
0 1
  O        1.6891838    -0.7849047    -0.0000013
  N        0.1393260     1.0073400     0.0000030
  C        0.4225050    -0.2936560     0.0000000
  C       -0.5457690    -1.3124170    -0.0000030
  C       -1.8791730    -0.9359260    -0.0000020
  C       -2.2045600     0.4273250     0.0000020
  C       -1.1677370     1.3501220     0.0000040
  C        2.6948290     0.3578870    -0.0000010
  H       -0.2317940    -2.3512570    -0.0000050
  H       -2.6601020    -1.6923860    -0.0000030
  H       -3.2375940     0.7610840     0.0000020
  H       -1.3695760     2.4196570     0.0000060
  H        2.5921510     0.9846430     0.8882900
  H        2.5921450     0.9846480    -0.8882890
  H        3.6559850    -0.1549850    -0.0000060
units angstrom
no_reorient  #important for SAPT in psi4, default
symmetry c1  #important for SAPT in psi4, default
}

set PROPERTIES_ORIGIN ["COM"]
properties('MP2/aug-cc-pvtz', properties = ['dipole'])
--------------------------------------------------------------------------

    Molecular point group: c1
  Charge       = 0
  Multiplicity = 1
  Basis Set: AUG-CC-PVTZ
    Blend: AUG-CC-PVTZ
  Basis Set: (AUG-CC-PVTZ AUX)
    Blend: AUG-CC-PVTZ-JKFIT

    Orbital Energies [Eh]
    ---------------------

    Doubly Occupied:

       1A    -20.592642     2A    -15.561443     3A    -11.335560
       4A    -11.284488     5A    -11.279920     6A    -11.259525
       7A    -11.232176     8A    -11.231725     9A     -1.401773
      10A     -1.245400    11A     -1.086901    12A     -1.023636
      13A     -0.944709    14A     -0.860305    15A     -0.830217
      16A     -0.720347    17A     -0.681112    18A     -0.663288
      19A     -0.642988    20A     -0.616096    21A     -0.589622
      22A     -0.548437    23A     -0.548032    24A     -0.539187
      25A     -0.525280    26A     -0.485919    27A     -0.424907
      28A     -0.385013    29A     -0.322682

  @DF-RHF Final Energy:  -360.70551863305820

   => Energetics <=

    Nuclear Repulsion Energy =            349.3194881253223798
    One-Electron Energy =               -1182.3233548798771153
    Two-Electron Energy =                 472.2983481214965877
    Total Energy =                       -360.7055186330582046
  Basis Set: (AUG-CC-PVTZ AUX)
    Blend: AUG-CC-PVTZ-RI
    Molecular point group: c1

    Geometry (in Angstrom), charge = 0, multiplicity = 1:

       Center              X                  Y                   Z               Mass
    ------------   -----------------  -----------------  -----------------  -----------------
         O            1.706036256903    -0.763174316993    -0.000001448338    15.994914619570
         N            0.156178456903     1.029070383007     0.000002851662    14.003074004430
         C            0.439357456903    -0.271925616993    -0.000000148338    12.000000000000
         C           -0.528916543097    -1.290686616993    -0.000003148338    12.000000000000
         C           -1.862320543097    -0.914195616993    -0.000002148338    12.000000000000
         C           -2.187707543097     0.449055383007     0.000001851662    12.000000000000
         C           -1.150884543097     1.371852383007     0.000003851662    12.000000000000
         C            2.711681456903     0.379617383007    -0.000001148338    12.000000000000
         H           -0.214941543097    -2.329526616993    -0.000005148338     1.007825032230
         H           -2.643249543097    -1.670655616993    -0.000003148338     1.007825032230
         H           -3.220741543097     0.782814383007     0.000001851662     1.007825032230
         H           -1.352723543097     2.441387383007     0.000005851662     1.007825032230
         H            2.609003456903     1.006373383007     0.888289851662     1.007825032230
         H            2.608997456903     1.006378383007    -0.888289148338     1.007825032230
         H            3.672837456903    -0.133254616993    -0.000006148338     1.007825032230

  Basis Set: AUG-CC-PVTZ
    Blend: AUG-CC-PVTZ
  Basis Set: (AUG-CC-PVTZ AUX)
    Blend: AUG-CC-PVTZ-JKFIT
	 Reference Energy          =    -360.7055186330582046 [Eh]
	 Singles Energy            =      -0.0000000000000000 [Eh]
	 Same-Spin Energy          =      -0.3795520152434237 [Eh]
	 Opposite-Spin Energy      =      -1.1820103241286928 [Eh]
	 Correlation Energy        =      -1.5615623393721165 [Eh]
	 Total Energy              =    -362.2670809724303354 [Eh]

	 ================> DF-SCS-MP2 Energies <==================
	-----------------------------------------------------------
	 SCS Same-Spin Scale       =       0.3333333333333333 [-]
	 SCS Opposite-Spin Scale   =       1.2000000000000000 [-]
	 SCS Same-Spin Energy      =      -0.1265173384144746 [Eh]
	 SCS Opposite-Spin Energy  =      -1.4184123889544313 [Eh]
	 SCS Correlation Energy    =      -1.5449297273689060 [Eh]
	 SCS Total Energy          =    -362.2504483604271286 [Eh]
	-----------------------------------------------------------

  Dipole Moment: [D]
     X:    -0.5389      Y:    -0.0607      Z:    -0.0000     Total:     0.5423

*** Psi4 exiting successfully. Buy a developer a beer!
