                               Psi4 1.3.2 release

  ==> Input File <==

--------------------------------------------------------------------------
#psi4
#
memory 32 gb

molecule  {
0 1
  O        1.7390175    -0.7114148     0.0436160
  N        0.1393260     1.0073400     0.0000030
  C        0.4225050    -0.2936560     0.0000000
  C       -0.5457690    -1.3124170    -0.0000030
  C       -1.8791730    -0.9359260    -0.0000020
  C       -2.2045600     0.4273250     0.0000020
  C       -1.1677370     1.3501220     0.0000040
  C        2.6948290     0.3578870    -0.0000010
  H       -0.2317940    -2.3512570    -0.0000050
  H       -2.6601020    -1.6923860    -0.0000030
  H       -3.2375940     0.7610840     0.0000020
  H       -1.3695760     2.4196570     0.0000060
  H        2.5921510     0.9846430     0.8882900
  H        2.5921450     0.9846480    -0.8882890
  H        3.6559850    -0.1549850    -0.0000060
units angstrom
no_reorient  #important for SAPT in psi4, default
symmetry c1  #important for SAPT in psi4, default
}

set PROPERTIES_ORIGIN ["COM"]
properties('MP2/aug-cc-pvtz', properties = ['dipole'])
--------------------------------------------------------------------------

    Molecular point group: c1
  Charge       = 0
  Multiplicity = 1
  Basis Set: AUG-CC-PVTZ
    Blend: AUG-CC-PVTZ
  Basis Set: (AUG-CC-PVTZ AUX)
    Blend: AUG-CC-PVTZ-JKFIT

    Orbital Energies [Eh]
    ---------------------

    Doubly Occupied:

       1A    -20.588025     2A    -15.564183     3A    -11.339828
       4A    -11.282163     5A    -11.272644     6A    -11.263664
       7A    -11.238425     8A    -11.235520     9A     -1.408273
      10A     -1.249722    11A     -1.090241    12A     -1.030912
      13A     -0.941213    14A     -0.863639    15A     -0.831208
      16A     -0.725326    17A     -0.683640    18A     -0.666973
      19A     -0.649289    20A     -0.620072    21A     -0.597005
      22A     -0.562000    23A     -0.545689    24A     -0.539450
      25A     -0.511321    26A     -0.476503    27A     -0.428808
      28A     -0.387481    29A     -0.327700

  @DF-RHF Final Energy:  -360.71336734720097

   => Energetics <=

    Nuclear Repulsion Energy =            349.8277814252772373
    One-Electron Energy =               -1183.2404623943739352
    Two-Electron Energy =                 472.6993136218957829
    Total Energy =                       -360.7133673472009718
  Basis Set: (AUG-CC-PVTZ AUX)
    Blend: AUG-CC-PVTZ-RI
    Molecular point group: c1

    Geometry (in Angstrom), charge = 0, multiplicity = 1:

       Center              X                  Y                   Z               Mass
    ------------   -----------------  -----------------  -----------------  -----------------
         O            1.748560781522    -0.700463278843     0.037218443977    15.994914619570
         N            0.148869281522     1.018291521157    -0.006394556023    14.003074004430
         C            0.432048281522    -0.282704478843    -0.006397556023    12.000000000000
         C           -0.536225718478    -1.301465478843    -0.006400556023    12.000000000000
         C           -1.869629718478    -0.924974478843    -0.006399556023    12.000000000000
         C           -2.195016718478     0.438276521157    -0.006395556023    12.000000000000
         C           -1.158193718478     1.361073521157    -0.006393556023    12.000000000000
         C            2.704372281522     0.368838521157    -0.006398556023    12.000000000000
         H           -0.222250718478    -2.340305478843    -0.006402556023     1.007825032230
         H           -2.650558718478    -1.681434478843    -0.006400556023     1.007825032230
         H           -3.228050718478     0.772035521157    -0.006395556023     1.007825032230
         H           -1.360032718478     2.430608521157    -0.006391556023     1.007825032230
         H            2.601694281522     0.995594521157     0.881892443977     1.007825032230
         H            2.601688281522     0.995599521157    -0.894686556023     1.007825032230
         H            3.665528281522    -0.144033478843    -0.006403556023     1.007825032230

  Basis Set: AUG-CC-PVTZ
    Blend: AUG-CC-PVTZ
  Basis Set: (AUG-CC-PVTZ AUX)
    Blend: AUG-CC-PVTZ-JKFIT
	 Reference Energy          =    -360.7133673472009718 [Eh]
	 Singles Energy            =      -0.0000000000000000 [Eh]
	 Same-Spin Energy          =      -0.3790441933124036 [Eh]
	 Opposite-Spin Energy      =      -1.1798644949130810 [Eh]
	 Correlation Energy        =      -1.5589086882254846 [Eh]
	 Total Energy              =    -362.2722760354264437 [Eh]

	 ================> DF-SCS-MP2 Energies <==================
	-----------------------------------------------------------
	 SCS Same-Spin Scale       =       0.3333333333333333 [-]
	 SCS Opposite-Spin Scale   =       1.2000000000000000 [-]
	 SCS Same-Spin Energy      =      -0.1263480644374679 [Eh]
	 SCS Opposite-Spin Energy  =      -1.4158373938956972 [Eh]
	 SCS Correlation Energy    =      -1.5421854583331651 [Eh]
	 SCS Total Energy          =    -362.2555528055341370 [Eh]
	-----------------------------------------------------------

  Dipole Moment: [D]
     X:    -0.9561      Y:    -0.2132      Z:    -0.0589     Total:     0.9814

*** Psi4 exiting successfully. Buy a developer a beer!
