                               Psi4 1.3.2 release

  ==> Input File <==

--------------------------------------------------------------------------
#psi4
#
memory 32 gb

molecule  {
0 1
  O        1.7055565    -0.7403990    -0.0000011
  N        0.1393260     1.0073400     0.0000030
  C        0.4225050    -0.2936560     0.0000000
  C       -0.5457690    -1.3124170    -0.0000030
  C       -1.8791730    -0.9359260    -0.0000020
  C       -2.2045600     0.4273250     0.0000020
  C       -1.1677370     1.3501220     0.0000040
  C        2.6948290     0.3578870    -0.0000010
  H       -0.2317940    -2.3512570    -0.0000050
  H       -2.6601020    -1.6923860    -0.0000030
  H       -3.2375940     0.7610840     0.0000020
  H       -1.3695760     2.4196570     0.0000060
  H        2.5921510     0.9846430     0.8882900
  H        2.5921450     0.9846480    -0.8882890
  H        3.6559850    -0.1549850    -0.0000060
units angstrom
no_reorient  #important for SAPT in psi4, default
symmetry c1  #important for SAPT in psi4, default
}

set PROPERTIES_ORIGIN ["COM"]
properties('MP2/aug-cc-pvtz', properties = ['dipole'])
--------------------------------------------------------------------------

    Molecular point group: c1
  Charge       = 0
  Multiplicity = 1
  Basis Set: AUG-CC-PVTZ
    Blend: AUG-CC-PVTZ
  Basis Set: (AUG-CC-PVTZ AUX)
    Blend: AUG-CC-PVTZ-JKFIT

    Orbital Energies [Eh]
    ---------------------

    Doubly Occupied:

       1A    -20.590751     2A    -15.561508     3A    -11.336852
       4A    -11.280443     5A    -11.279577     6A    -11.261122
       7A    -11.234419     8A    -11.232654     9A     -1.409058
      10A     -1.246618    11A     -1.087989    12A     -1.027108
      13A     -0.944512    14A     -0.861796    15A     -0.830136
      16A     -0.723555    17A     -0.682987    18A     -0.665307
      19A     -0.647789    20A     -0.617810    21A     -0.593168
      22A     -0.555280    23A     -0.547022    24A     -0.538634
      25A     -0.519825    26A     -0.482526    27A     -0.426191
      28A     -0.385714    29A     -0.323992

  @DF-RHF Final Energy:  -360.71201236407370

   => Energetics <=

    Nuclear Repulsion Energy =            349.8757994953542720
    One-Electron Energy =               -1183.3869378034401052
    Two-Electron Energy =                 472.7991259440121325
    Total Energy =                       -360.7120123640737006
  Basis Set: (AUG-CC-PVTZ AUX)
    Blend: AUG-CC-PVTZ-RI
    Molecular point group: c1

    Geometry (in Angstrom), charge = 0, multiplicity = 1:

       Center              X                  Y                   Z               Mass
    ------------   -----------------  -----------------  -----------------  -----------------
         O            1.720007551112    -0.725196327493    -0.000001277673    15.994914619570
         N            0.153777051112     1.022542672507     0.000002822327    14.003074004430
         C            0.436956051112    -0.278453327493    -0.000000177673    12.000000000000
         C           -0.531317948888    -1.297214327493    -0.000003177673    12.000000000000
         C           -1.864721948888    -0.920723327493    -0.000002177673    12.000000000000
         C           -2.190108948888     0.442527672507     0.000001822327    12.000000000000
         C           -1.153285948888     1.365324672507     0.000003822327    12.000000000000
         C            2.709280051112     0.373089672507    -0.000001177673    12.000000000000
         H           -0.217342948888    -2.336054327493    -0.000005177673     1.007825032230
         H           -2.645650948888    -1.677183327493    -0.000003177673     1.007825032230
         H           -3.223142948888     0.776286672507     0.000001822327     1.007825032230
         H           -1.355124948888     2.434859672507     0.000005822327     1.007825032230
         H            2.606602051112     0.999845672507     0.888289822327     1.007825032230
         H            2.606596051112     0.999850672507    -0.888289177673     1.007825032230
         H            3.670436051112    -0.139782327493    -0.000006177673     1.007825032230

  Basis Set: AUG-CC-PVTZ
    Blend: AUG-CC-PVTZ
  Basis Set: (AUG-CC-PVTZ AUX)
    Blend: AUG-CC-PVTZ-JKFIT
	 Reference Energy          =    -360.7120123640737006 [Eh]
	 Singles Energy            =      -0.0000000000000000 [Eh]
	 Same-Spin Energy          =      -0.3791093938368655 [Eh]
	 Opposite-Spin Energy      =      -1.1803964116654253 [Eh]
	 Correlation Energy        =      -1.5595058055022908 [Eh]
	 Total Energy              =    -362.2715181695759838 [Eh]

	 ================> DF-SCS-MP2 Energies <==================
	-----------------------------------------------------------
	 SCS Same-Spin Scale       =       0.3333333333333333 [-]
	 SCS Opposite-Spin Scale   =       1.2000000000000000 [-]
	 SCS Same-Spin Energy      =      -0.1263697979456218 [Eh]
	 SCS Opposite-Spin Energy  =      -1.4164756939985104 [Eh]
	 SCS Correlation Energy    =      -1.5428454919441321 [Eh]
	 SCS Total Energy          =    -362.2548578560178498 [Eh]
	-----------------------------------------------------------

  Dipole Moment: [D]
     X:    -0.6557      Y:    -0.1505      Z:    -0.0000     Total:     0.6728

*** Psi4 exiting successfully. Buy a developer a beer!
