                               Psi4 1.3.2 release

  ==> Input File <==

--------------------------------------------------------------------------
#psi4
#
memory 32 gb

molecule  {
0 1
  O        1.6712678    -0.8288119    -0.0000014
  N        0.1393260     1.0073400     0.0000030
  C        0.4225050    -0.2936560     0.0000000
  C       -0.5457690    -1.3124170    -0.0000030
  C       -1.8791730    -0.9359260    -0.0000020
  C       -2.2045600     0.4273250     0.0000020
  C       -1.1677370     1.3501220     0.0000040
  C        2.6948290     0.3578870    -0.0000010
  H       -0.2317940    -2.3512570    -0.0000050
  H       -2.6601020    -1.6923860    -0.0000030
  H       -3.2375940     0.7610840     0.0000020
  H       -1.3695760     2.4196570     0.0000060
  H        2.5921510     0.9846430     0.8882900
  H        2.5921450     0.9846480    -0.8882890
  H        3.6559850    -0.1549850    -0.0000060
units angstrom
no_reorient  #important for SAPT in psi4, default
symmetry c1  #important for SAPT in psi4, default
}

set PROPERTIES_ORIGIN ["COM"]
properties('MP2/aug-cc-pvtz', properties = ['dipole'])
--------------------------------------------------------------------------

    Molecular point group: c1
  Charge       = 0
  Multiplicity = 1
  Basis Set: AUG-CC-PVTZ
    Blend: AUG-CC-PVTZ
  Basis Set: (AUG-CC-PVTZ AUX)
    Blend: AUG-CC-PVTZ-JKFIT

    Orbital Energies [Eh]
    ---------------------

    Doubly Occupied:

       1A    -20.594095     2A    -15.561371     3A    -11.334459
       4A    -11.289500     5A    -11.279363     6A    -11.257899
       7A    -11.230806     8A    -11.229979     9A     -1.395354
      10A     -1.244308    11A     -1.085799    12A     -1.020398
      13A     -0.945363    14A     -0.858983    15A     -0.830053
      16A     -0.717264    17A     -0.679447    18A     -0.661396
      19A     -0.638795    20A     -0.614434    21A     -0.586881
      22A     -0.550313    23A     -0.544680    24A     -0.536401
      25A     -0.528475    26A     -0.488530    27A     -0.423496
      28A     -0.384311    29A     -0.321286

  @DF-RHF Final Energy:  -360.69657254098831

   => Energetics <=

    Nuclear Repulsion Energy =            348.8056652065905041
    One-Electron Energy =               -1181.3375991558934857
    Two-Electron Energy =                 471.8353614083147249
    Total Energy =                       -360.6965725409883134
  Basis Set: (AUG-CC-PVTZ AUX)
    Blend: AUG-CC-PVTZ-RI
    Molecular point group: c1

    Geometry (in Angstrom), charge = 0, multiplicity = 1:

       Center              X                  Y                   Z               Mass
    ------------   -----------------  -----------------  -----------------  -----------------
         O            1.690748020567    -0.800641589288    -0.000001533671    15.994914619570
         N            0.158806220567     1.035510310712     0.000002866329    14.003074004430
         C            0.441985220567    -0.265485689288    -0.000000133671    12.000000000000
         C           -0.526288779433    -1.284246689288    -0.000003133671    12.000000000000
         C           -1.859692779433    -0.907755689288    -0.000002133671    12.000000000000
         C           -2.185079779433     0.455495310712     0.000001866329    12.000000000000
         C           -1.148256779433     1.378292310712     0.000003866329    12.000000000000
         C            2.714309220567     0.386057310712    -0.000001133671    12.000000000000
         H           -0.212313779433    -2.323086689288    -0.000005133671     1.007825032230
         H           -2.640621779433    -1.664215689288    -0.000003133671     1.007825032230
         H           -3.218113779433     0.789254310712     0.000001866329     1.007825032230
         H           -1.350095779433     2.447827310712     0.000005866329     1.007825032230
         H            2.611631220567     1.012813310712     0.888289866329     1.007825032230
         H            2.611625220567     1.012818310712    -0.888289133671     1.007825032230
         H            3.675465220567    -0.126814689288    -0.000006133671     1.007825032230

  Basis Set: AUG-CC-PVTZ
    Blend: AUG-CC-PVTZ
  Basis Set: (AUG-CC-PVTZ AUX)
    Blend: AUG-CC-PVTZ-JKFIT
	 Reference Energy          =    -360.6965725409883134 [Eh]
	 Singles Energy            =      -0.0000000000000000 [Eh]
	 Same-Spin Energy          =      -0.3800930125662770 [Eh]
	 Opposite-Spin Energy      =      -1.1838181356675896 [Eh]
	 Correlation Energy        =      -1.5639111482338666 [Eh]
	 Total Energy              =    -362.2604836892221556 [Eh]

	 ================> DF-SCS-MP2 Energies <==================
	-----------------------------------------------------------
	 SCS Same-Spin Scale       =       0.3333333333333333 [-]
	 SCS Opposite-Spin Scale   =       1.2000000000000000 [-]
	 SCS Same-Spin Energy      =      -0.1266976708554257 [Eh]
	 SCS Opposite-Spin Energy  =      -1.4205817628011075 [Eh]
	 SCS Correlation Energy    =      -1.5472794336565332 [Eh]
	 SCS Total Energy          =    -362.2438519746448264 [Eh]
	-----------------------------------------------------------

  Dipole Moment: [D]
     X:    -0.4275      Y:     0.0209      Z:    -0.0000     Total:     0.4280

*** Psi4 exiting successfully. Buy a developer a beer!
