                               Psi4 1.4a3.dev225

  ==> Input File <==

--------------------------------------------------------------------------
#psi4
#
memory 32 gb

molecule  {
0 1
  O        1.7203660    -0.6953490    -0.0000010
  N        0.1393260     1.0073400     0.0000030
  C        0.4033992    -0.2877427     0.0000000
  C       -0.5457690    -1.3124170    -0.0000030
  C       -1.8791730    -0.9359260    -0.0000020
  C       -2.2045600     0.4273250     0.0000020
  C       -1.1677370     1.3501220     0.0000040
  C        2.6948290     0.3578870    -0.0000010
  H       -0.2317940    -2.3512570    -0.0000050
  H       -2.6601020    -1.6923860    -0.0000030
  H       -3.2375940     0.7610840     0.0000020
  H       -1.3695760     2.4196570     0.0000060
  H        2.5921510     0.9846430     0.8882900
  H        2.5921450     0.9846480    -0.8882890
  H        3.6559850    -0.1549850    -0.0000060
units angstrom
no_reorient  #important for SAPT in psi4, default
symmetry c1  #important for SAPT in psi4, default
}

set PROPERTIES_ORIGIN ["COM"]
properties('MP2/aug-cc-pvtz', properties = ['dipole'])
--------------------------------------------------------------------------

    Molecular point group: c1
  Charge       = 0
  Multiplicity = 1
  Basis Set: AUG-CC-PVTZ
    Blend: AUG-CC-PVTZ
  Basis Set: (AUG-CC-PVTZ AUX)
    Blend: AUG-CC-PVTZ-JKFIT

    Orbital Energies [Eh]
    ---------------------

    Doubly Occupied:

       1A    -20.584037     2A    -15.562977     3A    -11.336942
       4A    -11.282154     5A    -11.272223     6A    -11.263897
       7A    -11.237367     8A    -11.235228     9A     -1.407500
      10A     -1.252346    11A     -1.091858    12A     -1.031832
      13A     -0.940946    14A     -0.865643    15A     -0.830551
      16A     -0.725360    17A     -0.684604    18A     -0.666120
      19A     -0.648752    20A     -0.619878    21A     -0.598254
      22A     -0.561409    23A     -0.547551    24A     -0.539490
      25A     -0.507946    26A     -0.475103    27A     -0.431312
      28A     -0.388180    29A     -0.327932

  @DF-RHF Final Energy:  -360.71496662777696

   => Energetics <=

    Nuclear Repulsion Energy =            350.5222859757302558
    One-Electron Energy =               -1184.6397227605259559
    Two-Electron Energy =                 473.4024701570187403
    Total Energy =                       -360.7149666277769597
  Basis Set: (AUG-CC-PVTZ AUX)
    Blend: AUG-CC-PVTZ-RI
    Molecular point group: c1

    Geometry (in Angstrom), charge = 0, multiplicity = 1:

       Center              X                  Y                   Z               Mass
    ------------   -----------------  -----------------  -----------------  -----------------
         O            1.734747295080    -0.687404561724    -0.000001192340    15.994914619570
         N            0.153707295080     1.015284438276     0.000002807660    14.003074004430
         C            0.417780495080    -0.279798261724    -0.000000192340    12.000000000000
         C           -0.531387704920    -1.304472561724    -0.000003192340    12.000000000000
         C           -1.864791704920    -0.927981561724    -0.000002192340    12.000000000000
         C           -2.190178704920     0.435269438276     0.000001807660    12.000000000000
         C           -1.153355704920     1.358066438276     0.000003807660    12.000000000000
         C            2.709210295080     0.365831438276    -0.000001192340    12.000000000000
         H           -0.217412704920    -2.343312561724    -0.000005192340     1.007825032230
         H           -2.645720704920    -1.684441561724    -0.000003192340     1.007825032230
         H           -3.223212704920     0.769028438276     0.000001807660     1.007825032230
         H           -1.355194704920     2.427601438276     0.000005807660     1.007825032230
         H            2.606532295080     0.992587438276     0.888289807660     1.007825032230
         H            2.606526295080     0.992592438276    -0.888289192340     1.007825032230
         H            3.670366295080    -0.147040561724    -0.000006192340     1.007825032230

  Basis Set: AUG-CC-PVTZ
    Blend: AUG-CC-PVTZ
  Basis Set: (AUG-CC-PVTZ AUX)
    Blend: AUG-CC-PVTZ-JKFIT
	 Reference Energy          =    -360.7149666277769597 [Eh]
	 Singles Energy            =      -0.0000000000000000 [Eh]
	 Same-Spin Energy          =      -0.3788024795047183 [Eh]
	 Opposite-Spin Energy      =      -1.1791602621645190 [Eh]
	 Correlation Energy        =      -1.5579627416692374 [Eh]
	 Total Energy              =    -362.2729293694462172 [Eh]

	 ================> DF-SCS-MP2 Energies <==================
	-----------------------------------------------------------
	 SCS Same-Spin Scale       =       0.3333333333333333 [-]
	 SCS Opposite-Spin Scale   =       1.2000000000000000 [-]
	 SCS Same-Spin Energy      =      -0.1262674931682394 [Eh]
	 SCS Opposite-Spin Energy  =      -1.4149923145974228 [Eh]
	 SCS Correlation Energy    =      -1.5412598077656623 [Eh]
	 SCS Total Energy          =    -362.2562264355426009 [Eh]
	-----------------------------------------------------------

  Dipole Moment: [D]
     X:    -0.9622      Y:    -0.2264      Z:    -0.0000     Total:     0.9885

*** Psi4 exiting successfully. Buy a developer a beer!
