                               Psi4 1.3.2 release

  ==> Input File <==

--------------------------------------------------------------------------
#psi4
#
memory 32 gb

molecule  {
0 1
  O        1.7203660    -0.6953490    -0.0000010
  N        0.1393260     1.0073400     0.0000030
  C        0.4716032    -0.1601931     0.0000000
  C       -0.5457690    -1.3124170    -0.0000030
  C       -1.8791730    -0.9359260    -0.0000020
  C       -2.2045600     0.4273250     0.0000020
  C       -1.1677370     1.3501220     0.0000040
  C        2.6948290     0.3578870    -0.0000010
  H       -0.2317940    -2.3512570    -0.0000050
  H       -2.6601020    -1.6923860    -0.0000030
  H       -3.2375940     0.7610840     0.0000020
  H       -1.3695760     2.4196570     0.0000060
  H        2.5921510     0.9846430     0.8882900
  H        2.5921450     0.9846480    -0.8882890
  H        3.6559850    -0.1549850    -0.0000060
units angstrom
no_reorient  #important for SAPT in psi4, default
symmetry c1  #important for SAPT in psi4, default
}

set PROPERTIES_ORIGIN ["COM"]
properties('MP2/aug-cc-pvtz', properties = ['dipole'])
--------------------------------------------------------------------------

    Molecular point group: c1
  Charge       = 0
  Multiplicity = 1
  Basis Set: AUG-CC-PVTZ
    Blend: AUG-CC-PVTZ
  Basis Set: (AUG-CC-PVTZ AUX)
    Blend: AUG-CC-PVTZ-JKFIT

    Orbital Energies [Eh]
    ---------------------

    Doubly Occupied:

       1A    -20.593443     2A    -15.553088     3A    -11.337512
       4A    -11.279615     5A    -11.274959     6A    -11.254060
       7A    -11.245641     8A    -11.235654     9A     -1.425679
      10A     -1.281533    11A     -1.090626    12A     -1.017999
      13A     -0.946609    14A     -0.872292    15A     -0.815966
      16A     -0.729849    17A     -0.693220    18A     -0.668159
      19A     -0.660858    20A     -0.618945    21A     -0.587317
      22A     -0.555644    23A     -0.554760    24A     -0.540422
      25A     -0.523827    26A     -0.480063    27A     -0.415648
      28A     -0.398819    29A     -0.317437

  @DF-RHF Final Energy:  -360.69259560869375

   => Energetics <=

    Nuclear Repulsion Energy =            351.1317161590285991
    One-Electron Energy =               -1185.7093321152908629
    Two-Electron Energy =                 473.8850203475684566
    Total Energy =                       -360.6925956086937504
  Basis Set: (AUG-CC-PVTZ AUX)
    Blend: AUG-CC-PVTZ-RI
    Molecular point group: c1

    Geometry (in Angstrom), charge = 0, multiplicity = 1:

       Center              X                  Y                   Z               Mass
    ------------   -----------------  -----------------  -----------------  -----------------
         O            1.727242230824    -0.701439925396    -0.000001192340    15.994914619570
         N            0.146202230824     1.001249074604     0.000002807660    14.003074004430
         C            0.478479430824    -0.166284025396    -0.000000192340    12.000000000000
         C           -0.538892769176    -1.318507925396    -0.000003192340    12.000000000000
         C           -1.872296769176    -0.942016925396    -0.000002192340    12.000000000000
         C           -2.197683769176     0.421234074604     0.000001807660    12.000000000000
         C           -1.160860769176     1.344031074604     0.000003807660    12.000000000000
         C            2.701705230824     0.351796074604    -0.000001192340    12.000000000000
         H           -0.224917769176    -2.357347925396    -0.000005192340     1.007825032230
         H           -2.653225769176    -1.698476925396    -0.000003192340     1.007825032230
         H           -3.230717769176     0.754993074604     0.000001807660     1.007825032230
         H           -1.362699769176     2.413566074604     0.000005807660     1.007825032230
         H            2.599027230824     0.978552074604     0.888289807660     1.007825032230
         H            2.599021230824     0.978557074604    -0.888289192340     1.007825032230
         H            3.662861230824    -0.161075925396    -0.000006192340     1.007825032230

  Basis Set: AUG-CC-PVTZ
    Blend: AUG-CC-PVTZ
  Basis Set: (AUG-CC-PVTZ AUX)
    Blend: AUG-CC-PVTZ-JKFIT
	 Reference Energy          =    -360.6925956086937504 [Eh]
	 Singles Energy            =      -0.0000000000000000 [Eh]
	 Same-Spin Energy          =      -0.3771743129639598 [Eh]
	 Opposite-Spin Energy      =      -1.1788427392469012 [Eh]
	 Correlation Energy        =      -1.5560170522108610 [Eh]
	 Total Energy              =    -362.2486126609045982 [Eh]

	 ================> DF-SCS-MP2 Energies <==================
	-----------------------------------------------------------
	 SCS Same-Spin Scale       =       0.3333333333333333 [-]
	 SCS Opposite-Spin Scale   =       1.2000000000000000 [-]
	 SCS Same-Spin Energy      =      -0.1257247709879866 [Eh]
	 SCS Opposite-Spin Energy  =      -1.4146112870962815 [Eh]
	 SCS Correlation Energy    =      -1.5403360580842680 [Eh]
	 SCS Total Energy          =    -362.2329316667780290 [Eh]
	-----------------------------------------------------------

  Dipole Moment: [D]
     X:    -0.5993      Y:    -0.0919      Z:    -0.0000     Total:     0.6063

*** Psi4 exiting successfully. Buy a developer a beer!
