                               Psi4 1.3.2 release

  ==> Input File <==

--------------------------------------------------------------------------
#psi4
#
memory 32 gb

molecule  {
0 1
  O        1.7295448    -0.7035435     0.0218108
  N        0.1393260     1.0073400     0.0000030
  C        0.4225050    -0.2936560     0.0000000
  C       -0.5457690    -1.3124170    -0.0000030
  C       -1.8791730    -0.9359260    -0.0000020
  C       -2.2045600     0.4273250     0.0000020
  C       -1.1677370     1.3501220     0.0000040
  C        2.6948290     0.3578870    -0.0000010
  H       -0.2317940    -2.3512570    -0.0000050
  H       -2.6601020    -1.6923860    -0.0000030
  H       -3.2375940     0.7610840     0.0000020
  H       -1.3695760     2.4196570     0.0000060
  H        2.5921510     0.9846430     0.8882900
  H        2.5921450     0.9846480    -0.8882890
  H        3.6559850    -0.1549850    -0.0000060
units angstrom
no_reorient  #important for SAPT in psi4, default
symmetry c1  #important for SAPT in psi4, default
}

set PROPERTIES_ORIGIN ["COM"]
properties('MP2/aug-cc-pvtz', properties = ['dipole'])
--------------------------------------------------------------------------

    Molecular point group: c1
  Charge       = 0
  Multiplicity = 1
  Basis Set: AUG-CC-PVTZ
    Blend: AUG-CC-PVTZ
  Basis Set: (AUG-CC-PVTZ AUX)
    Blend: AUG-CC-PVTZ-JKFIT

    Orbital Energies [Eh]
    ---------------------

    Doubly Occupied:

       1A    -20.588245     2A    -15.562870     3A    -11.339093
       4A    -11.281542     5A    -11.273736     6A    -11.263172
       7A    -11.237553     8A    -11.234545     9A     -1.412811
      10A     -1.248846    11A     -1.089646    12A     -1.030854
      13A     -0.943044    14A     -0.863532    15A     -0.830499
      16A     -0.726081    17A     -0.684359    18A     -0.667223
      19A     -0.651284    20A     -0.619818    21A     -0.597325
      22A     -0.561843    23A     -0.545937    24A     -0.538983
      25A     -0.512075    26A     -0.477502    27A     -0.428094
      28A     -0.386945    29A     -0.326432

  @DF-RHF Final Energy:  -360.71470429831209

   => Energetics <=

    Nuclear Repulsion Energy =            350.1551950560368027
    One-Electron Energy =               -1183.8920218678345009
    Two-Electron Energy =                 473.0221225134856695
    Total Energy =                       -360.7147042983120855
  Basis Set: (AUG-CC-PVTZ AUX)
    Blend: AUG-CC-PVTZ-RI
    Molecular point group: c1

    Geometry (in Angstrom), charge = 0, multiplicity = 1:

       Center              X                  Y                   Z               Mass
    ------------   -----------------  -----------------  -----------------  -----------------
         O            1.740477455091    -0.693746472934     0.018611441803    15.994914619570
         N            0.150258655091     1.017137027066    -0.003196358197    14.003074004430
         C            0.433437655091    -0.283858972934    -0.003199358197    12.000000000000
         C           -0.534836344909    -1.302619972934    -0.003202358197    12.000000000000
         C           -1.868240344909    -0.926128972934    -0.003201358197    12.000000000000
         C           -2.193627344909     0.437122027066    -0.003197358197    12.000000000000
         C           -1.156804344909     1.359919027066    -0.003195358197    12.000000000000
         C            2.705761655091     0.367684027066    -0.003200358197    12.000000000000
         H           -0.220861344909    -2.341459972934    -0.003204358197     1.007825032230
         H           -2.649169344909    -1.682588972934    -0.003202358197     1.007825032230
         H           -3.226661344909     0.770881027066    -0.003197358197     1.007825032230
         H           -1.358643344909     2.429454027066    -0.003193358197     1.007825032230
         H            2.603083655091     0.994440027066     0.885090641803     1.007825032230
         H            2.603077655091     0.994445027066    -0.891488358197     1.007825032230
         H            3.666917655091    -0.145187972934    -0.003205358197     1.007825032230

  Basis Set: AUG-CC-PVTZ
    Blend: AUG-CC-PVTZ
  Basis Set: (AUG-CC-PVTZ AUX)
    Blend: AUG-CC-PVTZ-JKFIT
	 Reference Energy          =    -360.7147042983120855 [Eh]
	 Singles Energy            =      -0.0000000000000000 [Eh]
	 Same-Spin Energy          =      -0.3789020957483712 [Eh]
	 Opposite-Spin Energy      =      -1.1794122167426497 [Eh]
	 Correlation Energy        =      -1.5583143124910208 [Eh]
	 Total Energy              =    -362.2730186108030921 [Eh]

	 ================> DF-SCS-MP2 Energies <==================
	-----------------------------------------------------------
	 SCS Same-Spin Scale       =       0.3333333333333333 [-]
	 SCS Opposite-Spin Scale   =       1.2000000000000000 [-]
	 SCS Same-Spin Energy      =      -0.1263006985827904 [Eh]
	 SCS Opposite-Spin Energy  =      -1.4152946600911795 [Eh]
	 SCS Correlation Energy    =      -1.5415953586739699 [Eh]
	 SCS Total Energy          =    -362.2562996569860729 [Eh]
	-----------------------------------------------------------

  Dipole Moment: [D]
     X:    -0.8655      Y:    -0.2310      Z:    -0.0292     Total:     0.8963

*** Psi4 exiting successfully. Buy a developer a beer!
