                               Psi4 1.4a3.dev225

  ==> Input File <==

--------------------------------------------------------------------------
#psi4
#
memory 32 gb

molecule  {
0 1
  O        1.7203660    -0.6953490    -0.0000010
  N        0.1393260     1.0073400     0.0000030
  C        0.3747404    -0.2788727     0.0000000
  C       -0.5457690    -1.3124170    -0.0000030
  C       -1.8791730    -0.9359260    -0.0000020
  C       -2.2045600     0.4273250     0.0000020
  C       -1.1677370     1.3501220     0.0000040
  C        2.6948290     0.3578870    -0.0000010
  H       -0.2317940    -2.3512570    -0.0000050
  H       -2.6601020    -1.6923860    -0.0000030
  H       -3.2375940     0.7610840     0.0000020
  H       -1.3695760     2.4196570     0.0000060
  H        2.5921510     0.9846430     0.8882900
  H        2.5921450     0.9846480    -0.8882890
  H        3.6559850    -0.1549850    -0.0000060
units angstrom
no_reorient  #important for SAPT in psi4, default
symmetry c1  #important for SAPT in psi4, default
}

set PROPERTIES_ORIGIN ["COM"]
properties('MP2/aug-cc-pvtz', properties = ['dipole'])
--------------------------------------------------------------------------

    Molecular point group: c1
  Charge       = 0
  Multiplicity = 1
  Basis Set: AUG-CC-PVTZ
    Blend: AUG-CC-PVTZ
  Basis Set: (AUG-CC-PVTZ AUX)
    Blend: AUG-CC-PVTZ-JKFIT

    Orbital Energies [Eh]
    ---------------------

    Doubly Occupied:

       1A    -20.577520     2A    -15.565036     3A    -11.335048
       4A    -11.284003     5A    -11.268460     6A    -11.265694
       7A    -11.238355     8A    -11.237546     9A     -1.394002
      10A     -1.258699    11A     -1.096137    12A     -1.033497
      13A     -0.935280    14A     -0.868921    15A     -0.831652
      16A     -0.724038    17A     -0.684345    18A     -0.663970
      19A     -0.642569    20A     -0.620038    21A     -0.598897
      22A     -0.560428    23A     -0.550194    24A     -0.540851
      25A     -0.500543    26A     -0.469951    27A     -0.436935
      28A     -0.390838    29A     -0.331852

  @DF-RHF Final Energy:  -360.71212251546689

   => Energetics <=

    Nuclear Repulsion Energy =            350.6104683387589489
    One-Electron Energy =               -1184.8345823672057122
    Two-Electron Energy =                 473.5119915129799324
    Total Energy =                       -360.7121225154668878
  Basis Set: (AUG-CC-PVTZ AUX)
    Blend: AUG-CC-PVTZ-RI
    Molecular point group: c1

    Geometry (in Angstrom), charge = 0, multiplicity = 1:

       Center              X                  Y                   Z               Mass
    ------------   -----------------  -----------------  -----------------  -----------------
         O            1.737900865773    -0.688380603011    -0.000001192340    15.994914619570
         N            0.156860865773     1.014308396989     0.000002807660    14.003074004430
         C            0.392275265773    -0.271904303011    -0.000000192340    12.000000000000
         C           -0.528234134227    -1.305448603011    -0.000003192340    12.000000000000
         C           -1.861638134227    -0.928957603011    -0.000002192340    12.000000000000
         C           -2.187025134227     0.434293396989     0.000001807660    12.000000000000
         C           -1.150202134227     1.357090396989     0.000003807660    12.000000000000
         C            2.712363865773     0.364855396989    -0.000001192340    12.000000000000
         H           -0.214259134227    -2.344288603011    -0.000005192340     1.007825032230
         H           -2.642567134227    -1.685417603011    -0.000003192340     1.007825032230
         H           -3.220059134227     0.768052396989     0.000001807660     1.007825032230
         H           -1.352041134227     2.426625396989     0.000005807660     1.007825032230
         H            2.609685865773     0.991611396989     0.888289807660     1.007825032230
         H            2.609679865773     0.991616396989    -0.888289192340     1.007825032230
         H            3.673519865773    -0.148016603011    -0.000006192340     1.007825032230

  Basis Set: AUG-CC-PVTZ
    Blend: AUG-CC-PVTZ
  Basis Set: (AUG-CC-PVTZ AUX)
    Blend: AUG-CC-PVTZ-JKFIT
	 Reference Energy          =    -360.7121225154668878 [Eh]
	 Singles Energy            =      -0.0000000000000000 [Eh]
	 Same-Spin Energy          =      -0.3789003195645352 [Eh]
	 Opposite-Spin Energy      =      -1.1795126168975427 [Eh]
	 Correlation Energy        =      -1.5584129364620780 [Eh]
	 Total Energy              =    -362.2705354519289926 [Eh]

	 ================> DF-SCS-MP2 Energies <==================
	-----------------------------------------------------------
	 SCS Same-Spin Scale       =       0.3333333333333333 [-]
	 SCS Opposite-Spin Scale   =       1.2000000000000000 [-]
	 SCS Same-Spin Energy      =      -0.1263001065215117 [Eh]
	 SCS Opposite-Spin Energy  =      -1.4154151402770512 [Eh]
	 SCS Correlation Energy    =      -1.5417152467985629 [Eh]
	 SCS Total Energy          =    -362.2538377622654480 [Eh]
	-----------------------------------------------------------

  Dipole Moment: [D]
     X:    -1.2316      Y:    -0.1935      Z:    -0.0000     Total:     1.2467

*** Psi4 exiting successfully. Buy a developer a beer!
