                               Psi4 1.4a3.dev225

  ==> Input File <==

--------------------------------------------------------------------------
#psi4
#
memory 32 gb

molecule  {
0 1
  O        1.7203660    -0.6953490    -0.0000010
  N        0.1393260     1.0073400     0.0000030
  C        0.4702696    -0.3084393    -0.0000000
  C       -0.5457690    -1.3124170    -0.0000030
  C       -1.8791730    -0.9359260    -0.0000020
  C       -2.2045600     0.4273250     0.0000020
  C       -1.1677370     1.3501220     0.0000040
  C        2.6948290     0.3578870    -0.0000010
  H       -0.2317940    -2.3512570    -0.0000050
  H       -2.6601020    -1.6923860    -0.0000030
  H       -3.2375940     0.7610840     0.0000020
  H       -1.3695760     2.4196570     0.0000060
  H        2.5921510     0.9846430     0.8882900
  H        2.5921450     0.9846480    -0.8882890
  H        3.6559850    -0.1549850    -0.0000060
units angstrom
no_reorient  #important for SAPT in psi4, default
symmetry c1  #important for SAPT in psi4, default
}

set PROPERTIES_ORIGIN ["COM"]
properties('MP2/aug-cc-pvtz', properties = ['dipole'])
--------------------------------------------------------------------------

    Molecular point group: c1
  Charge       = 0
  Multiplicity = 1
  Basis Set: AUG-CC-PVTZ
    Blend: AUG-CC-PVTZ
  Basis Set: (AUG-CC-PVTZ AUX)
    Blend: AUG-CC-PVTZ-JKFIT

    Orbital Energies [Eh]
    ---------------------

    Doubly Occupied:

       1A    -20.599727     2A    -15.557884     3A    -11.342434
       4A    -11.281576     5A    -11.277918     6A    -11.259685
       7A    -11.235036     8A    -11.229183     9A     -1.444450
      10A     -1.236797    11A     -1.082295    12A     -1.029111
      13A     -0.954297    14A     -0.858075    15A     -0.828051
      16A     -0.732749    17A     -0.687789    18A     -0.669713
      19A     -0.665737    20A     -0.618316    21A     -0.595372
      22A     -0.561988    23A     -0.543995    24A     -0.537339
      25A     -0.522348    26A     -0.485380    27A     -0.416981
      28A     -0.382042    29A     -0.318014

  @DF-RHF Final Energy:  -360.71266420256921

   => Energetics <=

    Nuclear Repulsion Energy =            350.3923922232669952
    One-Electron Energy =               -1184.3015506626193201
    Two-Electron Energy =                 473.1964942367830531
    Total Energy =                       -360.7126642025692149
  Basis Set: (AUG-CC-PVTZ AUX)
    Blend: AUG-CC-PVTZ-RI
    Molecular point group: c1

    Geometry (in Angstrom), charge = 0, multiplicity = 1:

       Center              X                  Y                   Z               Mass
    ------------   -----------------  -----------------  -----------------  -----------------
         O            1.727388978137    -0.685127139390    -0.000001192340    15.994914619570
         N            0.146348978137     1.017561860610     0.000002807660    14.003074004430
         C            0.477292578137    -0.298217439390    -0.000000192340    12.000000000000
         C           -0.538746021863    -1.302195139390    -0.000003192340    12.000000000000
         C           -1.872150021863    -0.925704139390    -0.000002192340    12.000000000000
         C           -2.197537021863     0.437546860610     0.000001807660    12.000000000000
         C           -1.160714021863     1.360343860610     0.000003807660    12.000000000000
         C            2.701851978137     0.368108860610    -0.000001192340    12.000000000000
         H           -0.224771021863    -2.341035139390    -0.000005192340     1.007825032230
         H           -2.653079021863    -1.682164139390    -0.000003192340     1.007825032230
         H           -3.230571021863     0.771305860610     0.000001807660     1.007825032230
         H           -1.362553021863     2.429878860610     0.000005807660     1.007825032230
         H            2.599173978137     0.994864860610     0.888289807660     1.007825032230
         H            2.599167978137     0.994869860610    -0.888289192340     1.007825032230
         H            3.663007978137    -0.144763139390    -0.000006192340     1.007825032230

  Basis Set: AUG-CC-PVTZ
    Blend: AUG-CC-PVTZ
  Basis Set: (AUG-CC-PVTZ AUX)
    Blend: AUG-CC-PVTZ-JKFIT
	 Reference Energy          =    -360.7126642025692149 [Eh]
	 Singles Energy            =      -0.0000000000000000 [Eh]
	 Same-Spin Energy          =      -0.3788134402157233 [Eh]
	 Opposite-Spin Energy      =      -1.1788114609499785 [Eh]
	 Correlation Energy        =      -1.5576249011657017 [Eh]
	 Total Energy              =    -362.2702891037349104 [Eh]

	 ================> DF-SCS-MP2 Energies <==================
	-----------------------------------------------------------
	 SCS Same-Spin Scale       =       0.3333333333333333 [-]
	 SCS Opposite-Spin Scale   =       1.2000000000000000 [-]
	 SCS Same-Spin Energy      =      -0.1262711467385744 [Eh]
	 SCS Opposite-Spin Energy  =      -1.4145737531399740 [Eh]
	 SCS Correlation Energy    =      -1.5408448998785484 [Eh]
	 SCS Total Energy          =    -362.2535091024477651 [Eh]
	-----------------------------------------------------------

  Dipole Moment: [D]
     X:    -0.2993      Y:    -0.3067      Z:    -0.0000     Total:     0.4285

*** Psi4 exiting successfully. Buy a developer a beer!
