                               Psi4 1.4a3.dev225

  ==> Input File <==

--------------------------------------------------------------------------
#psi4
#
memory 32 gb

molecule  {
0 1
  O        1.7203660    -0.6953490    -0.0000010
  N        0.1393260     1.0073400     0.0000030
  C        0.4182513    -0.2741136     0.0000000
  C       -0.5457690    -1.3124170    -0.0000030
  C       -1.8791730    -0.9359260    -0.0000020
  C       -2.2045600     0.4273250     0.0000020
  C       -1.1677370     1.3501220     0.0000040
  C        2.6948290     0.3578870    -0.0000010
  H       -0.2317940    -2.3512570    -0.0000050
  H       -2.6601020    -1.6923860    -0.0000030
  H       -3.2375940     0.7610840     0.0000020
  H       -1.3695760     2.4196570     0.0000060
  H        2.5921510     0.9846430     0.8882900
  H        2.5921450     0.9846480    -0.8882890
  H        3.6559850    -0.1549850    -0.0000060
units angstrom
no_reorient  #important for SAPT in psi4, default
symmetry c1  #important for SAPT in psi4, default
}

set PROPERTIES_ORIGIN ["COM"]
properties('MP2/aug-cc-pvtz', properties = ['dipole'])
--------------------------------------------------------------------------

    Molecular point group: c1
  Charge       = 0
  Multiplicity = 1
  Basis Set: AUG-CC-PVTZ
    Blend: AUG-CC-PVTZ
  Basis Set: (AUG-CC-PVTZ AUX)
    Blend: AUG-CC-PVTZ-JKFIT

    Orbital Energies [Eh]
    ---------------------

    Doubly Occupied:

       1A    -20.586952     2A    -15.561265     3A    -11.337901
       4A    -11.281403     5A    -11.273495     6A    -11.262336
       7A    -11.238544     8A    -11.234493     9A     -1.413442
      10A     -1.253839    11A     -1.090370    12A     -1.029757
      13A     -0.943025    14A     -0.865288    15A     -0.829089
      16A     -0.726277    17A     -0.685557    18A     -0.667161
      19A     -0.651782    20A     -0.619319    21A     -0.597191
      22A     -0.560879    23A     -0.547557    24A     -0.539383
      25A     -0.511928    26A     -0.476950    27A     -0.428719
      28A     -0.388549    29A     -0.325573

  @DF-RHF Final Energy:  -360.71547594096961

   => Energetics <=

    Nuclear Repulsion Energy =            350.5689310799580198
    One-Electron Energy =               -1184.7127613493619265
    Two-Electron Energy =                 473.4283543284342954
    Total Energy =                       -360.7154759409696112
  Basis Set: (AUG-CC-PVTZ AUX)
    Blend: AUG-CC-PVTZ-RI
    Molecular point group: c1

    Geometry (in Angstrom), charge = 0, multiplicity = 1:

       Center              X                  Y                   Z               Mass
    ------------   -----------------  -----------------  -----------------  -----------------
         O            1.733112992622    -0.688904287125    -0.000001192340    15.994914619570
         N            0.152072992622     1.013784712875     0.000002807660    14.003074004430
         C            0.430998292622    -0.267668887125    -0.000000192340    12.000000000000
         C           -0.533022007378    -1.305972287125    -0.000003192340    12.000000000000
         C           -1.866426007378    -0.929481287125    -0.000002192340    12.000000000000
         C           -2.191813007378     0.433769712875     0.000001807660    12.000000000000
         C           -1.154990007378     1.356566712875     0.000003807660    12.000000000000
         C            2.707575992622     0.364331712875    -0.000001192340    12.000000000000
         H           -0.219047007378    -2.344812287125    -0.000005192340     1.007825032230
         H           -2.647355007378    -1.685941287125    -0.000003192340     1.007825032230
         H           -3.224847007378     0.767528712875     0.000001807660     1.007825032230
         H           -1.356829007378     2.426101712875     0.000005807660     1.007825032230
         H            2.604897992622     0.991087712875     0.888289807660     1.007825032230
         H            2.604891992622     0.991092712875    -0.888289192340     1.007825032230
         H            3.668731992622    -0.148540287125    -0.000006192340     1.007825032230

  Basis Set: AUG-CC-PVTZ
    Blend: AUG-CC-PVTZ
  Basis Set: (AUG-CC-PVTZ AUX)
    Blend: AUG-CC-PVTZ-JKFIT
	 Reference Energy          =    -360.7154759409696112 [Eh]
	 Singles Energy            =      -0.0000000000000000 [Eh]
	 Same-Spin Energy          =      -0.3786098730100180 [Eh]
	 Opposite-Spin Energy      =      -1.1789114033909096 [Eh]
	 Correlation Energy        =      -1.5575212764009276 [Eh]
	 Total Energy              =    -362.2729972173705164 [Eh]

	 ================> DF-SCS-MP2 Energies <==================
	-----------------------------------------------------------
	 SCS Same-Spin Scale       =       0.3333333333333333 [-]
	 SCS Opposite-Spin Scale   =       1.2000000000000000 [-]
	 SCS Same-Spin Energy      =      -0.1262032910033393 [Eh]
	 SCS Opposite-Spin Energy  =      -1.4146936840690916 [Eh]
	 SCS Correlation Energy    =      -1.5408969750724308 [Eh]
	 SCS Total Energy          =    -362.2563729160420394 [Eh]
	-----------------------------------------------------------

  Dipole Moment: [D]
     X:    -0.8517      Y:    -0.2283      Z:    -0.0000     Total:     0.8818

*** Psi4 exiting successfully. Buy a developer a beer!
