                               Psi4 1.3.2 release

  ==> Input File <==

--------------------------------------------------------------------------
#psi4
#
memory 32 gb

molecule  {
0 1
  O        1.6866459    -0.6593890    -0.0871819
  N        0.1393260     1.0073400     0.0000030
  C        0.4225050    -0.2936560     0.0000000
  C       -0.5457690    -1.3124170    -0.0000030
  C       -1.8791730    -0.9359260    -0.0000020
  C       -2.2045600     0.4273250     0.0000020
  C       -1.1677370     1.3501220     0.0000040
  C        2.6948290     0.3578870    -0.0000010
  H       -0.2317940    -2.3512570    -0.0000050
  H       -2.6601020    -1.6923860    -0.0000030
  H       -3.2375940     0.7610840     0.0000020
  H       -1.3695760     2.4196570     0.0000060
  H        2.5921510     0.9846430     0.8882900
  H        2.5921450     0.9846480    -0.8882890
  H        3.6559850    -0.1549850    -0.0000060
units angstrom
no_reorient  #important for SAPT in psi4, default
symmetry c1  #important for SAPT in psi4, default
}

set PROPERTIES_ORIGIN ["COM"]
properties('MP2/aug-cc-pvtz', properties = ['dipole'])
--------------------------------------------------------------------------

    Molecular point group: c1
  Charge       = 0
  Multiplicity = 1
  Basis Set: AUG-CC-PVTZ
    Blend: AUG-CC-PVTZ
  Basis Set: (AUG-CC-PVTZ AUX)
    Blend: AUG-CC-PVTZ-JKFIT

    Orbital Energies [Eh]
    ---------------------

    Doubly Occupied:

       1A    -20.588730     2A    -15.556685     3A    -11.335650
       4A    -11.278726     5A    -11.278711     6A    -11.261072
       7A    -11.233780     8A    -11.230210     9A     -1.433856
      10A     -1.244697    11A     -1.087038    12A     -1.031193
      13A     -0.950767    14A     -0.863398    15A     -0.827417
      16A     -0.729912    17A     -0.688428    18A     -0.667816
      19A     -0.659998    20A     -0.618553    21A     -0.599407
      22A     -0.562949    23A     -0.545777    24A     -0.536773
      25A     -0.513679    26A     -0.480203    27A     -0.424526
      28A     -0.384430    29A     -0.320880

  @DF-RHF Final Energy:  -360.71557353320736

   => Energetics <=

    Nuclear Repulsion Energy =            351.6442707302448412
    One-Electron Energy =               -1186.8491643476779700
    Two-Electron Energy =                 474.4893200842257102
    Total Energy =                       -360.7155735332073618
  Basis Set: (AUG-CC-PVTZ AUX)
    Blend: AUG-CC-PVTZ-RI
    Molecular point group: c1

    Geometry (in Angstrom), charge = 0, multiplicity = 1:

       Center              X                  Y                   Z               Mass
    ------------   -----------------  -----------------  -----------------  -----------------
         O            1.703870594088    -0.656068172460    -0.074395153222    15.994914619570
         N            0.156550694088     1.010660827540     0.012789746778    14.003074004430
         C            0.439729694088    -0.290335172460     0.012786746778    12.000000000000
         C           -0.528544305912    -1.309096172460     0.012783746778    12.000000000000
         C           -1.861948305912    -0.932605172460     0.012784746778    12.000000000000
         C           -2.187335305912     0.430645827540     0.012788746778    12.000000000000
         C           -1.150512305912     1.353442827540     0.012790746778    12.000000000000
         C            2.712053694088     0.361207827540     0.012785746778    12.000000000000
         H           -0.214569305912    -2.347936172460     0.012781746778     1.007825032230
         H           -2.642877305912    -1.689065172460     0.012783746778     1.007825032230
         H           -3.220369305912     0.764404827540     0.012788746778     1.007825032230
         H           -1.352351305912     2.422977827540     0.012792746778     1.007825032230
         H            2.609375694088     0.987963827540     0.901076746778     1.007825032230
         H            2.609369694088     0.987968827540    -0.875502253222     1.007825032230
         H            3.673209694088    -0.151664172460     0.012780746778     1.007825032230

  Basis Set: AUG-CC-PVTZ
    Blend: AUG-CC-PVTZ
  Basis Set: (AUG-CC-PVTZ AUX)
    Blend: AUG-CC-PVTZ-JKFIT
	 Reference Energy          =    -360.7155735332073618 [Eh]
	 Singles Energy            =      -0.0000000000000000 [Eh]
	 Same-Spin Energy          =      -0.3784004063760085 [Eh]
	 Opposite-Spin Energy      =      -1.1776773304663750 [Eh]
	 Correlation Energy        =      -1.5560777368423835 [Eh]
	 Total Energy              =    -362.2716512700497447 [Eh]

	 ================> DF-SCS-MP2 Energies <==================
	-----------------------------------------------------------
	 SCS Same-Spin Scale       =       0.3333333333333333 [-]
	 SCS Opposite-Spin Scale   =       1.2000000000000000 [-]
	 SCS Same-Spin Energy      =      -0.1261334687920028 [Eh]
	 SCS Opposite-Spin Energy  =      -1.4132127965596499 [Eh]
	 SCS Correlation Energy    =      -1.5393462653516528 [Eh]
	 SCS Total Energy          =    -362.2549197985590013 [Eh]
	-----------------------------------------------------------

  Dipole Moment: [D]
     X:    -0.4686      Y:    -0.3186      Z:     0.1115     Total:     0.5775

*** Psi4 exiting successfully. Buy a developer a beer!
