                               Psi4 1.3.2 release

  ==> Input File <==

--------------------------------------------------------------------------
#psi4
#
memory 32 gb

molecule  {
0 1
  O        1.7203660    -0.6953490    -0.0000010
  N        0.1393260     1.0073400     0.0000030
  C        0.4012367    -0.1959439     0.0000002
  C       -0.5457690    -1.3124170    -0.0000030
  C       -1.8791730    -0.9359260    -0.0000020
  C       -2.2045600     0.4273250     0.0000020
  C       -1.1677370     1.3501220     0.0000040
  C        2.6948290     0.3578870    -0.0000010
  H       -0.2317940    -2.3512570    -0.0000050
  H       -2.6601020    -1.6923860    -0.0000030
  H       -3.2375940     0.7610840     0.0000020
  H       -1.3695760     2.4196570     0.0000060
  H        2.5921510     0.9846430     0.8882900
  H        2.5921450     0.9846480    -0.8882890
  H        3.6559850    -0.1549850    -0.0000060
units angstrom
no_reorient  #important for SAPT in psi4, default
symmetry c1  #important for SAPT in psi4, default
}

set PROPERTIES_ORIGIN ["COM"]
properties('MP2/aug-cc-pvtz', properties = ['dipole'])
--------------------------------------------------------------------------

    Molecular point group: c1
  Charge       = 0
  Multiplicity = 1
  Basis Set: AUG-CC-PVTZ
    Blend: AUG-CC-PVTZ
  Basis Set: (AUG-CC-PVTZ AUX)
    Blend: AUG-CC-PVTZ-JKFIT

    Orbital Energies [Eh]
    ---------------------

    Doubly Occupied:

       1A    -20.580039     2A    -15.559485     3A    -11.334695
       4A    -11.283386     5A    -11.268252     6A    -11.260632
       7A    -11.245483     8A    -11.238616     9A     -1.399077
      10A     -1.280028    11A     -1.096266    12A     -1.025337
      13A     -0.935787    14A     -0.873932    15A     -0.824342
      16A     -0.725280    17A     -0.688180    18A     -0.665603
      19A     -0.646749    20A     -0.618128    21A     -0.594734
      22A     -0.557755    23A     -0.555885    24A     -0.542025
      25A     -0.507559    26A     -0.470341    27A     -0.431314
      28A     -0.398821    29A     -0.326504

  @DF-RHF Final Energy:  -360.70326621909032

   => Energetics <=

    Nuclear Repulsion Energy =            351.0199385953986280
    One-Electron Energy =               -1185.5779402291982478
    Two-Electron Energy =                 473.8547354147093529
    Total Energy =                       -360.7032662190903238
  Basis Set: (AUG-CC-PVTZ AUX)
    Blend: AUG-CC-PVTZ-RI
    Molecular point group: c1

    Geometry (in Angstrom), charge = 0, multiplicity = 1:

       Center              X                  Y                   Z               Mass
    ------------   -----------------  -----------------  -----------------  -----------------
         O            1.734985253286    -0.697505961827    -0.000001214347    15.994914619570
         N            0.153945253286     1.005183038173     0.000002785653    14.003074004430
         C            0.415855953286    -0.198100861827    -0.000000014347    12.000000000000
         C           -0.531149746714    -1.314573961827    -0.000003214347    12.000000000000
         C           -1.864553746714    -0.938082961827    -0.000002214347    12.000000000000
         C           -2.189940746714     0.425168038173     0.000001785653    12.000000000000
         C           -1.153117746714     1.347965038173     0.000003785653    12.000000000000
         C            2.709448253286     0.355730038173    -0.000001214347    12.000000000000
         H           -0.217174746714    -2.353413961827    -0.000005214347     1.007825032230
         H           -2.645482746714    -1.694542961827    -0.000003214347     1.007825032230
         H           -3.222974746714     0.758927038173     0.000001785653     1.007825032230
         H           -1.354956746714     2.417500038173     0.000005785653     1.007825032230
         H            2.606770253286     0.982486038173     0.888289785653     1.007825032230
         H            2.606764253286     0.982491038173    -0.888289214347     1.007825032230
         H            3.670604253286    -0.157141961827    -0.000006214347     1.007825032230

  Basis Set: AUG-CC-PVTZ
    Blend: AUG-CC-PVTZ
  Basis Set: (AUG-CC-PVTZ AUX)
    Blend: AUG-CC-PVTZ-JKFIT
	 Reference Energy          =    -360.7032662190903238 [Eh]
	 Singles Energy            =      -0.0000000000000000 [Eh]
	 Same-Spin Energy          =      -0.3778497082256967 [Eh]
	 Opposite-Spin Energy      =      -1.1790372052942288 [Eh]
	 Correlation Energy        =      -1.5568869135199255 [Eh]
	 Total Energy              =    -362.2601531326102418 [Eh]

	 ================> DF-SCS-MP2 Energies <==================
	-----------------------------------------------------------
	 SCS Same-Spin Scale       =       0.3333333333333333 [-]
	 SCS Opposite-Spin Scale   =       1.2000000000000000 [-]
	 SCS Same-Spin Energy      =      -0.1259499027418989 [Eh]
	 SCS Opposite-Spin Energy  =      -1.4148446463530746 [Eh]
	 SCS Correlation Energy    =      -1.5407945490949735 [Eh]
	 SCS Total Energy          =    -362.2440607681853066 [Eh]
	-----------------------------------------------------------

  Dipole Moment: [D]
     X:    -1.1477      Y:    -0.1104      Z:    -0.0000     Total:     1.1530

*** Psi4 exiting successfully. Buy a developer a beer!
