                               Psi4 1.3.2 release

  ==> Input File <==

--------------------------------------------------------------------------
#psi4
#
memory 32 gb

molecule  {
0 1
  O        1.7203660    -0.6953490    -0.0000010
  N        0.1393260     1.0073400     0.0000030
  C        0.6135633    -0.3527893    -0.0000001
  C       -0.5457690    -1.3124170    -0.0000030
  C       -1.8791730    -0.9359260    -0.0000020
  C       -2.2045600     0.4273250     0.0000020
  C       -1.1677370     1.3501220     0.0000040
  C        2.6948290     0.3578870    -0.0000010
  H       -0.2317940    -2.3512570    -0.0000050
  H       -2.6601020    -1.6923860    -0.0000030
  H       -3.2375940     0.7610840     0.0000020
  H       -1.3695760     2.4196570     0.0000060
  H        2.5921510     0.9846430     0.8882900
  H        2.5921450     0.9846480    -0.8882890
  H        3.6559850    -0.1549850    -0.0000060
units angstrom
no_reorient  #important for SAPT in psi4, default
symmetry c1  #important for SAPT in psi4, default
}

set PROPERTIES_ORIGIN ["COM"]
properties('MP2/aug-cc-pvtz', properties = ['dipole'])
--------------------------------------------------------------------------

    Molecular point group: c1
  Charge       = 0
  Multiplicity = 1
  Basis Set: AUG-CC-PVTZ
    Blend: AUG-CC-PVTZ
  Basis Set: (AUG-CC-PVTZ AUX)
    Blend: AUG-CC-PVTZ-JKFIT

    Orbital Energies [Eh]
    ---------------------

    Doubly Occupied:

       1A    -20.638024     2A    -15.544278     3A    -11.356946
       4A    -11.305324     5A    -11.268489     6A    -11.249958
       7A    -11.228629     8A    -11.212474     9A     -1.550452
      10A     -1.202588    11A     -1.063797    12A     -1.040894
      13A     -0.970263    14A     -0.847988    15A     -0.825428
      16A     -0.758428    17A     -0.717992    18A     -0.711592
      19A     -0.666617    20A     -0.611905    21A     -0.581680
      22A     -0.562963    23A     -0.559481    24A     -0.555537
      25A     -0.513187    26A     -0.489052    27A     -0.381740
      28A     -0.368914    29A     -0.293606

  @DF-RHF Final Energy:  -360.65339400530462

   => Energetics <=

    Nuclear Repulsion Energy =            350.5780776992176584
    One-Electron Energy =               -1184.3064846389354443
    Two-Electron Energy =                 473.0750129344132233
    Total Energy =                       -360.6533940053046194
  Basis Set: (AUG-CC-PVTZ AUX)
    Blend: AUG-CC-PVTZ-RI
    Molecular point group: c1

    Geometry (in Angstrom), charge = 0, multiplicity = 1:

       Center              X                  Y                   Z               Mass
    ------------   -----------------  -----------------  -----------------  -----------------
         O            1.711621157686    -0.680246932954    -0.000001181336    15.994914619570
         N            0.130581157686     1.022442067046     0.000002818664    14.003074004430
         C            0.604818457686    -0.337687232954    -0.000000281336    12.000000000000
         C           -0.554513842314    -1.297314932954    -0.000003181336    12.000000000000
         C           -1.887917842314    -0.920823932954    -0.000002181336    12.000000000000
         C           -2.213304842314     0.442427067046     0.000001818664    12.000000000000
         C           -1.176481842314     1.365224067046     0.000003818664    12.000000000000
         C            2.686084157686     0.372989067046    -0.000001181336    12.000000000000
         H           -0.240538842314    -2.336154932954    -0.000005181336     1.007825032230
         H           -2.668846842314    -1.677283932954    -0.000003181336     1.007825032230
         H           -3.246338842314     0.776186067046     0.000001818664     1.007825032230
         H           -1.378320842314     2.434759067046     0.000005818664     1.007825032230
         H            2.583406157686     0.999745067046     0.888289818664     1.007825032230
         H            2.583400157686     0.999750067046    -0.888289181336     1.007825032230
         H            3.647240157686    -0.139882932954    -0.000006181336     1.007825032230

  Basis Set: AUG-CC-PVTZ
    Blend: AUG-CC-PVTZ
  Basis Set: (AUG-CC-PVTZ AUX)
    Blend: AUG-CC-PVTZ-JKFIT
	 Reference Energy          =    -360.6533940053046194 [Eh]
	 Singles Energy            =      -0.0000000000000000 [Eh]
	 Same-Spin Energy          =      -0.3794606709500339 [Eh]
	 Opposite-Spin Energy      =      -1.1796552967095448 [Eh]
	 Correlation Energy        =      -1.5591159676595787 [Eh]
	 Total Energy              =    -362.2125099729641988 [Eh]

	 ================> DF-SCS-MP2 Energies <==================
	-----------------------------------------------------------
	 SCS Same-Spin Scale       =       0.3333333333333333 [-]
	 SCS Opposite-Spin Scale   =       1.2000000000000000 [-]
	 SCS Same-Spin Energy      =      -0.1264868903166780 [Eh]
	 SCS Opposite-Spin Energy  =      -1.4155863560514537 [Eh]
	 SCS Correlation Energy    =      -1.5420732463681317 [Eh]
	 SCS Total Energy          =    -362.1954672516727669 [Eh]
	-----------------------------------------------------------

  Dipole Moment: [D]
     X:     1.3231      Y:    -0.5037      Z:    -0.0000     Total:     1.4157

*** Psi4 exiting successfully. Buy a developer a beer!
