                               Psi4 1.3.2 release

  ==> Input File <==

--------------------------------------------------------------------------
#psi4
#
memory 32 gb

molecule  {
0 1
  O        1.7335943    -0.6498096    -0.0000009
  N        0.1393260     1.0073400     0.0000030
  C        0.4225050    -0.2936560     0.0000000
  C       -0.5457690    -1.3124170    -0.0000030
  C       -1.8791730    -0.9359260    -0.0000020
  C       -2.2045600     0.4273250     0.0000020
  C       -1.1677370     1.3501220     0.0000040
  C        2.6948290     0.3578870    -0.0000010
  H       -0.2317940    -2.3512570    -0.0000050
  H       -2.6601020    -1.6923860    -0.0000030
  H       -3.2375940     0.7610840     0.0000020
  H       -1.3695760     2.4196570     0.0000060
  H        2.5921510     0.9846430     0.8882900
  H        2.5921450     0.9846480    -0.8882890
  H        3.6559850    -0.1549850    -0.0000060
units angstrom
no_reorient  #important for SAPT in psi4, default
symmetry c1  #important for SAPT in psi4, default
}

set PROPERTIES_ORIGIN ["COM"]
properties('MP2/aug-cc-pvtz', properties = ['dipole'])
--------------------------------------------------------------------------

    Molecular point group: c1
  Charge       = 0
  Multiplicity = 1
  Basis Set: AUG-CC-PVTZ
    Blend: AUG-CC-PVTZ
  Basis Set: (AUG-CC-PVTZ AUX)
    Blend: AUG-CC-PVTZ-JKFIT

    Orbital Energies [Eh]
    ---------------------

    Doubly Occupied:

       1A    -20.585719     2A    -15.561651     3A    -11.340160
       4A    -11.281413     5A    -11.270216     6A    -11.264272
       7A    -11.239069     8A    -11.234567     9A     -1.426479
      10A     -1.249512    11A     -1.090168    12A     -1.034853
      13A     -0.945547    14A     -0.865251    15A     -0.829284
      16A     -0.730201    17A     -0.687548    18A     -0.669603
      19A     -0.659310    20A     -0.621363    21A     -0.603104
      22A     -0.567158    23A     -0.545613    24A     -0.538806
      25A     -0.504312    26A     -0.473456    27A     -0.428474
      28A     -0.387134    29A     -0.326318

  @DF-RHF Final Energy:  -360.71596177236296

   => Energetics <=

    Nuclear Repulsion Energy =            351.1119811357226581
    One-Electron Energy =               -1185.7347684731403206
    Two-Electron Energy =                 473.9068255650547030
    Total Energy =                       -360.7159617723629594
  Basis Set: (AUG-CC-PVTZ AUX)
    Blend: AUG-CC-PVTZ-RI
    Molecular point group: c1

    Geometry (in Angstrom), charge = 0, multiplicity = 1:

       Center              X                  Y                   Z               Mass
    ------------   -----------------  -----------------  -----------------  -----------------
         O            1.743933009514    -0.647893795861    -0.000001107007    15.994914619570
         N            0.149664709514     1.009255804139     0.000002792993    14.003074004430
         C            0.432843709514    -0.291740195861    -0.000000207007    12.000000000000
         C           -0.535430290486    -1.310501195861    -0.000003207007    12.000000000000
         C           -1.868834290486    -0.934010195861    -0.000002207007    12.000000000000
         C           -2.194221290486     0.429240804139     0.000001792993    12.000000000000
         C           -1.157398290486     1.352037804139     0.000003792993    12.000000000000
         C            2.705167709514     0.359802804139    -0.000001207007    12.000000000000
         H           -0.221455290486    -2.349341195861    -0.000005207007     1.007825032230
         H           -2.649763290486    -1.690470195861    -0.000003207007     1.007825032230
         H           -3.227255290486     0.762999804139     0.000001792993     1.007825032230
         H           -1.359237290486     2.421572804139     0.000005792993     1.007825032230
         H            2.602489709514     0.986558804139     0.888289792993     1.007825032230
         H            2.602483709514     0.986563804139    -0.888289207007     1.007825032230
         H            3.666323709514    -0.153069195861    -0.000006207007     1.007825032230

  Basis Set: AUG-CC-PVTZ
    Blend: AUG-CC-PVTZ
  Basis Set: (AUG-CC-PVTZ AUX)
    Blend: AUG-CC-PVTZ-JKFIT
	 Reference Energy          =    -360.7159617723629594 [Eh]
	 Singles Energy            =      -0.0000000000000000 [Eh]
	 Same-Spin Energy          =      -0.3785525288700944 [Eh]
	 Opposite-Spin Energy      =      -1.1778248252001815 [Eh]
	 Correlation Energy        =      -1.5563773540702759 [Eh]
	 Total Energy              =    -362.2723391264332236 [Eh]

	 ================> DF-SCS-MP2 Energies <==================
	-----------------------------------------------------------
	 SCS Same-Spin Scale       =       0.3333333333333333 [-]
	 SCS Opposite-Spin Scale   =       1.2000000000000000 [-]
	 SCS Same-Spin Energy      =      -0.1261841762900315 [Eh]
	 SCS Opposite-Spin Energy  =      -1.4133897902402177 [Eh]
	 SCS Correlation Energy    =      -1.5395739665302492 [Eh]
	 SCS Total Energy          =    -362.2555357388932293 [Eh]
	-----------------------------------------------------------

  Dipole Moment: [D]
     X:    -0.9064      Y:    -0.3559      Z:    -0.0000     Total:     0.9738

*** Psi4 exiting successfully. Buy a developer a beer!
