                               Psi4 1.3.2 release

  ==> Input File <==

--------------------------------------------------------------------------
#psi4
#
memory 32 gb

molecule  {
0 1
  O        1.7588336    -0.7261777     0.0871799
  N        0.1393260     1.0073400     0.0000030
  C        0.4225050    -0.2936560     0.0000000
  C       -0.5457690    -1.3124170    -0.0000030
  C       -1.8791730    -0.9359260    -0.0000020
  C       -2.2045600     0.4273250     0.0000020
  C       -1.1677370     1.3501220     0.0000040
  C        2.6948290     0.3578870    -0.0000010
  H       -0.2317940    -2.3512570    -0.0000050
  H       -2.6601020    -1.6923860    -0.0000030
  H       -3.2375940     0.7610840     0.0000020
  H       -1.3695760     2.4196570     0.0000060
  H        2.5921510     0.9846430     0.8882900
  H        2.5921450     0.9846480    -0.8882890
  H        3.6559850    -0.1549850    -0.0000060
units angstrom
no_reorient  #important for SAPT in psi4, default
symmetry c1  #important for SAPT in psi4, default
}

set PROPERTIES_ORIGIN ["COM"]
properties('MP2/aug-cc-pvtz', properties = ['dipole'])
--------------------------------------------------------------------------

    Molecular point group: c1
  Charge       = 0
  Multiplicity = 1
  Basis Set: AUG-CC-PVTZ
    Blend: AUG-CC-PVTZ
  Basis Set: (AUG-CC-PVTZ AUX)
    Blend: AUG-CC-PVTZ-JKFIT

    Orbital Energies [Eh]
    ---------------------

    Doubly Occupied:

       1A    -20.587505     2A    -15.566842     3A    -11.341334
       4A    -11.283445     5A    -11.270421     6A    -11.264702
       7A    -11.240252     8A    -11.237531     9A     -1.399072
      10A     -1.251496    11A     -1.091483    12A     -1.031167
      13A     -0.937336    14A     -0.863929    15A     -0.832704
      16A     -0.723915    17A     -0.682325    18A     -0.666307
      19A     -0.645202    20A     -0.620561    21A     -0.596420
      22A     -0.562698    23A     -0.544993    24A     -0.540426
      25A     -0.509268    26A     -0.474106    27A     -0.430192
      28A     -0.388577    29A     -0.330339

  @DF-RHF Final Energy:  -360.70948293928791

   => Energetics <=

    Nuclear Repulsion Energy =            349.1492624173025661
    One-Electron Energy =               -1181.8883980572391010
    Two-Electron Energy =                 472.0296527006486258
    Total Energy =                       -360.7094829392879092
  Basis Set: (AUG-CC-PVTZ AUX)
    Blend: AUG-CC-PVTZ-RI
    Molecular point group: c1

    Geometry (in Angstrom), charge = 0, multiplicity = 1:

       Center              X                  Y                   Z               Mass
    ------------   -----------------  -----------------  -----------------  -----------------
         O            1.765470427652    -0.713060884570     0.074392768543    15.994914619570
         N            0.145962827652     1.020456815430    -0.012784131457    14.003074004430
         C            0.429141827652    -0.280539184570    -0.012787131457    12.000000000000
         C           -0.539132172348    -1.299300184570    -0.012790131457    12.000000000000
         C           -1.872536172348    -0.922809184570    -0.012789131457    12.000000000000
         C           -2.197923172348     0.440441815430    -0.012785131457    12.000000000000
         C           -1.161100172348     1.363238815430    -0.012783131457    12.000000000000
         C            2.701465827652     0.371003815430    -0.012788131457    12.000000000000
         H           -0.225157172348    -2.338140184570    -0.012792131457     1.007825032230
         H           -2.653465172348    -1.679269184570    -0.012790131457     1.007825032230
         H           -3.230957172348     0.774200815430    -0.012785131457     1.007825032230
         H           -1.362939172348     2.432773815430    -0.012781131457     1.007825032230
         H            2.598787827652     0.997759815430     0.875502868543     1.007825032230
         H            2.598781827652     0.997764815430    -0.901076131457     1.007825032230
         H            3.662621827652    -0.141868184570    -0.012793131457     1.007825032230

  Basis Set: AUG-CC-PVTZ
    Blend: AUG-CC-PVTZ
  Basis Set: (AUG-CC-PVTZ AUX)
    Blend: AUG-CC-PVTZ-JKFIT
	 Reference Energy          =    -360.7094829392879092 [Eh]
	 Singles Energy            =      -0.0000000000000000 [Eh]
	 Same-Spin Energy          =      -0.3793691279834059 [Eh]
	 Opposite-Spin Energy      =      -1.1808774716160615 [Eh]
	 Correlation Energy        =      -1.5602465995994674 [Eh]
	 Total Energy              =    -362.2697295388873613 [Eh]

	 ================> DF-SCS-MP2 Energies <==================
	-----------------------------------------------------------
	 SCS Same-Spin Scale       =       0.3333333333333333 [-]
	 SCS Opposite-Spin Scale   =       1.2000000000000000 [-]
	 SCS Same-Spin Energy      =      -0.1264563759944686 [Eh]
	 SCS Opposite-Spin Energy  =      -1.4170529659392737 [Eh]
	 SCS Correlation Energy    =      -1.5435093419337422 [Eh]
	 SCS Total Energy          =    -362.2529922812216796 [Eh]
	-----------------------------------------------------------

  Dipole Moment: [D]
     X:    -1.1449      Y:    -0.1779      Z:    -0.1198     Total:     1.1648

*** Psi4 exiting successfully. Buy a developer a beer!
