                               Psi4 1.3.2 release

  ==> Input File <==

--------------------------------------------------------------------------
#psi4
#
memory 32 gb

molecule  {
0 1
  O        1.7029017    -0.6780000    -0.0436180
  N        0.1393260     1.0073400     0.0000030
  C        0.4225050    -0.2936560     0.0000000
  C       -0.5457690    -1.3124170    -0.0000030
  C       -1.8791730    -0.9359260    -0.0000020
  C       -2.2045600     0.4273250     0.0000020
  C       -1.1677370     1.3501220     0.0000040
  C        2.6948290     0.3578870    -0.0000010
  H       -0.2317940    -2.3512570    -0.0000050
  H       -2.6601020    -1.6923860    -0.0000030
  H       -3.2375940     0.7610840     0.0000020
  H       -1.3695760     2.4196570     0.0000060
  H        2.5921510     0.9846430     0.8882900
  H        2.5921450     0.9846480    -0.8882890
  H        3.6559850    -0.1549850    -0.0000060
units angstrom
no_reorient  #important for SAPT in psi4, default
symmetry c1  #important for SAPT in psi4, default
}

set PROPERTIES_ORIGIN ["COM"]
properties('MP2/aug-cc-pvtz', properties = ['dipole'])
--------------------------------------------------------------------------

    Molecular point group: c1
  Charge       = 0
  Multiplicity = 1
  Basis Set: AUG-CC-PVTZ
    Blend: AUG-CC-PVTZ
  Basis Set: (AUG-CC-PVTZ AUX)
    Blend: AUG-CC-PVTZ-JKFIT

    Orbital Energies [Eh]
    ---------------------

    Doubly Occupied:

       1A    -20.588683     2A    -15.559058     3A    -11.336974
       4A    -11.279787     5A    -11.276847     6A    -11.261830
       7A    -11.235154     8A    -11.231813     9A     -1.425872
      10A     -1.246299    11A     -1.087999    12A     -1.030943
      13A     -0.947993    14A     -0.863370    15A     -0.828550
      16A     -0.728414    17A     -0.686722    18A     -0.667687
      19A     -0.656843    20A     -0.619049    21A     -0.598462
      22A     -0.562193    23A     -0.546079    24A     -0.537656
      25A     -0.513418    26A     -0.479597    27A     -0.425932
      28A     -0.385399    29A     -0.322918

  @DF-RHF Final Energy:  -360.71635032532095

   => Energetics <=

    Nuclear Repulsion Energy =            351.0812093606072608
    One-Electron Energy =               -1185.7320407128195257
    Two-Electron Energy =                 473.9344810268912624
    Total Energy =                       -360.7163503253209456
  Basis Set: (AUG-CC-PVTZ AUX)
    Blend: AUG-CC-PVTZ-RI
    Molecular point group: c1

    Geometry (in Angstrom), charge = 0, multiplicity = 1:

       Center              X                  Y                   Z               Mass
    ------------   -----------------  -----------------  -----------------  -----------------
         O            1.717742134176    -0.671949472217    -0.037220828657    15.994914619570
         N            0.154166434176     1.013390527783     0.006400171343    14.003074004430
         C            0.437345434176    -0.287605472217     0.006397171343    12.000000000000
         C           -0.530928565824    -1.306366472217     0.006394171343    12.000000000000
         C           -1.864332565824    -0.929875472217     0.006395171343    12.000000000000
         C           -2.189719565824     0.433375527783     0.006399171343    12.000000000000
         C           -1.152896565824     1.356172527783     0.006401171343    12.000000000000
         C            2.709669434176     0.363937527783     0.006396171343    12.000000000000
         H           -0.216953565824    -2.345206472217     0.006392171343     1.007825032230
         H           -2.645261565824    -1.686335472217     0.006394171343     1.007825032230
         H           -3.222753565824     0.767134527783     0.006399171343     1.007825032230
         H           -1.354735565824     2.425707527783     0.006403171343     1.007825032230
         H            2.606991434176     0.990693527783     0.894687171343     1.007825032230
         H            2.606985434176     0.990698527783    -0.881891828657     1.007825032230
         H            3.670825434176    -0.148934472217     0.006391171343     1.007825032230

  Basis Set: AUG-CC-PVTZ
    Blend: AUG-CC-PVTZ
  Basis Set: (AUG-CC-PVTZ AUX)
    Blend: AUG-CC-PVTZ-JKFIT
	 Reference Energy          =    -360.7163503253209456 [Eh]
	 Singles Energy            =      -0.0000000000000000 [Eh]
	 Same-Spin Energy          =      -0.3785584501401413 [Eh]
	 Opposite-Spin Energy      =      -1.1782666391100594 [Eh]
	 Correlation Energy        =      -1.5568250892502007 [Eh]
	 Total Energy              =    -362.2731754145711420 [Eh]

	 ================> DF-SCS-MP2 Energies <==================
	-----------------------------------------------------------
	 SCS Same-Spin Scale       =       0.3333333333333333 [-]
	 SCS Opposite-Spin Scale   =       1.2000000000000000 [-]
	 SCS Same-Spin Energy      =      -0.1261861500467137 [Eh]
	 SCS Opposite-Spin Energy  =      -1.4139199669320712 [Eh]
	 SCS Correlation Energy    =      -1.5401061169787851 [Eh]
	 SCS Total Energy          =    -362.2564564422997364 [Eh]
	-----------------------------------------------------------

  Dipole Moment: [D]
     X:    -0.6143      Y:    -0.2841      Z:     0.0568     Total:     0.6792

*** Psi4 exiting successfully. Buy a developer a beer!
