                               Psi4 1.3.2 release

  ==> Input File <==

--------------------------------------------------------------------------
#psi4
#
memory 32 gb

molecule  {
0 1
  O        1.7203660    -0.6953490    -0.0000010
  N        0.1393260     1.0073400     0.0000030
  C        0.5180341    -0.3232226    -0.0000001
  C       -0.5457690    -1.3124170    -0.0000030
  C       -1.8791730    -0.9359260    -0.0000020
  C       -2.2045600     0.4273250     0.0000020
  C       -1.1677370     1.3501220     0.0000040
  C        2.6948290     0.3578870    -0.0000010
  H       -0.2317940    -2.3512570    -0.0000050
  H       -2.6601020    -1.6923860    -0.0000030
  H       -3.2375940     0.7610840     0.0000020
  H       -1.3695760     2.4196570     0.0000060
  H        2.5921510     0.9846430     0.8882900
  H        2.5921450     0.9846480    -0.8882890
  H        3.6559850    -0.1549850    -0.0000060
units angstrom
no_reorient  #important for SAPT in psi4, default
symmetry c1  #important for SAPT in psi4, default
}

set PROPERTIES_ORIGIN ["COM"]
properties('MP2/aug-cc-pvtz', properties = ['dipole'])
--------------------------------------------------------------------------

    Molecular point group: c1
  Charge       = 0
  Multiplicity = 1
  Basis Set: AUG-CC-PVTZ
    Blend: AUG-CC-PVTZ
  Basis Set: (AUG-CC-PVTZ AUX)
    Blend: AUG-CC-PVTZ-JKFIT

    Orbital Energies [Eh]
    ---------------------

    Doubly Occupied:

       1A    -20.611653     2A    -15.553828     3A    -11.347029
       4A    -11.288880     5A    -11.274872     6A    -11.256583
       7A    -11.233188     8A    -11.224212     9A     -1.475650
      10A     -1.225413    11A     -1.075728    12A     -1.029352
      13A     -0.962725    14A     -0.853163    15A     -0.826547
      16A     -0.741068    17A     -0.692921    18A     -0.680437
      19A     -0.670236    20A     -0.616658    21A     -0.591605
      22A     -0.560951    23A     -0.545198    24A     -0.542915
      25A     -0.523953    26A     -0.489852    27A     -0.405891
      28A     -0.377680    29A     -0.310298

  @DF-RHF Final Energy:  -360.70221376110317

   => Energetics <=

    Nuclear Repulsion Energy =            350.3758248508459019
    One-Electron Energy =               -1184.1791074448410654
    Two-Electron Energy =                 473.1010688328919969
    Total Energy =                       -360.7022137611031667
  Basis Set: (AUG-CC-PVTZ AUX)
    Blend: AUG-CC-PVTZ-RI
    Molecular point group: c1

    Geometry (in Angstrom), charge = 0, multiplicity = 1:

       Center              X                  Y                   Z               Mass
    ------------   -----------------  -----------------  -----------------  -----------------
         O            1.722133045322    -0.683500407579    -0.000001181336    15.994914619570
         N            0.141093045322     1.019188592421     0.000002818664    14.003074004430
         C            0.519801145322    -0.311374007579    -0.000000281336    12.000000000000
         C           -0.544001954678    -1.300568407579    -0.000003181336    12.000000000000
         C           -1.877405954678    -0.924077407579    -0.000002181336    12.000000000000
         C           -2.202792954678     0.439173592421     0.000001818664    12.000000000000
         C           -1.165969954678     1.361970592421     0.000003818664    12.000000000000
         C            2.696596045322     0.369735592421    -0.000001181336    12.000000000000
         H           -0.230026954678    -2.339408407579    -0.000005181336     1.007825032230
         H           -2.658334954678    -1.680537407579    -0.000003181336     1.007825032230
         H           -3.235826954678     0.772932592421     0.000001818664     1.007825032230
         H           -1.367808954678     2.431505592421     0.000005818664     1.007825032230
         H            2.593918045322     0.996491592421     0.888289818664     1.007825032230
         H            2.593912045322     0.996496592421    -0.888289181336     1.007825032230
         H            3.657752045322    -0.143136407579    -0.000006181336     1.007825032230

  Basis Set: AUG-CC-PVTZ
    Blend: AUG-CC-PVTZ
  Basis Set: (AUG-CC-PVTZ AUX)
    Blend: AUG-CC-PVTZ-JKFIT
	 Reference Energy          =    -360.7022137611031667 [Eh]
	 Singles Energy            =      -0.0000000000000000 [Eh]
	 Same-Spin Energy          =      -0.3789773436620096 [Eh]
	 Opposite-Spin Energy      =      -1.1789096462006272 [Eh]
	 Correlation Energy        =      -1.5578869898626369 [Eh]
	 Total Energy              =    -362.2601007509658189 [Eh]

	 ================> DF-SCS-MP2 Energies <==================
	-----------------------------------------------------------
	 SCS Same-Spin Scale       =       0.3333333333333333 [-]
	 SCS Opposite-Spin Scale   =       1.2000000000000000 [-]
	 SCS Same-Spin Energy      =      -0.1263257812206698 [Eh]
	 SCS Opposite-Spin Energy  =      -1.4146915754407525 [Eh]
	 SCS Correlation Energy    =      -1.5410173566614223 [Eh]
	 SCS Total Energy          =    -362.2432311177645943 [Eh]
	-----------------------------------------------------------

  Dipole Moment: [D]
     X:     0.2083      Y:    -0.3680      Z:    -0.0000     Total:     0.4229

*** Psi4 exiting successfully. Buy a developer a beer!
