                               Psi4 1.3.2 release

  ==> Input File <==

--------------------------------------------------------------------------
#psi4
#
memory 32 gb

molecule  {
0 1
  O        1.7203660    -0.6953490    -0.0000010
  N        0.1393260     1.0073400     0.0000030
  C        0.4536872    -0.2041003     0.0000000
  C       -0.5457690    -1.3124170    -0.0000030
  C       -1.8791730    -0.9359260    -0.0000020
  C       -2.2045600     0.4273250     0.0000020
  C       -1.1677370     1.3501220     0.0000040
  C        2.6948290     0.3578870    -0.0000010
  H       -0.2317940    -2.3512570    -0.0000050
  H       -2.6601020    -1.6923860    -0.0000030
  H       -3.2375940     0.7610840     0.0000020
  H       -1.3695760     2.4196570     0.0000060
  H        2.5921510     0.9846430     0.8882900
  H        2.5921450     0.9846480    -0.8882890
  H        3.6559850    -0.1549850    -0.0000060
units angstrom
no_reorient  #important for SAPT in psi4, default
symmetry c1  #important for SAPT in psi4, default
}

set PROPERTIES_ORIGIN ["COM"]
properties('MP2/aug-cc-pvtz', properties = ['dipole'])
--------------------------------------------------------------------------

    Molecular point group: c1
  Charge       = 0
  Multiplicity = 1
  Basis Set: AUG-CC-PVTZ
    Blend: AUG-CC-PVTZ
  Basis Set: (AUG-CC-PVTZ AUX)
    Blend: AUG-CC-PVTZ-JKFIT

    Orbital Energies [Eh]
    ---------------------

    Doubly Occupied:

       1A    -20.591953     2A    -15.555920     3A    -11.338437
       4A    -11.280101     5A    -11.274797     6A    -11.257150
       7A    -11.243568     8A    -11.234620     9A     -1.422985
      10A     -1.269430    11A     -1.089717    12A     -1.022207
      13A     -0.945851    14A     -0.869061    15A     -0.821370
      16A     -0.728544    17A     -0.690203    18A     -0.668313
      19A     -0.658032    20A     -0.618735    21A     -0.591264
      22A     -0.557508    23A     -0.551194    24A     -0.540142
      25A     -0.520619    26A     -0.479450    27A     -0.421307
      28A     -0.394270    29A     -0.319948

  @DF-RHF Final Energy:  -360.70627734931696

   => Energetics <=

    Nuclear Repulsion Energy =            350.8955610351128485
    One-Electron Energy =               -1185.2902880132473911
    Two-Electron Energy =                 473.6884496288175228
    Total Energy =                       -360.7062773493169630
  Basis Set: (AUG-CC-PVTZ AUX)
    Blend: AUG-CC-PVTZ-RI
    Molecular point group: c1

    Geometry (in Angstrom), charge = 0, multiplicity = 1:

       Center              X                  Y                   Z               Mass
    ------------   -----------------  -----------------  -----------------  -----------------
         O            1.729213680170    -0.696608443997    -0.000001192340    15.994914619570
         N            0.148173680170     1.006080556003     0.000002807660    14.003074004430
         C            0.462534880170    -0.205359743997    -0.000000192340    12.000000000000
         C           -0.536921319830    -1.313676443997    -0.000003192340    12.000000000000
         C           -1.870325319830    -0.937185443997    -0.000002192340    12.000000000000
         C           -2.195712319830     0.426065556003     0.000001807660    12.000000000000
         C           -1.158889319830     1.348862556003     0.000003807660    12.000000000000
         C            2.703676680170     0.356627556003    -0.000001192340    12.000000000000
         H           -0.222946319830    -2.352516443997    -0.000005192340     1.007825032230
         H           -2.651254319830    -1.693645443997    -0.000003192340     1.007825032230
         H           -3.228746319830     0.759824556003     0.000001807660     1.007825032230
         H           -1.360728319830     2.418397556003     0.000005807660     1.007825032230
         H            2.600998680170     0.983383556003     0.888289807660     1.007825032230
         H            2.600992680170     0.983388556003    -0.888289192340     1.007825032230
         H            3.664832680170    -0.156244443997    -0.000006192340     1.007825032230

  Basis Set: AUG-CC-PVTZ
    Blend: AUG-CC-PVTZ
  Basis Set: (AUG-CC-PVTZ AUX)
    Blend: AUG-CC-PVTZ-JKFIT
	 Reference Energy          =    -360.7062773493169630 [Eh]
	 Singles Energy            =      -0.0000000000000000 [Eh]
	 Same-Spin Energy          =      -0.3777080383865781 [Eh]
	 Opposite-Spin Energy      =      -1.1786041518941790 [Eh]
	 Correlation Energy        =      -1.5563121902807571 [Eh]
	 Total Energy              =    -362.2625895395977409 [Eh]

	 ================> DF-SCS-MP2 Energies <==================
	-----------------------------------------------------------
	 SCS Same-Spin Scale       =       0.3333333333333333 [-]
	 SCS Opposite-Spin Scale   =       1.2000000000000000 [-]
	 SCS Same-Spin Energy      =      -0.1259026794621927 [Eh]
	 SCS Opposite-Spin Energy  =      -1.4143249822730148 [Eh]
	 SCS Correlation Energy    =      -1.5402276617352075 [Eh]
	 SCS Total Energy          =    -362.2465050110521929 [Eh]
	-----------------------------------------------------------

  Dipole Moment: [D]
     X:    -0.6671      Y:    -0.1672      Z:    -0.0000     Total:     0.6878

*** Psi4 exiting successfully. Buy a developer a beer!
