                               Psi4 1.4a3.dev225

  ==> Input File <==

--------------------------------------------------------------------------
#psi4
#
memory 32 gb

molecule  {
0 1
  O        1.7203660    -0.6953490    -0.0000010
  N        0.1393260     1.0073400     0.0000030
  C        0.4118708    -0.2447999     0.0000001
  C       -0.5457690    -1.3124170    -0.0000030
  C       -1.8791730    -0.9359260    -0.0000020
  C       -2.2045600     0.4273250     0.0000020
  C       -1.1677370     1.3501220     0.0000040
  C        2.6948290     0.3578870    -0.0000010
  H       -0.2317940    -2.3512570    -0.0000050
  H       -2.6601020    -1.6923860    -0.0000030
  H       -3.2375940     0.7610840     0.0000020
  H       -1.3695760     2.4196570     0.0000060
  H        2.5921510     0.9846430     0.8882900
  H        2.5921450     0.9846480    -0.8882890
  H        3.6559850    -0.1549850    -0.0000060
units angstrom
no_reorient  #important for SAPT in psi4, default
symmetry c1  #important for SAPT in psi4, default
}

set PROPERTIES_ORIGIN ["COM"]
properties('MP2/aug-cc-pvtz', properties = ['dipole'])
--------------------------------------------------------------------------

    Molecular point group: c1
  Charge       = 0
  Multiplicity = 1
  Basis Set: AUG-CC-PVTZ
    Blend: AUG-CC-PVTZ
  Basis Set: (AUG-CC-PVTZ AUX)
    Blend: AUG-CC-PVTZ-JKFIT

    Orbital Energies [Eh]
    ---------------------

    Doubly Occupied:

       1A    -20.584555     2A    -15.560695     3A    -11.336953
       4A    -11.282114     5A    -11.271530     6A    -11.261741
       7A    -11.241227     8A    -11.235936     9A     -1.407809
      10A     -1.263193    11A     -1.092468    12A     -1.028094
      13A     -0.940351    14A     -0.868363    15A     -0.827589
      16A     -0.725632    17A     -0.686449    18A     -0.666633
      19A     -0.649736    20A     -0.618924    21A     -0.596330
      22A     -0.559505    23A     -0.550218    24A     -0.540608
      25A     -0.510489    26A     -0.474650    27A     -0.430258
      28A     -0.392100    29A     -0.326013

  @DF-RHF Final Energy:  -360.71319483434604

   => Energetics <=

    Nuclear Repulsion Energy =            350.7239346434063236
    One-Electron Energy =               -1185.0139316114234589
    Two-Electron Energy =                 473.5768021336710945
    Total Energy =                       -360.7131948343460408
  Basis Set: (AUG-CC-PVTZ AUX)
    Blend: AUG-CC-PVTZ-RI
    Molecular point group: c1

    Geometry (in Angstrom), charge = 0, multiplicity = 1:

       Center              X                  Y                   Z               Mass
    ------------   -----------------  -----------------  -----------------  -----------------
         O            1.733815093122    -0.692129922016    -0.000001203344    15.994914619570
         N            0.152775093122     1.010559077984     0.000002796656    14.003074004430
         C            0.425319893122    -0.241580822016    -0.000000103344    12.000000000000
         C           -0.532319906878    -1.309197922016    -0.000003203344    12.000000000000
         C           -1.865723906878    -0.932706922016    -0.000002203344    12.000000000000
         C           -2.191110906878     0.430544077984     0.000001796656    12.000000000000
         C           -1.154287906878     1.353341077984     0.000003796656    12.000000000000
         C            2.708278093122     0.361106077984    -0.000001203344    12.000000000000
         H           -0.218344906878    -2.348037922016    -0.000005203344     1.007825032230
         H           -2.646652906878    -1.689166922016    -0.000003203344     1.007825032230
         H           -3.224144906878     0.764303077984     0.000001796656     1.007825032230
         H           -1.356126906878     2.422876077984     0.000005796656     1.007825032230
         H            2.605600093122     0.987862077984     0.888289796656     1.007825032230
         H            2.605594093122     0.987867077984    -0.888289203344     1.007825032230
         H            3.669434093122    -0.151765922016    -0.000006203344     1.007825032230

  Basis Set: AUG-CC-PVTZ
    Blend: AUG-CC-PVTZ
  Basis Set: (AUG-CC-PVTZ AUX)
    Blend: AUG-CC-PVTZ-JKFIT
	 Reference Energy          =    -360.7131948343460408 [Eh]
	 Singles Energy            =      -0.0000000000000000 [Eh]
	 Same-Spin Energy          =      -0.3783412438992781 [Eh]
	 Opposite-Spin Energy      =      -1.1788736521636103 [Eh]
	 Correlation Energy        =      -1.5572148960628884 [Eh]
	 Total Energy              =    -362.2704097304089146 [Eh]

	 ================> DF-SCS-MP2 Energies <==================
	-----------------------------------------------------------
	 SCS Same-Spin Scale       =       0.3333333333333333 [-]
	 SCS Opposite-Spin Scale   =       1.2000000000000000 [-]
	 SCS Same-Spin Energy      =      -0.1261137479664260 [Eh]
	 SCS Opposite-Spin Energy  =      -1.4146483825963323 [Eh]
	 SCS Correlation Energy    =      -1.5407621305627583 [Eh]
	 SCS Total Energy          =    -362.2539569649088094 [Eh]
	-----------------------------------------------------------

  Dipole Moment: [D]
     X:    -0.9624      Y:    -0.1912      Z:    -0.0000     Total:     0.9812

*** Psi4 exiting successfully. Buy a developer a beer!
