                               Psi4 1.3.2 release

  ==> Input File <==

--------------------------------------------------------------------------
#psi4
#
memory 32 gb

molecule  {
0 1
  O        1.7271788    -0.6726370    -0.0000009
  N        0.1393260     1.0073400     0.0000030
  C        0.4225050    -0.2936560     0.0000000
  C       -0.5457690    -1.3124170    -0.0000030
  C       -1.8791730    -0.9359260    -0.0000020
  C       -2.2045600     0.4273250     0.0000020
  C       -1.1677370     1.3501220     0.0000040
  C        2.6948290     0.3578870    -0.0000010
  H       -0.2317940    -2.3512570    -0.0000050
  H       -2.6601020    -1.6923860    -0.0000030
  H       -3.2375940     0.7610840     0.0000020
  H       -1.3695760     2.4196570     0.0000060
  H        2.5921510     0.9846430     0.8882900
  H        2.5921450     0.9846480    -0.8882890
  H        3.6559850    -0.1549850    -0.0000060
units angstrom
no_reorient  #important for SAPT in psi4, default
symmetry c1  #important for SAPT in psi4, default
}

set PROPERTIES_ORIGIN ["COM"]
properties('MP2/aug-cc-pvtz', properties = ['dipole'])
--------------------------------------------------------------------------

    Molecular point group: c1
  Charge       = 0
  Multiplicity = 1
  Basis Set: AUG-CC-PVTZ
    Blend: AUG-CC-PVTZ
  Basis Set: (AUG-CC-PVTZ AUX)
    Blend: AUG-CC-PVTZ-JKFIT

    Orbital Energies [Eh]
    ---------------------

    Doubly Occupied:

       1A    -20.587122     2A    -15.561610     3A    -11.339229
       4A    -11.281177     5A    -11.272485     6A    -11.263486
       7A    -11.237884     8A    -11.234079     9A     -1.421750
      10A     -1.248725    11A     -1.089618    12A     -1.032811
      13A     -0.945109    14A     -0.864334    15A     -0.829576
      16A     -0.728525    17A     -0.686289    18A     -0.668506
      19A     -0.656183    20A     -0.620454    21A     -0.600283
      22A     -0.564647    23A     -0.545793    24A     -0.538634
      25A     -0.508617    26A     -0.475991    27A     -0.427933
      28A     -0.386775    29A     -0.325777

  @DF-RHF Final Energy:  -360.71624473898783

   => Energetics <=

    Nuclear Repulsion Energy =            350.7879210652180859
    One-Electron Energy =               -1185.1215261754457515
    Two-Electron Energy =                 473.6173603712397835
    Total Energy =                       -360.7162447389878253
  Basis Set: (AUG-CC-PVTZ AUX)
    Blend: AUG-CC-PVTZ-RI
    Molecular point group: c1

    Geometry (in Angstrom), charge = 0, multiplicity = 1:

       Center              X                  Y                   Z               Mass
    ------------   -----------------  -----------------  -----------------  -----------------
         O            1.738458479474    -0.667373070595    -0.000001107007    15.994914619570
         N            0.150605679474     1.012603929405     0.000002792993    14.003074004430
         C            0.433784679474    -0.288392070595    -0.000000207007    12.000000000000
         C           -0.534489320526    -1.307153070595    -0.000003207007    12.000000000000
         C           -1.867893320526    -0.930662070595    -0.000002207007    12.000000000000
         C           -2.193280320526     0.432588929405     0.000001792993    12.000000000000
         C           -1.156457320526     1.355385929405     0.000003792993    12.000000000000
         C            2.706108679474     0.363150929405    -0.000001207007    12.000000000000
         H           -0.220514320526    -2.345993070595    -0.000005207007     1.007825032230
         H           -2.648822320526    -1.687122070595    -0.000003207007     1.007825032230
         H           -3.226314320526     0.766347929405     0.000001792993     1.007825032230
         H           -1.358296320526     2.424920929405     0.000005792993     1.007825032230
         H            2.603430679474     0.989906929405     0.888289792993     1.007825032230
         H            2.603424679474     0.989911929405    -0.888289207007     1.007825032230
         H            3.667264679474    -0.149721070595    -0.000006207007     1.007825032230

  Basis Set: AUG-CC-PVTZ
    Blend: AUG-CC-PVTZ
  Basis Set: (AUG-CC-PVTZ AUX)
    Blend: AUG-CC-PVTZ-JKFIT
	 Reference Energy          =    -360.7162447389878253 [Eh]
	 Singles Energy            =      -0.0000000000000000 [Eh]
	 Same-Spin Energy          =      -0.3786483467911268 [Eh]
	 Opposite-Spin Energy      =      -1.1783802682944478 [Eh]
	 Correlation Energy        =      -1.5570286150855746 [Eh]
	 Total Energy              =    -362.2732733540734102 [Eh]

	 ================> DF-SCS-MP2 Energies <==================
	-----------------------------------------------------------
	 SCS Same-Spin Scale       =       0.3333333333333333 [-]
	 SCS Opposite-Spin Scale   =       1.2000000000000000 [-]
	 SCS Same-Spin Energy      =      -0.1262161155970423 [Eh]
	 SCS Opposite-Spin Energy  =      -1.4140563219533373 [Eh]
	 SCS Correlation Energy    =      -1.5402724375503796 [Eh]
	 SCS Total Energy          =    -362.2565171765381820 [Eh]
	-----------------------------------------------------------

  Dipole Moment: [D]
     X:    -0.8414      Y:    -0.3012      Z:    -0.0000     Total:     0.8937

*** Psi4 exiting successfully. Buy a developer a beer!
