                               Psi4 1.3.2 release

  ==> Input File <==

--------------------------------------------------------------------------
#psi4
#
memory 32 gb

molecule  {
0 1
  O        1.7203660    -0.6953490    -0.0000010
  N        0.1393260     1.0073400     0.0000030
  C        0.4156922    -0.3163680    -0.0000000
  C       -0.5457690    -1.3124170    -0.0000030
  C       -1.8791730    -0.9359260    -0.0000020
  C       -2.2045600     0.4273250     0.0000020
  C       -1.1677370     1.3501220     0.0000040
  C        2.6948290     0.3578870    -0.0000010
  H       -0.2317940    -2.3512570    -0.0000050
  H       -2.6601020    -1.6923860    -0.0000030
  H       -3.2375940     0.7610840     0.0000020
  H       -1.3695760     2.4196570     0.0000060
  H        2.5921510     0.9846430     0.8882900
  H        2.5921450     0.9846480    -0.8882890
  H        3.6559850    -0.1549850    -0.0000060
units angstrom
no_reorient  #important for SAPT in psi4, default
symmetry c1  #important for SAPT in psi4, default
}

set PROPERTIES_ORIGIN ["COM"]
properties('MP2/aug-cc-pvtz', properties = ['dipole'])
--------------------------------------------------------------------------

    Molecular point group: c1
  Charge       = 0
  Multiplicity = 1
  Basis Set: AUG-CC-PVTZ
    Blend: AUG-CC-PVTZ
  Basis Set: (AUG-CC-PVTZ AUX)
    Blend: AUG-CC-PVTZ-JKFIT

    Orbital Energies [Eh]
    ---------------------

    Doubly Occupied:

       1A    -20.587390     2A    -15.562870     3A    -11.337811
       4A    -11.281106     5A    -11.274843     6A    -11.263950
       7A    -11.234574     8A    -11.233584     9A     -1.415736
      10A     -1.243322    11A     -1.089324    12A     -1.032867
      13A     -0.944623    14A     -0.862794    15A     -0.830818
      16A     -0.726561    17A     -0.684297    18A     -0.666810
      19A     -0.652147    20A     -0.620261    21A     -0.598505
      22A     -0.562894    23A     -0.545202    24A     -0.537975
      25A     -0.510406    26A     -0.478076    27A     -0.427861
      28A     -0.384959    29A     -0.326510

  @DF-RHF Final Energy:  -360.71434420958190

   => Energetics <=

    Nuclear Repulsion Energy =            350.3803191818690834
    One-Electron Energy =               -1184.3531739714110245
    Two-Electron Energy =                 473.2585105799601024
    Total Energy =                       -360.7143442095818955
  Basis Set: (AUG-CC-PVTZ AUX)
    Blend: AUG-CC-PVTZ-RI
    Molecular point group: c1

    Geometry (in Angstrom), charge = 0, multiplicity = 1:

       Center              X                  Y                   Z               Mass
    ------------   -----------------  -----------------  -----------------  -----------------
         O            1.733394592088    -0.684254677321    -0.000001192340    15.994914619570
         N            0.152354592088     1.018434322679     0.000002807660    14.003074004430
         C            0.428720792088    -0.305273677321    -0.000000192340    12.000000000000
         C           -0.532740407912    -1.301322677321    -0.000003192340    12.000000000000
         C           -1.866144407912    -0.924831677321    -0.000002192340    12.000000000000
         C           -2.191531407912     0.438419322679     0.000001807660    12.000000000000
         C           -1.154708407912     1.361216322679     0.000003807660    12.000000000000
         C            2.707857592088     0.368981322679    -0.000001192340    12.000000000000
         H           -0.218765407912    -2.340162677321    -0.000005192340     1.007825032230
         H           -2.647073407912    -1.681291677321    -0.000003192340     1.007825032230
         H           -3.224565407912     0.772178322679     0.000001807660     1.007825032230
         H           -1.356547407912     2.430751322679     0.000005807660     1.007825032230
         H            2.605179592088     0.995737322679     0.888289807660     1.007825032230
         H            2.605173592088     0.995742322679    -0.888289192340     1.007825032230
         H            3.669013592088    -0.143890677321    -0.000006192340     1.007825032230

  Basis Set: AUG-CC-PVTZ
    Blend: AUG-CC-PVTZ
  Basis Set: (AUG-CC-PVTZ AUX)
    Blend: AUG-CC-PVTZ-JKFIT
	 Reference Energy          =    -360.7143442095818955 [Eh]
	 Singles Energy            =      -0.0000000000000000 [Eh]
	 Same-Spin Energy          =      -0.3789808549058361 [Eh]
	 Opposite-Spin Energy      =      -1.1792686675101927 [Eh]
	 Correlation Energy        =      -1.5582495224160287 [Eh]
	 Total Energy              =    -362.2725937319979153 [Eh]

	 ================> DF-SCS-MP2 Energies <==================
	-----------------------------------------------------------
	 SCS Same-Spin Scale       =       0.3333333333333333 [-]
	 SCS Opposite-Spin Scale   =       1.2000000000000000 [-]
	 SCS Same-Spin Energy      =      -0.1263269516352787 [Eh]
	 SCS Opposite-Spin Energy  =      -1.4151224010122312 [Eh]
	 SCS Correlation Energy    =      -1.5414493526475099 [Eh]
	 SCS Total Energy          =    -362.2557935622294281 [Eh]
	-----------------------------------------------------------

  Dipole Moment: [D]
     X:    -0.8017      Y:    -0.2574      Z:    -0.0000     Total:     0.8420

*** Psi4 exiting successfully. Buy a developer a beer!
