                               Psi4 1.3.2 release

  ==> Input File <==

--------------------------------------------------------------------------
#psi4
#
memory 32 gb

molecule  {
0 1
  O        1.7114841    -0.6868336    -0.0218128
  N        0.1393260     1.0073400     0.0000030
  C        0.4225050    -0.2936560     0.0000000
  C       -0.5457690    -1.3124170    -0.0000030
  C       -1.8791730    -0.9359260    -0.0000020
  C       -2.2045600     0.4273250     0.0000020
  C       -1.1677370     1.3501220     0.0000040
  C        2.6948290     0.3578870    -0.0000010
  H       -0.2317940    -2.3512570    -0.0000050
  H       -2.6601020    -1.6923860    -0.0000030
  H       -3.2375940     0.7610840     0.0000020
  H       -1.3695760     2.4196570     0.0000060
  H        2.5921510     0.9846430     0.8882900
  H        2.5921450     0.9846480    -0.8882890
  H        3.6559850    -0.1549850    -0.0000060
units angstrom
no_reorient  #important for SAPT in psi4, default
symmetry c1  #important for SAPT in psi4, default
}

set PROPERTIES_ORIGIN ["COM"]
properties('MP2/aug-cc-pvtz', properties = ['dipole'])
--------------------------------------------------------------------------

    Molecular point group: c1
  Charge       = 0
  Multiplicity = 1
  Basis Set: AUG-CC-PVTZ
    Blend: AUG-CC-PVTZ
  Basis Set: (AUG-CC-PVTZ AUX)
    Blend: AUG-CC-PVTZ-JKFIT

    Orbital Energies [Eh]
    ---------------------

    Doubly Occupied:

       1A    -20.588581     2A    -15.560301     3A    -11.337665
       4A    -11.280352     5A    -11.275845     6A    -11.262253
       7A    -11.235914     8A    -11.232686     9A     -1.421637
      10A     -1.247132    11A     -1.088523    12A     -1.030872
      13A     -0.946442    14A     -0.863397    15A     -0.829168
      16A     -0.727636    17A     -0.685904    18A     -0.667575
      19A     -0.655081    20A     -0.619304    21A     -0.598049
      22A     -0.561949    23A     -0.546130    24A     -0.538090
      25A     -0.513109    26A     -0.479054    27A     -0.426651
      28A     -0.385903    29A     -0.324034

  @DF-RHF Final Energy:  -360.71618795656633

   => Energetics <=

    Nuclear Repulsion Energy =            350.7826528427148673
    One-Electron Energy =               -1185.1392165628446946
    Two-Electron Energy =                 473.6403757635634406
    Total Energy =                       -360.7161879565663298
  Basis Set: (AUG-CC-PVTZ AUX)
    Blend: AUG-CC-PVTZ-RI
    Molecular point group: c1

    Geometry (in Angstrom), charge = 0, multiplicity = 1:

       Center              X                  Y                   Z               Mass
    ------------   -----------------  -----------------  -----------------  -----------------
         O            1.725065742098    -0.679487436299    -0.018613826483    15.994914619570
         N            0.152907642098     1.014686163701     0.003201973517    14.003074004430
         C            0.436086642098    -0.286309836299     0.003198973517    12.000000000000
         C           -0.532187357902    -1.305070836299     0.003195973517    12.000000000000
         C           -1.865591357902    -0.928579836299     0.003196973517    12.000000000000
         C           -2.190978357902     0.434671163701     0.003200973517    12.000000000000
         C           -1.154155357902     1.357468163701     0.003202973517    12.000000000000
         C            2.708410642098     0.365233163701     0.003197973517    12.000000000000
         H           -0.218212357902    -2.343910836299     0.003193973517     1.007825032230
         H           -2.646520357902    -1.685039836299     0.003195973517     1.007825032230
         H           -3.224012357902     0.768430163701     0.003200973517     1.007825032230
         H           -1.355994357902     2.427003163701     0.003204973517     1.007825032230
         H            2.605732642098     0.991989163701     0.891488973517     1.007825032230
         H            2.605726642098     0.991994163701    -0.885090026483     1.007825032230
         H            3.669566642098    -0.147638836299     0.003192973517     1.007825032230

  Basis Set: AUG-CC-PVTZ
    Blend: AUG-CC-PVTZ
  Basis Set: (AUG-CC-PVTZ AUX)
    Blend: AUG-CC-PVTZ-JKFIT
	 Reference Energy          =    -360.7161879565663298 [Eh]
	 Singles Energy            =      -0.0000000000000000 [Eh]
	 Same-Spin Energy          =      -0.3786590489685271 [Eh]
	 Opposite-Spin Energy      =      -1.1786135877076962 [Eh]
	 Correlation Energy        =      -1.5572726366762233 [Eh]
	 Total Energy              =    -362.2734605932425325 [Eh]

	 ================> DF-SCS-MP2 Energies <==================
	-----------------------------------------------------------
	 SCS Same-Spin Scale       =       0.3333333333333333 [-]
	 SCS Opposite-Spin Scale   =       1.2000000000000000 [-]
	 SCS Same-Spin Energy      =      -0.1262196829895090 [Eh]
	 SCS Opposite-Spin Energy  =      -1.4143363052492355 [Eh]
	 SCS Correlation Energy    =      -1.5405559882387445 [Eh]
	 SCS Total Energy          =    -362.2567439448050663 [Eh]
	-----------------------------------------------------------

  Dipole Moment: [D]
     X:    -0.6941      Y:    -0.2665      Z:     0.0286     Total:     0.7441

*** Psi4 exiting successfully. Buy a developer a beer!
