                               Psi4 1.4a3.dev225

  ==> Input File <==

--------------------------------------------------------------------------
#psi4
#
memory 32 gb

molecule  {
0 1
  O        1.7203660    -0.6953490    -0.0000010
  N        0.1393260     1.0073400     0.0000030
  C        0.4267587    -0.3131984    -0.0000000
  C       -0.5457690    -1.3124170    -0.0000030
  C       -1.8791730    -0.9359260    -0.0000020
  C       -2.2045600     0.4273250     0.0000020
  C       -1.1677370     1.3501220     0.0000040
  C        2.6948290     0.3578870    -0.0000010
  H       -0.2317940    -2.3512570    -0.0000050
  H       -2.6601020    -1.6923860    -0.0000030
  H       -3.2375940     0.7610840     0.0000020
  H       -1.3695760     2.4196570     0.0000060
  H        2.5921510     0.9846430     0.8882900
  H        2.5921450     0.9846480    -0.8882890
  H        3.6559850    -0.1549850    -0.0000060
units angstrom
no_reorient  #important for SAPT in psi4, default
symmetry c1  #important for SAPT in psi4, default
}

set PROPERTIES_ORIGIN ["COM"]
properties('MP2/aug-cc-pvtz', properties = ['dipole'])
--------------------------------------------------------------------------

    Molecular point group: c1
  Charge       = 0
  Multiplicity = 1
  Basis Set: AUG-CC-PVTZ
    Blend: AUG-CC-PVTZ
  Basis Set: (AUG-CC-PVTZ AUX)
    Blend: AUG-CC-PVTZ-JKFIT

    Orbital Energies [Eh]
    ---------------------

    Doubly Occupied:

       1A    -20.589825     2A    -15.561821     3A    -11.338719
       4A    -11.280472     5A    -11.276117     6A    -11.263037
       7A    -11.234862     8A    -11.232759     9A     -1.421136
      10A     -1.242441    11A     -1.087874    12A     -1.031888
      13A     -0.946546    14A     -0.861851    15A     -0.830274
      16A     -0.727533    17A     -0.684838    18A     -0.667588
      19A     -0.654710    20A     -0.619797    21A     -0.598044
      22A     -0.562762    23A     -0.544849    24A     -0.537705
      25A     -0.513181    26A     -0.479648    27A     -0.425795
      28A     -0.384491    29A     -0.324782

  @DF-RHF Final Energy:  -360.71480721013461

   => Energetics <=

    Nuclear Repulsion Energy =            350.3843506102565470
    One-Electron Energy =               -1184.3476235383836865
    Two-Electron Energy =                 473.2484657179925307
    Total Energy =                       -360.7148072101346088
  Basis Set: (AUG-CC-PVTZ AUX)
    Blend: AUG-CC-PVTZ-RI
    Molecular point group: c1

    Geometry (in Angstrom), charge = 0, multiplicity = 1:

       Center              X                  Y                   Z               Mass
    ------------   -----------------  -----------------  -----------------  -----------------
         O            1.732176851287    -0.684603455276    -0.000001192340    15.994914619570
         N            0.151136851287     1.018085544724     0.000002807660    14.003074004430
         C            0.438569551287    -0.302452855276    -0.000000192340    12.000000000000
         C           -0.533958148713    -1.301671455276    -0.000003192340    12.000000000000
         C           -1.867362148713    -0.925180455276    -0.000002192340    12.000000000000
         C           -2.192749148713     0.438070544724     0.000001807660    12.000000000000
         C           -1.155926148713     1.360867544724     0.000003807660    12.000000000000
         C            2.706639851287     0.368632544724    -0.000001192340    12.000000000000
         H           -0.219983148713    -2.340511455276    -0.000005192340     1.007825032230
         H           -2.648291148713    -1.681640455276    -0.000003192340     1.007825032230
         H           -3.225783148713     0.771829544724     0.000001807660     1.007825032230
         H           -1.357765148713     2.430402544724     0.000005807660     1.007825032230
         H            2.603961851287     0.995388544724     0.888289807660     1.007825032230
         H            2.603955851287     0.995393544724    -0.888289192340     1.007825032230
         H            3.667795851287    -0.144239455276    -0.000006192340     1.007825032230

  Basis Set: AUG-CC-PVTZ
    Blend: AUG-CC-PVTZ
  Basis Set: (AUG-CC-PVTZ AUX)
    Blend: AUG-CC-PVTZ-JKFIT
	 Reference Energy          =    -360.7148072101346088 [Eh]
	 Singles Energy            =      -0.0000000000000000 [Eh]
	 Same-Spin Energy          =      -0.3789244367096862 [Eh]
	 Opposite-Spin Energy      =      -1.1791274774879090 [Eh]
	 Correlation Energy        =      -1.5580519141975953 [Eh]
	 Total Energy              =    -362.2728591243322285 [Eh]

	 ================> DF-SCS-MP2 Energies <==================
	-----------------------------------------------------------
	 SCS Same-Spin Scale       =       0.3333333333333333 [-]
	 SCS Opposite-Spin Scale   =       1.2000000000000000 [-]
	 SCS Same-Spin Energy      =      -0.1263081455698954 [Eh]
	 SCS Opposite-Spin Energy  =      -1.4149529729854908 [Eh]
	 SCS Correlation Energy    =      -1.5412611185553862 [Eh]
	 SCS Total Energy          =    -362.2560683286899916 [Eh]
	-----------------------------------------------------------

  Dipole Moment: [D]
     X:    -0.7043      Y:    -0.2663      Z:    -0.0000     Total:     0.7530

*** Psi4 exiting successfully. Buy a developer a beer!
