                               Psi4 1.4a3.dev225

  ==> Input File <==

--------------------------------------------------------------------------
#psi4
#
memory 32 gb

molecule  {
0 1
  O        1.7203660    -0.6953490    -0.0000010
  N        0.1393260     1.0073400     0.0000030
  C        0.4416108    -0.2995693    -0.0000000
  C       -0.5457690    -1.3124170    -0.0000030
  C       -1.8791730    -0.9359260    -0.0000020
  C       -2.2045600     0.4273250     0.0000020
  C       -1.1677370     1.3501220     0.0000040
  C        2.6948290     0.3578870    -0.0000010
  H       -0.2317940    -2.3512570    -0.0000050
  H       -2.6601020    -1.6923860    -0.0000030
  H       -3.2375940     0.7610840     0.0000020
  H       -1.3695760     2.4196570     0.0000060
  H        2.5921510     0.9846430     0.8882900
  H        2.5921450     0.9846480    -0.8882890
  H        3.6559850    -0.1549850    -0.0000060
units angstrom
no_reorient  #important for SAPT in psi4, default
symmetry c1  #important for SAPT in psi4, default
}

set PROPERTIES_ORIGIN ["COM"]
properties('MP2/aug-cc-pvtz', properties = ['dipole'])
--------------------------------------------------------------------------

    Molecular point group: c1
  Charge       = 0
  Multiplicity = 1
  Basis Set: AUG-CC-PVTZ
    Blend: AUG-CC-PVTZ
  Basis Set: (AUG-CC-PVTZ AUX)
    Blend: AUG-CC-PVTZ-JKFIT

    Orbital Energies [Eh]
    ---------------------

    Doubly Occupied:

       1A    -20.592889     2A    -15.560133     3A    -11.339919
       4A    -11.279729     5A    -11.277456     6A    -11.261501
       7A    -11.236056     8A    -11.231894     9A     -1.427671
      10A     -1.243545    11A     -1.086333    12A     -1.029993
      13A     -0.948639    14A     -0.861272    15A     -0.829095
      16A     -0.728854    17A     -0.685928    18A     -0.668529
      19A     -0.657988    20A     -0.619125    21A     -0.596914
      22A     -0.562043    23A     -0.544939    24A     -0.537687
      25A     -0.517061    26A     -0.481390    27A     -0.423305
      28A     -0.384665    29A     -0.322395

  @DF-RHF Final Energy:  -360.71528031722715

   => Energetics <=

    Nuclear Repulsion Energy =            350.4340373207169819
    One-Electron Energy =               -1184.4247388620049151
    Two-Electron Energy =                 473.2754212240608354
    Total Energy =                       -360.7152803172271547
  Basis Set: (AUG-CC-PVTZ AUX)
    Blend: AUG-CC-PVTZ-RI
    Molecular point group: c1

    Geometry (in Angstrom), charge = 0, multiplicity = 1:

       Center              X                  Y                   Z               Mass
    ------------   -----------------  -----------------  -----------------  -----------------
         O            1.730542548829    -0.686103180677    -0.000001192340    15.994914619570
         N            0.149502548829     1.016585819323     0.000002807660    14.003074004430
         C            0.451787348829    -0.290323480677    -0.000000192340    12.000000000000
         C           -0.535592451171    -1.303171180677    -0.000003192340    12.000000000000
         C           -1.868996451171    -0.926680180677    -0.000002192340    12.000000000000
         C           -2.194383451171     0.436570819323     0.000001807660    12.000000000000
         C           -1.157560451171     1.359367819323     0.000003807660    12.000000000000
         C            2.705005548829     0.367132819323    -0.000001192340    12.000000000000
         H           -0.221617451171    -2.342011180677    -0.000005192340     1.007825032230
         H           -2.649925451171    -1.683140180677    -0.000003192340     1.007825032230
         H           -3.227417451171     0.770329819323     0.000001807660     1.007825032230
         H           -1.359399451171     2.428902819323     0.000005807660     1.007825032230
         H            2.602327548829     0.993888819323     0.888289807660     1.007825032230
         H            2.602321548829     0.993893819323    -0.888289192340     1.007825032230
         H            3.666161548829    -0.145739180677    -0.000006192340     1.007825032230

  Basis Set: AUG-CC-PVTZ
    Blend: AUG-CC-PVTZ
  Basis Set: (AUG-CC-PVTZ AUX)
    Blend: AUG-CC-PVTZ-JKFIT
	 Reference Energy          =    -360.7152803172271547 [Eh]
	 Singles Energy            =      -0.0000000000000000 [Eh]
	 Same-Spin Energy          =      -0.3787716559770483 [Eh]
	 Opposite-Spin Energy      =      -1.1788841270565804 [Eh]
	 Correlation Energy        =      -1.5576557830336286 [Eh]
	 Total Energy              =    -362.2729361002607789 [Eh]

	 ================> DF-SCS-MP2 Energies <==================
	-----------------------------------------------------------
	 SCS Same-Spin Scale       =       0.3333333333333333 [-]
	 SCS Opposite-Spin Scale   =       1.2000000000000000 [-]
	 SCS Same-Spin Energy      =      -0.1262572186590161 [Eh]
	 SCS Opposite-Spin Energy  =      -1.4146609524678964 [Eh]
	 SCS Correlation Energy    =      -1.5409181711269124 [Eh]
	 SCS Total Energy          =    -362.2561984883540731 [Eh]
	-----------------------------------------------------------

  Dipole Moment: [D]
     X:    -0.5898      Y:    -0.2716      Z:    -0.0000     Total:     0.6493

*** Psi4 exiting successfully. Buy a developer a beer!
