                               Psi4 1.3.2 release

  ==> Input File <==

--------------------------------------------------------------------------
#psi4
#
memory 32 gb

molecule  {
0 1
 Br       -1.9526460    -0.0000120     0.1900160
 Br        0.6794840    -1.5903300    -0.6027370
 Br        0.6794630     1.5903430    -0.6027300
  C        0.4130850    -0.0000010     1.7854520
  C        0.0310335    -0.0447252     0.3113267
  C        1.9178350     0.0000000     2.0258460
  H       -0.0503490     0.8836850     2.2377410
  H       -0.0503460    -0.8836890     2.2377380
  H        2.3836370     0.8873060     1.5930820
  H        2.1087990    -0.0000020     3.1023230
  H        2.3836390    -0.8873020     1.5930780
units angstrom
no_reorient  #important for SAPT in psi4, default
symmetry c1  #important for SAPT in psi4, default
}

set PROPERTIES_ORIGIN ["COM"]
properties('MP2/aug-cc-pvtz', properties = ['dipole'])
--------------------------------------------------------------------------

    Molecular point group: c1
  Charge       = 0
  Multiplicity = 1
  Basis Set: AUG-CC-PVTZ
    Blend: AUG-CC-PVTZ
  Basis Set: (AUG-CC-PVTZ AUX)
    Blend: AUG-CC-PVTZ-JKFIT

    Orbital Energies [Eh]
    ---------------------

    Doubly Occupied:

       1A   -490.046459     2A   -490.037634     3A   -490.037075
       4A    -65.186405     5A    -65.177376     6A    -65.176772
       7A    -58.541778     8A    -58.540169     9A    -58.540151
      10A    -58.532773    11A    -58.532171    12A    -58.531145
      13A    -58.531131    14A    -58.530532    15A    -58.530527
      16A    -11.421428    17A    -11.267736    18A    -11.233831
      19A     -9.859383    20A     -9.849972    21A     -9.849335
      22A     -7.471431    23A     -7.463759    24A     -7.463702
      25A     -7.461846    26A     -7.461202    27A     -7.454356
      28A     -7.454308    29A     -7.453676    30A     -7.453667
      31A     -3.215425    32A     -3.211376    33A     -3.211292
      34A     -3.205720    35A     -3.205078    36A     -3.201904
      37A     -3.201837    38A     -3.201449    39A     -3.201446
      40A     -3.201241    41A     -3.201229    42A     -3.192109
      43A     -3.192105    44A     -3.191446    45A     -3.191445
      46A     -1.168772    47A     -1.044222    48A     -1.022438
      49A     -1.011356    50A     -0.902369    51A     -0.766346
      52A     -0.655891    53A     -0.630406    54A     -0.590141
      55A     -0.562822    56A     -0.531950    57A     -0.516545
      58A     -0.501494    59A     -0.450413    60A     -0.442895
      61A     -0.429826    62A     -0.413314    63A     -0.408140
      64A     -0.398622

  @DF-RHF Final Energy: -7833.91996230404766

   => Energetics <=

    Nuclear Repulsion Energy =           1131.9800827385670345
    One-Electron Energy =              -13164.6704996881289844
    Two-Electron Energy =                4198.7704546455133823
    Total Energy =                      -7833.9199623040476581
  Basis Set: (AUG-CC-PVTZ AUX)
    Blend: AUG-CC-PVTZ-RI
    Molecular point group: c1

    Geometry (in Angstrom), charge = 0, multiplicity = 1:

       Center              X                  Y                   Z               Mass
    ------------   -----------------  -----------------  -----------------  -----------------
         BR          -1.910593641971     0.001919781215     0.261356663378    78.918337600000
         BR           0.721536358029    -1.588398218785    -0.531396336622    78.918337600000
         BR           0.721515358029     1.592274781215    -0.531389336622    78.918337600000
         C            0.455137358029     0.001930781215     1.856792663378    12.000000000000
         C            0.073085858029    -0.042793418785     0.382667363378    12.000000000000
         C            1.959887358029     0.001931781215     2.097186663378    12.000000000000
         H           -0.008296641971     0.885616781215     2.309081663378     1.007825032230
         H           -0.008293641971    -0.881757218785     2.309078663378     1.007825032230
         H            2.425689358029     0.889237781215     1.664422663378     1.007825032230
         H            2.150851358029     0.001929781215     3.173663663378     1.007825032230
         H            2.425691358029    -0.885370218785     1.664418663378     1.007825032230

  Basis Set: AUG-CC-PVTZ
    Blend: AUG-CC-PVTZ
  Basis Set: (AUG-CC-PVTZ AUX)
    Blend: AUG-CC-PVTZ-JKFIT
	 Reference Energy          =   -7833.9199623040476581 [Eh]
	 Singles Energy            =      -0.0000000000000000 [Eh]
	 Same-Spin Energy          =      -0.4052696329577243 [Eh]
	 Opposite-Spin Energy      =      -1.0667251168918468 [Eh]
	 Correlation Energy        =      -1.4719947498495711 [Eh]
	 Total Energy              =   -7835.3919570538973858 [Eh]

	 ================> DF-SCS-MP2 Energies <==================
	-----------------------------------------------------------
	 SCS Same-Spin Scale       =       0.3333333333333333 [-]
	 SCS Opposite-Spin Scale   =       1.2000000000000000 [-]
	 SCS Same-Spin Energy      =      -0.1350898776525747 [Eh]
	 SCS Opposite-Spin Energy  =      -1.2800701402702162 [Eh]
	 SCS Correlation Energy    =      -1.4151600179227910 [Eh]
	 SCS Total Energy          =   -7835.3351223219706299 [Eh]
	-----------------------------------------------------------

  Dipole Moment: [D]
     X:     0.8386      Y:    -0.2221      Z:     1.6462     Total:     1.8608

*** Psi4 exiting successfully. Buy a developer a beer!
