                               Psi4 1.3.2 release

  ==> Input File <==

--------------------------------------------------------------------------
#psi4
#
memory 32 gb

molecule  {
0 1
 Br       -1.9526460    -0.0000120     0.1900160
 Br        0.6794840    -1.5903300    -0.6027370
 Br        0.6794630     1.5903430    -0.6027300
  C        0.4130850    -0.0000010     1.7854520
  C        0.1064451     0.0000001     0.2931447
  C        1.9178350     0.0000000     2.0258460
  H       -0.0503490     0.8836850     2.2377410
  H       -0.0503460    -0.8836890     2.2377380
  H        2.3836370     0.8873060     1.5930820
  H        2.1087990    -0.0000020     3.1023230
  H        2.3836390    -0.8873020     1.5930780
units angstrom
no_reorient  #important for SAPT in psi4, default
symmetry c1  #important for SAPT in psi4, default
}

set PROPERTIES_ORIGIN ["COM"]
properties('MP2/aug-cc-pvtz', properties = ['dipole'])
--------------------------------------------------------------------------

    Molecular point group: c1
  Charge       = 0
  Multiplicity = 1
  Basis Set: AUG-CC-PVTZ
    Blend: AUG-CC-PVTZ
  Basis Set: (AUG-CC-PVTZ AUX)
    Blend: AUG-CC-PVTZ-JKFIT

    Orbital Energies [Eh]
    ---------------------

    Doubly Occupied:

       1A   -490.046739     2A   -490.046739     3A   -490.027159
       4A    -65.186650     5A    -65.186650     6A    -65.166779
       7A    -58.542031     8A    -58.542031     9A    -58.540408
      10A    -58.540408    11A    -58.540395    12A    -58.540395
      13A    -58.522165    14A    -58.520551    15A    -58.520550
      16A    -11.422517    17A    -11.268189    18A    -11.234051
      19A     -9.859590    20A     -9.859586    21A     -9.839120
      22A     -7.471645    23A     -7.471641    24A     -7.463935
      25A     -7.463933    26A     -7.463899    27A     -7.463897
      28A     -7.450780    29A     -7.443528    30A     -7.443524
      31A     -3.215656    32A     -3.215634    33A     -3.211574
      34A     -3.211570    35A     -3.211529    36A     -3.211527
      37A     -3.201621    38A     -3.201617    39A     -3.201617
      40A     -3.201613    41A     -3.194506    42A     -3.190922
      43A     -3.190910    44A     -3.181426    45A     -3.181425
      46A     -1.170886    47A     -1.045509    48A     -1.029262
      49A     -1.003848    50A     -0.900323    51A     -0.769180
      52A     -0.657367    53A     -0.631398    54A     -0.588362
      55A     -0.565635    56A     -0.533284    57A     -0.514902
      58A     -0.505246    59A     -0.452049    60A     -0.445584
      61A     -0.422479    62A     -0.417374    63A     -0.403156
      64A     -0.396976

  @DF-RHF Final Energy: -7833.91632172982554

   => Energetics <=

    Nuclear Repulsion Energy =           1132.0358305021050001
    One-Electron Energy =              -13164.7733991005643475
    Two-Electron Energy =                4198.8212468686333523
    Total Energy =                      -7833.9163217298255404
  Basis Set: (AUG-CC-PVTZ AUX)
    Blend: AUG-CC-PVTZ-RI
    Molecular point group: c1

    Geometry (in Angstrom), charge = 0, multiplicity = 1:

       Center              X                  Y                   Z               Mass
    ------------   -----------------  -----------------  -----------------  -----------------
         BR          -1.913851231230    -0.000012237956     0.262142079520    78.918337600000
         BR           0.718278768770    -1.590330237956    -0.530610920480    78.918337600000
         BR           0.718257768770     1.590342762044    -0.530603920480    78.918337600000
         C            0.451879768770    -0.000001237956     1.857578079520    12.000000000000
         C            0.145239868770    -0.000000137956     0.365270779520    12.000000000000
         C            1.956629768770    -0.000000237956     2.097972079520    12.000000000000
         H           -0.011554231230     0.883684762044     2.309867079520     1.007825032230
         H           -0.011551231230    -0.883689237956     2.309864079520     1.007825032230
         H            2.422431768770     0.887305762044     1.665208079520     1.007825032230
         H            2.147593768770    -0.000002237956     3.174449079520     1.007825032230
         H            2.422433768770    -0.887302237956     1.665204079520     1.007825032230

  Basis Set: AUG-CC-PVTZ
    Blend: AUG-CC-PVTZ
  Basis Set: (AUG-CC-PVTZ AUX)
    Blend: AUG-CC-PVTZ-JKFIT
	 Reference Energy          =   -7833.9163217298255404 [Eh]
	 Singles Energy            =      -0.0000000000000000 [Eh]
	 Same-Spin Energy          =      -0.4055295317244109 [Eh]
	 Opposite-Spin Energy      =      -1.0671316438302587 [Eh]
	 Correlation Energy        =      -1.4726611755546695 [Eh]
	 Total Energy              =   -7835.3889829053805443 [Eh]

	 ================> DF-SCS-MP2 Energies <==================
	-----------------------------------------------------------
	 SCS Same-Spin Scale       =       0.3333333333333333 [-]
	 SCS Opposite-Spin Scale   =       1.2000000000000000 [-]
	 SCS Same-Spin Energy      =      -0.1351765105748036 [Eh]
	 SCS Opposite-Spin Energy  =      -1.2805579725963103 [Eh]
	 SCS Correlation Energy    =      -1.4157344831711138 [Eh]
	 SCS Total Energy          =   -7835.3320562129965765 [Eh]
	-----------------------------------------------------------

  Dipole Moment: [D]
     X:     1.1947      Y:    -0.0000      Z:     1.5490     Total:     1.9562

*** Psi4 exiting successfully. Buy a developer a beer!
