                               Psi4 1.3.2 release

  ==> Input File <==

--------------------------------------------------------------------------
#psi4
#
memory 32 gb

molecule  {
0 1
 Br       -1.9526460    -0.0000120     0.1900160
 Br        0.6794840    -1.5903300    -0.6027370
 Br        0.6794630     1.5903430    -0.6027300
  C        0.4130850    -0.0000010     1.7854520
  C       -0.0243460     0.0447252     0.3268010
  C        1.9178350     0.0000000     2.0258460
  H       -0.0503490     0.8836850     2.2377410
  H       -0.0503460    -0.8836890     2.2377380
  H        2.3836370     0.8873060     1.5930820
  H        2.1087990    -0.0000020     3.1023230
  H        2.3836390    -0.8873020     1.5930780
units angstrom
no_reorient  #important for SAPT in psi4, default
symmetry c1  #important for SAPT in psi4, default
}

set PROPERTIES_ORIGIN ["COM"]
properties('MP2/aug-cc-pvtz', properties = ['dipole'])
--------------------------------------------------------------------------

    Molecular point group: c1
  Charge       = 0
  Multiplicity = 1
  Basis Set: AUG-CC-PVTZ
    Blend: AUG-CC-PVTZ
  Basis Set: (AUG-CC-PVTZ AUX)
    Blend: AUG-CC-PVTZ-JKFIT

    Orbital Energies [Eh]
    ---------------------

    Doubly Occupied:

       1A   -490.043696     2A   -490.043364     3A   -490.034061
       4A    -65.183525     5A    -65.183222     6A    -65.173768
       7A    -58.538912     8A    -58.538607     9A    -58.537281
      10A    -58.537272    11A    -58.536989    12A    -58.536968
      13A    -58.529162    14A    -58.527543    15A    -58.527528
      16A    -11.421523    17A    -11.267844    18A    -11.234000
      19A     -9.856348    20A     -9.856041    21A     -9.846272
      22A     -7.468347    23A     -7.468024    24A     -7.460681
      25A     -7.460656    26A     -7.460419    27A     -7.460358
      28A     -7.458071    29A     -7.450682    30A     -7.450632
      31A     -3.212317    32A     -3.211976    33A     -3.208309
      34A     -3.208280    35A     -3.208026    36A     -3.207926
      37A     -3.201889    38A     -3.198390    39A     -3.198389
      40A     -3.198174    41A     -3.198124    42A     -3.198120
      43A     -3.198095    44A     -3.188478    45A     -3.188474
      46A     -1.168505    47A     -1.044658    48A     -1.022871
      49A     -1.010086    50A     -0.904135    51A     -0.764674
      52A     -0.655310    53A     -0.630833    54A     -0.590989
      55A     -0.561656    56A     -0.533914    57A     -0.515449
      58A     -0.499575    59A     -0.449365    60A     -0.444279
      61A     -0.430506    62A     -0.413631    63A     -0.407617
      64A     -0.398801

  @DF-RHF Final Energy: -7833.92008634979629

   => Energetics <=

    Nuclear Repulsion Energy =           1131.9113412126064304
    One-Electron Energy =              -13164.5356149311119225
    Two-Electron Energy =                4198.7041873687094267
    Total Energy =                      -7833.9200863497962928
  Basis Set: (AUG-CC-PVTZ AUX)
    Blend: AUG-CC-PVTZ-RI
    Molecular point group: c1

    Geometry (in Angstrom), charge = 0, multiplicity = 1:

       Center              X                  Y                   Z               Mass
    ------------   -----------------  -----------------  -----------------  -----------------
         BR          -1.908201388467    -0.001944248487     0.260688212988    78.918337600000
         BR           0.723928611533    -1.592262248487    -0.532064787012    78.918337600000
         BR           0.723907611533     1.588410751513    -0.532057787012    78.918337600000
         C            0.457529611533    -0.001933248487     1.856124212988    12.000000000000
         C            0.020098611533     0.042792951513     0.397473212988    12.000000000000
         C            1.962279611533    -0.001932248487     2.096518212988    12.000000000000
         H           -0.005904388467     0.881752751513     2.308413212988     1.007825032230
         H           -0.005901388467    -0.885621248487     2.308410212988     1.007825032230
         H            2.428081611533     0.885373751513     1.663754212988     1.007825032230
         H            2.153243611533    -0.001934248487     3.172995212988     1.007825032230
         H            2.428083611533    -0.889234248487     1.663750212988     1.007825032230

  Basis Set: AUG-CC-PVTZ
    Blend: AUG-CC-PVTZ
  Basis Set: (AUG-CC-PVTZ AUX)
    Blend: AUG-CC-PVTZ-JKFIT
	 Reference Energy          =   -7833.9200863497962928 [Eh]
	 Singles Energy            =      -0.0000000000000000 [Eh]
	 Same-Spin Energy          =      -0.4052467422042547 [Eh]
	 Opposite-Spin Energy      =      -1.0666404559957616 [Eh]
	 Correlation Energy        =      -1.4718871982000163 [Eh]
	 Total Energy              =   -7835.3919735479967130 [Eh]

	 ================> DF-SCS-MP2 Energies <==================
	-----------------------------------------------------------
	 SCS Same-Spin Scale       =       0.3333333333333333 [-]
	 SCS Opposite-Spin Scale   =       1.2000000000000000 [-]
	 SCS Same-Spin Energy      =      -0.1350822474014182 [Eh]
	 SCS Opposite-Spin Energy  =      -1.2799685471949138 [Eh]
	 SCS Correlation Energy    =      -1.4150507945963320 [Eh]
	 SCS Total Energy          =   -7835.3351371443923199 [Eh]
	-----------------------------------------------------------

  Dipole Moment: [D]
     X:     0.5742      Y:     0.2196      Z:     1.7253     Total:     1.8315

*** Psi4 exiting successfully. Buy a developer a beer!
