                               Psi4 1.3.2 release

  ==> Input File <==

--------------------------------------------------------------------------
#psi4
#
memory 32 gb

molecule  {
0 1
 Br       -1.9526460    -0.0000120     0.1900160
 Br        0.6794840    -1.5903300    -0.6027370
 Br        0.6794630     1.5903430    -0.6027300
  C        0.4130850    -0.0000010     1.7854520
  C       -0.0478636    -0.0000001     0.3333723
  C        1.9178350     0.0000000     2.0258460
  H       -0.0503490     0.8836850     2.2377410
  H       -0.0503460    -0.8836890     2.2377380
  H        2.3836370     0.8873060     1.5930820
  H        2.1087990    -0.0000020     3.1023230
  H        2.3836390    -0.8873020     1.5930780
units angstrom
no_reorient  #important for SAPT in psi4, default
symmetry c1  #important for SAPT in psi4, default
}

set PROPERTIES_ORIGIN ["COM"]
properties('MP2/aug-cc-pvtz', properties = ['dipole'])
--------------------------------------------------------------------------

    Molecular point group: c1
  Charge       = 0
  Multiplicity = 1
  Basis Set: AUG-CC-PVTZ
    Blend: AUG-CC-PVTZ
  Basis Set: (AUG-CC-PVTZ AUX)
    Blend: AUG-CC-PVTZ-JKFIT

    Orbital Energies [Eh]
    ---------------------

    Doubly Occupied:

       1A   -490.046296     2A   -490.037399     3A   -490.037399
       4A    -65.186207     5A    -65.177144     6A    -65.177144
       7A    -58.541583     8A    -58.539962     9A    -58.539953
      10A    -58.532538    11A    -58.532538    12A    -58.530916
      13A    -58.530916    14A    -58.530898    15A    -58.530898
      16A    -11.421541    17A    -11.267876    18A    -11.234108
      19A     -9.859175    20A     -9.849740    21A     -9.849736
      22A     -7.471225    23A     -7.463514    24A     -7.463483
      25A     -7.461604    26A     -7.461601    27A     -7.454132
      28A     -7.454130    29A     -7.454080    30A     -7.454077
      31A     -3.215228    32A     -3.211147    33A     -3.211116
      34A     -3.205479    35A     -3.205461    36A     -3.201677
      37A     -3.201673    38A     -3.201587    39A     -3.201584
      40A     -3.201211    41A     -3.201210    42A     -3.191891
      43A     -3.191888    44A     -3.191887    45A     -3.191884
      46A     -1.168527    47A     -1.045729    48A     -1.019780
      49A     -1.011876    50A     -0.904862    51A     -0.763954
      52A     -0.655135    53A     -0.631188    54A     -0.590790
      55A     -0.561510    56A     -0.535314    57A     -0.514087
      58A     -0.499087    59A     -0.449090    60A     -0.444239
      61A     -0.431221    62A     -0.412915    63A     -0.408282
      64A     -0.398859

  @DF-RHF Final Energy: -7833.91998217674700

   => Energetics <=

    Nuclear Repulsion Energy =           1131.8877582996840374
    One-Electron Energy =              -13164.4891188123710890
    Two-Electron Energy =                4198.6813783359393710
    Total Energy =                      -7833.9199821767469984
  Basis Set: (AUG-CC-PVTZ AUX)
    Blend: AUG-CC-PVTZ-RI
    Molecular point group: c1

    Geometry (in Angstrom), charge = 0, multiplicity = 1:

       Center              X                  Y                   Z               Mass
    ------------   -----------------  -----------------  -----------------  -----------------
         BR          -1.907185487980    -0.000012229316     0.260404349546    78.918337600000
         BR           0.724944512020    -1.590330229316    -0.532348650454    78.918337600000
         BR           0.724923512020     1.590342770684    -0.532341650454    78.918337600000
         C            0.458545512020    -0.000001229316     1.855840349546    12.000000000000
         C           -0.002403087980    -0.000000329316     0.403760649546    12.000000000000
         C            1.963295512020    -0.000000229316     2.096234349546    12.000000000000
         H           -0.004888487980     0.883684770684     2.308129349546     1.007825032230
         H           -0.004885487980    -0.883689229316     2.308126349546     1.007825032230
         H            2.429097512020     0.887305770684     1.663470349546     1.007825032230
         H            2.154259512020    -0.000002229316     3.172711349546     1.007825032230
         H            2.429099512020    -0.887302229316     1.663466349546     1.007825032230

  Basis Set: AUG-CC-PVTZ
    Blend: AUG-CC-PVTZ
  Basis Set: (AUG-CC-PVTZ AUX)
    Blend: AUG-CC-PVTZ-JKFIT
	 Reference Energy          =   -7833.9199821767469984 [Eh]
	 Singles Energy            =      -0.0000000000000000 [Eh]
	 Same-Spin Energy          =      -0.4052496907891477 [Eh]
	 Opposite-Spin Energy      =      -1.0666286430835523 [Eh]
	 Correlation Energy        =      -1.4718783338727000 [Eh]
	 Total Energy              =   -7835.3918605106200630 [Eh]

	 ================> DF-SCS-MP2 Energies <==================
	-----------------------------------------------------------
	 SCS Same-Spin Scale       =       0.3333333333333333 [-]
	 SCS Opposite-Spin Scale   =       1.2000000000000000 [-]
	 SCS Same-Spin Energy      =      -0.1350832302630492 [Eh]
	 SCS Opposite-Spin Energy  =      -1.2799543717002628 [Eh]
	 SCS Correlation Energy    =      -1.4150376019633120 [Eh]
	 SCS Total Energy          =   -7835.3350197787103752 [Eh]
	-----------------------------------------------------------

  Dipole Moment: [D]
     X:     0.4596      Y:    -0.0000      Z:     1.7596     Total:     1.8186

*** Psi4 exiting successfully. Buy a developer a beer!
