                               Psi4 1.3.2 release

  ==> Input File <==

--------------------------------------------------------------------------
#psi4
#
memory 32 gb

molecule  {
0 1
 Br       -1.9526460    -0.0000120     0.1900160
 Br        0.6794840    -1.5903300    -0.6027370
 Br        0.6794630     1.5903430    -0.6027300
  C        0.4130850    -0.0000010     1.7854520
  C       -0.0238174     0.0000001     0.2218592
  C        1.9178350     0.0000000     2.0258460
  H       -0.0503490     0.8836850     2.2377410
  H       -0.0503460    -0.8836890     2.2377380
  H        2.3836370     0.8873060     1.5930820
  H        2.1087990    -0.0000020     3.1023230
  H        2.3836390    -0.8873020     1.5930780
units angstrom
no_reorient  #important for SAPT in psi4, default
symmetry c1  #important for SAPT in psi4, default
}

set PROPERTIES_ORIGIN ["COM"]
properties('MP2/aug-cc-pvtz', properties = ['dipole'])
--------------------------------------------------------------------------

    Molecular point group: c1
  Charge       = 0
  Multiplicity = 1
  Basis Set: AUG-CC-PVTZ
    Blend: AUG-CC-PVTZ
  Basis Set: (AUG-CC-PVTZ AUX)
    Blend: AUG-CC-PVTZ-JKFIT

    Orbital Energies [Eh]
    ---------------------

    Doubly Occupied:

       1A   -490.041463     2A   -490.041463     3A   -490.040943
       4A    -65.181396     5A    -65.181396     6A    -65.180826
       7A    -58.536764     8A    -58.536764     9A    -58.536200
      10A    -58.535169    11A    -58.535169    12A    -58.535150
      13A    -58.535150    14A    -58.534592    15A    -58.534580
      16A    -11.416853    17A    -11.271050    18A    -11.231594
      19A     -9.854321    20A     -9.854316    21A     -9.853710
      22A     -7.466294    23A     -7.466291    24A     -7.465683
      25A     -7.458738    26A     -7.458736    27A     -7.458679
      28A     -7.458677    29A     -7.458096    30A     -7.458050
      31A     -3.210239    32A     -3.210216    33A     -3.209623
      34A     -3.206276    35A     -3.206271    36A     -3.206200
      37A     -3.206198    38A     -3.205648    39A     -3.205620
      40A     -3.196476    41A     -3.196472    42A     -3.196471
      43A     -3.196468    44A     -3.195833    45A     -3.195831
      46A     -1.164751    47A     -1.039361    48A     -1.022859
      49A     -1.021262    50A     -0.887214    51A     -0.766295
      52A     -0.647823    53A     -0.623651    54A     -0.586294
      55A     -0.566724    56A     -0.531014    57A     -0.520527
      58A     -0.504123    59A     -0.448036    60A     -0.446589
      61A     -0.417127    62A     -0.414926    63A     -0.414174
      64A     -0.400755

  @DF-RHF Final Energy: -7833.91682928223690

   => Energetics <=

    Nuclear Repulsion Energy =           1133.6462471218328574
    One-Electron Energy =              -13167.9552284788005636
    Two-Electron Energy =                4200.3921520747308023
    Total Energy =                      -7833.9168292822369040
  Basis Set: (AUG-CC-PVTZ AUX)
    Blend: AUG-CC-PVTZ-RI
    Molecular point group: c1

    Geometry (in Angstrom), charge = 0, multiplicity = 1:

       Center              X                  Y                   Z               Mass
    ------------   -----------------  -----------------  -----------------  -----------------
         BR          -1.908224222642    -0.000012237956     0.265221431756    78.918337600000
         BR           0.723905777358    -1.590330237956    -0.527531568244    78.918337600000
         BR           0.723884777358     1.590342762044    -0.527524568244    78.918337600000
         C            0.457506777358    -0.000001237956     1.860657431756    12.000000000000
         C            0.020604377358    -0.000000137956     0.297064631756    12.000000000000
         C            1.962256777358    -0.000000237956     2.101051431756    12.000000000000
         H           -0.005927222642     0.883684762044     2.312946431756     1.007825032230
         H           -0.005924222642    -0.883689237956     2.312943431756     1.007825032230
         H            2.428058777358     0.887305762044     1.668287431756     1.007825032230
         H            2.153220777358    -0.000002237956     3.177528431756     1.007825032230
         H            2.428060777358    -0.887302237956     1.668283431756     1.007825032230

  Basis Set: AUG-CC-PVTZ
    Blend: AUG-CC-PVTZ
  Basis Set: (AUG-CC-PVTZ AUX)
    Blend: AUG-CC-PVTZ-JKFIT
	 Reference Energy          =   -7833.9168292822369040 [Eh]
	 Singles Energy            =      -0.0000000000000000 [Eh]
	 Same-Spin Energy          =      -0.4051856787844634 [Eh]
	 Opposite-Spin Energy      =      -1.0663772639900098 [Eh]
	 Correlation Energy        =      -1.4715629427744732 [Eh]
	 Total Energy              =   -7835.3883922250115575 [Eh]

	 ================> DF-SCS-MP2 Energies <==================
	-----------------------------------------------------------
	 SCS Same-Spin Scale       =       0.3333333333333333 [-]
	 SCS Opposite-Spin Scale   =       1.2000000000000000 [-]
	 SCS Same-Spin Energy      =      -0.1350618929281545 [Eh]
	 SCS Opposite-Spin Energy  =      -1.2796527167880116 [Eh]
	 SCS Correlation Energy    =      -1.4147146097161660 [Eh]
	 SCS Total Energy          =   -7835.3315438919535154 [Eh]
	-----------------------------------------------------------

  Dipole Moment: [D]
     X:     0.6707      Y:    -0.0000      Z:     1.5677     Total:     1.7051

*** Psi4 exiting successfully. Buy a developer a beer!
