                               Psi4 1.3.2 release

  ==> Input File <==

--------------------------------------------------------------------------
#psi4
#
memory 32 gb

molecule  {
0 1
 Br       -1.9526460    -0.0000120     0.1900160
 Br        0.6794840    -1.5903300    -0.6027370
 Br        0.6794630     1.5903430    -0.6027300
  C        0.4130850    -0.0000010     1.7854520
  C        0.0287640     0.0000000     0.3112381
  C        1.9178350     0.0000000     2.0258460
  H       -0.0503490     0.8836850     2.2377410
  H       -0.0503460    -0.8836890     2.2377380
  H        2.3836370     0.8873060     1.5930820
  H        2.1087990    -0.0000020     3.1023230
  H        2.3836390    -0.8873020     1.5930780
units angstrom
no_reorient  #important for SAPT in psi4, default
symmetry c1  #important for SAPT in psi4, default
}

set PROPERTIES_ORIGIN ["COM"]
properties('MP2/aug-cc-pvtz', properties = ['dipole'])
--------------------------------------------------------------------------

    Molecular point group: c1
  Charge       = 0
  Multiplicity = 1
  Basis Set: AUG-CC-PVTZ
    Blend: AUG-CC-PVTZ
  Basis Set: (AUG-CC-PVTZ AUX)
    Blend: AUG-CC-PVTZ-JKFIT

    Orbital Energies [Eh]
    ---------------------

    Doubly Occupied:

       1A   -490.042018     2A   -490.042018     3A   -490.037285
       4A    -65.181845     5A    -65.181845     6A    -65.176990
       7A    -58.537234     8A    -58.537234     9A    -58.535611
      10A    -58.535611    11A    -58.535595    12A    -58.535595
      13A    -58.532388    14A    -58.530750    15A    -58.530746
      16A    -11.421153    17A    -11.267582    18A    -11.233790
      19A     -9.854611    20A     -9.854607    21A     -9.849566
      22A     -7.466572    23A     -7.466569    24A     -7.461437
      25A     -7.458984    26A     -7.458982    27A     -7.458935
      28A     -7.458933    29A     -7.453909    30A     -7.453900
      31A     -3.210516    32A     -3.210495    33A     -3.206577
      34A     -3.206572    35A     -3.206504    36A     -3.206501
      37A     -3.205316    38A     -3.201469    39A     -3.201466
      40A     -3.196702    41A     -3.196698    42A     -3.196698
      43A     -3.196695    44A     -3.191678    45A     -3.191678
      46A     -1.168117    47A     -1.043331    48A     -1.020479
      49A     -1.014314    50A     -0.902338    51A     -0.766143
      52A     -0.655830    53A     -0.630100    54A     -0.589623
      55A     -0.562928    56A     -0.531791    57A     -0.516110
      58A     -0.501379    59A     -0.448710    60A     -0.444983
      61A     -0.430293    62A     -0.412483    63A     -0.409026
      64A     -0.399175

  @DF-RHF Final Energy: -7833.92102514011640

   => Energetics <=

    Nuclear Repulsion Energy =           1131.9805959206057651
    One-Electron Energy =              -13164.6732098398351809
    Two-Electron Energy =                4198.7715887791127898
    Total Energy =                      -7833.9210251401163987
  Basis Set: (AUG-CC-PVTZ AUX)
    Blend: AUG-CC-PVTZ-RI
    Molecular point group: c1

    Geometry (in Angstrom), charge = 0, multiplicity = 1:

       Center              X                  Y                   Z               Mass
    ------------   -----------------  -----------------  -----------------  -----------------
         BR          -1.910495605345    -0.000012233636     0.261360490673    78.918337600000
         BR           0.721634394655    -1.590330233636    -0.531392509327    78.918337600000
         BR           0.721613394655     1.590342766364    -0.531385509327    78.918337600000
         C            0.455235394655    -0.000001233636     1.856796490673    12.000000000000
         C            0.070914394655    -0.000000233636     0.382582590673    12.000000000000
         C            1.959985394655    -0.000000233636     2.097190490673    12.000000000000
         H           -0.008198605345     0.883684766364     2.309085490673     1.007825032230
         H           -0.008195605345    -0.883689233636     2.309082490673     1.007825032230
         H            2.425787394655     0.887305766364     1.664426490673     1.007825032230
         H            2.150949394655    -0.000002233636     3.173667490673     1.007825032230
         H            2.425789394655    -0.887302233636     1.664422490673     1.007825032230

  Basis Set: AUG-CC-PVTZ
    Blend: AUG-CC-PVTZ
  Basis Set: (AUG-CC-PVTZ AUX)
    Blend: AUG-CC-PVTZ-JKFIT
	 Reference Energy          =   -7833.9210251401163987 [Eh]
	 Singles Energy            =      -0.0000000000000000 [Eh]
	 Same-Spin Energy          =      -0.4051968635785210 [Eh]
	 Opposite-Spin Energy      =      -1.0666260477227523 [Eh]
	 Correlation Energy        =      -1.4718229113012733 [Eh]
	 Total Energy              =   -7835.3928480514177863 [Eh]

	 ================> DF-SCS-MP2 Energies <==================
	-----------------------------------------------------------
	 SCS Same-Spin Scale       =       0.3333333333333333 [-]
	 SCS Opposite-Spin Scale   =       1.2000000000000000 [-]
	 SCS Same-Spin Energy      =      -0.1350656211928403 [Eh]
	 SCS Opposite-Spin Energy  =      -1.2799512572673026 [Eh]
	 SCS Correlation Energy    =      -1.4150168784601429 [Eh]
	 SCS Total Energy          =   -7835.3360420185763360 [Eh]
	-----------------------------------------------------------

  Dipole Moment: [D]
     X:     0.8267      Y:    -0.0000      Z:     1.6477     Total:     1.8435

*** Psi4 exiting successfully. Buy a developer a beer!
