                               Psi4 1.3.2 release

  ==> Input File <==

--------------------------------------------------------------------------
#psi4
#
memory 32 gb

molecule  {
0 1
 Br       -1.9526460    -0.0000120     0.1900160
 Br        0.6794840    -1.5903300    -0.6027370
 Br        0.6794630     1.5903430    -0.6027300
  C        0.4130850    -0.0000010     1.7854520
  C        0.0300054    -0.0000001     0.4144808
  C        1.9178350     0.0000000     2.0258460
  H       -0.0503490     0.8836850     2.2377410
  H       -0.0503460    -0.8836890     2.2377380
  H        2.3836370     0.8873060     1.5930820
  H        2.1087990    -0.0000020     3.1023230
  H        2.3836390    -0.8873020     1.5930780
units angstrom
no_reorient  #important for SAPT in psi4, default
symmetry c1  #important for SAPT in psi4, default
}

set PROPERTIES_ORIGIN ["COM"]
properties('MP2/aug-cc-pvtz', properties = ['dipole'])
--------------------------------------------------------------------------

    Molecular point group: c1
  Charge       = 0
  Multiplicity = 1
  Basis Set: AUG-CC-PVTZ
    Blend: AUG-CC-PVTZ
  Basis Set: (AUG-CC-PVTZ AUX)
    Blend: AUG-CC-PVTZ-JKFIT

    Orbital Energies [Eh]
    ---------------------

    Doubly Occupied:

       1A   -490.039268     2A   -490.038871     3A   -490.038871
       4A    -65.178898     5A    -65.178533     6A    -65.178533
       7A    -58.534315     8A    -58.533948     9A    -58.533947
      10A    -58.532646    11A    -58.532645    12A    -58.532295
      13A    -58.532295    14A    -58.532279    15A    -58.532279
      16A    -11.424922    17A    -11.264022    18A    -11.237563
      19A     -9.851386    20A     -9.851027    21A     -9.851022
      22A     -7.463285    23A     -7.462915    24A     -7.462912
      25A     -7.455676    26A     -7.455666    27A     -7.455369
      28A     -7.455367    29A     -7.455311    30A     -7.455308
      31A     -3.207194    32A     -3.206813    33A     -3.206797
      34A     -3.203321    35A     -3.203314    36A     -3.202992
      37A     -3.202987    38A     -3.202904    39A     -3.202900
      40A     -3.193400    41A     -3.193399    42A     -3.193082
      43A     -3.193079    44A     -3.193078    45A     -3.193076
      46A     -1.176929    47A     -1.047450    48A     -1.011864
      49A     -1.011692    50A     -0.920670    51A     -0.764490
      52A     -0.665991    53A     -0.637624    54A     -0.596166
      55A     -0.560179    56A     -0.538376    57A     -0.506647
      58A     -0.494533    59A     -0.445579    60A     -0.444859
      61A     -0.440660    62A     -0.406505    63A     -0.406183
      64A     -0.397413

  @DF-RHF Final Energy: -7833.91202832402996

   => Energetics <=

    Nuclear Repulsion Energy =           1130.1092090574506983
    One-Electron Energy =              -13160.9954410393966100
    Two-Electron Energy =                4196.9742036579154956
    Total Energy =                      -7833.9120283240299614
  Basis Set: (AUG-CC-PVTZ AUX)
    Blend: AUG-CC-PVTZ-RI
    Molecular point group: c1

    Geometry (in Angstrom), charge = 0, multiplicity = 1:

       Center              X                  Y                   Z               Mass
    ------------   -----------------  -----------------  -----------------  -----------------
         BR          -1.910549230667    -0.000012229316     0.256900668701    78.918337600000
         BR           0.721580769333    -1.590330229316    -0.535852331299    78.918337600000
         BR           0.721559769333     1.590342770684    -0.535845331299    78.918337600000
         C            0.455181769333    -0.000001229316     1.852336668701    12.000000000000
         C            0.072102169333    -0.000000329316     0.481365468701    12.000000000000
         C            1.959931769333    -0.000000229316     2.092730668701    12.000000000000
         H           -0.008252230667     0.883684770684     2.304625668701     1.007825032230
         H           -0.008249230667    -0.883689229316     2.304622668701     1.007825032230
         H            2.425733769333     0.887305770684     1.659966668701     1.007825032230
         H            2.150895769333    -0.000002229316     3.169207668701     1.007825032230
         H            2.425735769333    -0.887302229316     1.659962668701     1.007825032230

  Basis Set: AUG-CC-PVTZ
    Blend: AUG-CC-PVTZ
  Basis Set: (AUG-CC-PVTZ AUX)
    Blend: AUG-CC-PVTZ-JKFIT
	 Reference Energy          =   -7833.9120283240299614 [Eh]
	 Singles Energy            =      -0.0000000000000000 [Eh]
	 Same-Spin Energy          =      -0.4058786229253162 [Eh]
	 Opposite-Spin Energy      =      -1.0679808686050074 [Eh]
	 Correlation Energy        =      -1.4738594915303236 [Eh]
	 Total Energy              =   -7835.3858878155606362 [Eh]

	 ================> DF-SCS-MP2 Energies <==================
	-----------------------------------------------------------
	 SCS Same-Spin Scale       =       0.3333333333333333 [-]
	 SCS Opposite-Spin Scale   =       1.2000000000000000 [-]
	 SCS Same-Spin Energy      =      -0.1352928743084387 [Eh]
	 SCS Opposite-Spin Energy  =      -1.2815770423260089 [Eh]
	 SCS Correlation Energy    =      -1.4168699166344476 [Eh]
	 SCS Total Energy          =   -7835.3288982406647847 [Eh]
	-----------------------------------------------------------

  Dipole Moment: [D]
     X:     0.7738      Y:    -0.0000      Z:     1.8883     Total:     2.0407

*** Psi4 exiting successfully. Buy a developer a beer!
