                               Psi4 1.3.2 release

  ==> Input File <==

--------------------------------------------------------------------------
#psi4
#
memory 32 gb

molecule  {
0 1
 Br       -1.9526460    -0.0000120     0.1900160
 Br        0.6794840    -1.5903300    -0.6027370
 Br        0.6794630     1.5903430    -0.6027300
  C        0.4130850    -0.0000010     1.7854520
  C       -0.0507288     0.0000001     0.1255483
  C        1.9178350     0.0000000     2.0258460
  H       -0.0503490     0.8836850     2.2377410
  H       -0.0503460    -0.8836890     2.2377380
  H        2.3836370     0.8873060     1.5930820
  H        2.1087990    -0.0000020     3.1023230
  H        2.3836390    -0.8873020     1.5930780
units angstrom
no_reorient  #important for SAPT in psi4, default
symmetry c1  #important for SAPT in psi4, default
}

set PROPERTIES_ORIGIN ["COM"]
properties('MP2/aug-cc-pvtz', properties = ['dipole'])
--------------------------------------------------------------------------

    Molecular point group: c1
  Charge       = 0
  Multiplicity = 1
  Basis Set: AUG-CC-PVTZ
    Blend: AUG-CC-PVTZ
  Basis Set: (AUG-CC-PVTZ AUX)
    Blend: AUG-CC-PVTZ-JKFIT

    Orbital Energies [Eh]
    ---------------------

    Doubly Occupied:

       1A   -490.042163     2A   -490.042163     3A   -490.041271
       4A    -65.182209     5A    -65.182208     6A    -65.181252
       7A    -58.537559     8A    -58.537559     9A    -58.536611
      10A    -58.535986    11A    -58.535986    12A    -58.535962
      13A    -58.535962    14A    -58.535023    15A    -58.535005
      16A    -11.412663    17A    -11.274022    18A    -11.230331
      19A     -9.855334    20A     -9.855329    21A     -9.854311
      22A     -7.467362    23A     -7.467358    24A     -7.466332
      25A     -7.459781    26A     -7.459779    27A     -7.459697
      28A     -7.459695    29A     -7.458732    30A     -7.458650
      31A     -3.211335    32A     -3.211311    33A     -3.210297
      34A     -3.207300    35A     -3.207296    36A     -3.207226
      37A     -3.207224    38A     -3.206269    39A     -3.206224
      40A     -3.197507    41A     -3.197503    42A     -3.197501
      43A     -3.197498    44A     -3.196451    45A     -3.196448
      46A     -1.164666    47A     -1.036219    48A     -1.027530
      49A     -1.024899    50A     -0.873847    51A     -0.767002
      52A     -0.642137    53A     -0.618130    54A     -0.584530
      55A     -0.572170    56A     -0.534587    57A     -0.520188
      58A     -0.506357    59A     -0.447915    60A     -0.446517
      61A     -0.418578    62A     -0.417848    63A     -0.401771
      64A     -0.398900

  @DF-RHF Final Energy: -7833.90248298562074

   => Energetics <=

    Nuclear Repulsion Energy =           1135.1155858918602917
    One-Electron Energy =              -13170.8411895438275678
    Two-Electron Energy =                4201.8231206663458579
    Total Energy =                      -7833.9024829856207361
  Basis Set: (AUG-CC-PVTZ AUX)
    Blend: AUG-CC-PVTZ-RI
    Molecular point group: c1

    Geometry (in Angstrom), charge = 0, multiplicity = 1:

       Center              X                  Y                   Z               Mass
    ------------   -----------------  -----------------  -----------------  -----------------
         BR          -1.907061718629    -0.000012237956     0.269381817603    78.918337600000
         BR           0.725068281371    -1.590330237956    -0.523371182397    78.918337600000
         BR           0.725047281371     1.590342762044    -0.523364182397    78.918337600000
         C            0.458669281371    -0.000001237956     1.864817817603    12.000000000000
         C           -0.005144518629    -0.000000137956     0.204914117603    12.000000000000
         C            1.963419281371    -0.000000237956     2.105211817603    12.000000000000
         H           -0.004764718629     0.883684762044     2.317106817603     1.007825032230
         H           -0.004761718629    -0.883689237956     2.317103817603     1.007825032230
         H            2.429221281371     0.887305762044     1.672447817603     1.007825032230
         H            2.154383281371    -0.000002237956     3.181688817603     1.007825032230
         H            2.429223281371    -0.887302237956     1.672443817603     1.007825032230

  Basis Set: AUG-CC-PVTZ
    Blend: AUG-CC-PVTZ
  Basis Set: (AUG-CC-PVTZ AUX)
    Blend: AUG-CC-PVTZ-JKFIT
	 Reference Energy          =   -7833.9024829856207361 [Eh]
	 Singles Energy            =      -0.0000000000000000 [Eh]
	 Same-Spin Energy          =      -0.4057868299901635 [Eh]
	 Opposite-Spin Energy      =      -1.0673478067316897 [Eh]
	 Correlation Energy        =      -1.4731346367218532 [Eh]
	 Total Energy              =   -7835.3756176223423608 [Eh]

	 ================> DF-SCS-MP2 Energies <==================
	-----------------------------------------------------------
	 SCS Same-Spin Scale       =       0.3333333333333333 [-]
	 SCS Opposite-Spin Scale   =       1.2000000000000000 [-]
	 SCS Same-Spin Energy      =      -0.1352622766633878 [Eh]
	 SCS Opposite-Spin Energy  =      -1.2808173680780277 [Eh]
	 SCS Correlation Energy    =      -1.4160796447414155 [Eh]
	 SCS Total Energy          =   -7835.3185626303620666 [Eh]
	-----------------------------------------------------------

  Dipole Moment: [D]
     X:     0.6574      Y:    -0.0000      Z:     1.5045     Total:     1.6418

*** Psi4 exiting successfully. Buy a developer a beer!
