                               Psi4 1.3.2 release

  ==> Input File <==

--------------------------------------------------------------------------
#psi4
#
memory 32 gb

molecule  {
0 1
 Br       -1.9526460    -0.0000120     0.1900160
 Br        0.6794840    -1.5903300    -0.6027370
 Br        0.6794630     1.5903430    -0.6027300
  C        0.4130850    -0.0000010     1.7854520
  C        0.0170034    -0.0223660     0.3145243
  C        1.9178350     0.0000000     2.0258460
  H       -0.0503490     0.8836850     2.2377410
  H       -0.0503460    -0.8836890     2.2377380
  H        2.3836370     0.8873060     1.5930820
  H        2.1087990    -0.0000020     3.1023230
  H        2.3836390    -0.8873020     1.5930780
units angstrom
no_reorient  #important for SAPT in psi4, default
symmetry c1  #important for SAPT in psi4, default
}

set PROPERTIES_ORIGIN ["COM"]
properties('MP2/aug-cc-pvtz', properties = ['dipole'])
--------------------------------------------------------------------------

    Molecular point group: c1
  Charge       = 0
  Multiplicity = 1
  Basis Set: AUG-CC-PVTZ
    Blend: AUG-CC-PVTZ
  Basis Set: (AUG-CC-PVTZ AUX)
    Blend: AUG-CC-PVTZ-JKFIT

    Orbital Energies [Eh]
    ---------------------

    Doubly Occupied:

       1A   -490.043514     2A   -490.039057     3A   -490.038738
       4A    -65.183380     5A    -65.178827     6A    -65.178466
       7A    -58.538764     8A    -58.537146     9A    -58.537128
      10A    -58.534221    11A    -58.533863    12A    -58.532596
      13A    -58.532581    14A    -58.532225    15A    -58.532220
      16A    -11.421169    17A    -11.267606    18A    -11.233814
      19A     -9.856213    20A     -9.851477    21A     -9.851090
      22A     -7.468203    23A     -7.463380    24A     -7.462990
      25A     -7.460588    26A     -7.460535    27A     -7.455860
      28A     -7.455811    29A     -7.455428    30A     -7.455416
      31A     -3.212158    32A     -3.208191    33A     -3.208110
      34A     -3.207273    35A     -3.206890    36A     -3.203422
      37A     -3.203350    38A     -3.203008    39A     -3.202998
      40A     -3.198295    41A     -3.198292    42A     -3.193601
      43A     -3.193598    44A     -3.193182    45A     -3.193181
      46A     -1.168095    47A     -1.043499    48A     -1.020322
      49A     -1.014196    50A     -0.902715    51A     -0.765787
      52A     -0.655679    53A     -0.630184    54A     -0.589944
      55A     -0.562584    56A     -0.532054    57A     -0.516117
      58A     -0.500915    59A     -0.448788    60A     -0.444574
      61A     -0.430771    62A     -0.412207    63A     -0.409304
      64A     -0.399174

  @DF-RHF Final Energy: -7833.92102063519542

   => Energetics <=

    Nuclear Repulsion Energy =           1131.9669770164182410
    One-Electron Energy =              -13164.6464682145160623
    Two-Electron Energy =                4198.7584705629024029
    Total Energy =                      -7833.9210206351954184
  Basis Set: (AUG-CC-PVTZ AUX)
    Blend: AUG-CC-PVTZ-RI
    Molecular point group: c1

    Geometry (in Angstrom), charge = 0, multiplicity = 1:

       Center              X                  Y                   Z               Mass
    ------------   -----------------  -----------------  -----------------  -----------------
         BR          -1.909987577346     0.000953920661     0.261218535193    78.918337600000
         BR           0.722142422654    -1.589364079339    -0.531534464807    78.918337600000
         BR           0.722121422654     1.591308920661    -0.531527464807    78.918337600000
         C            0.455743422654     0.000964920661     1.856654535193    12.000000000000
         C            0.059661822654    -0.021400079339     0.385726835193    12.000000000000
         C            1.960493422654     0.000965920661     2.097048535193    12.000000000000
         H           -0.007690577346     0.884650920661     2.308943535193     1.007825032230
         H           -0.007687577346    -0.882723079339     2.308940535193     1.007825032230
         H            2.426295422654     0.888271920661     1.664284535193     1.007825032230
         H            2.151457422654     0.000963920661     3.173525535193     1.007825032230
         H            2.426297422654    -0.886336079339     1.664280535193     1.007825032230

  Basis Set: AUG-CC-PVTZ
    Blend: AUG-CC-PVTZ
  Basis Set: (AUG-CC-PVTZ AUX)
    Blend: AUG-CC-PVTZ-JKFIT
	 Reference Energy          =   -7833.9210206351954184 [Eh]
	 Singles Energy            =      -0.0000000000000000 [Eh]
	 Same-Spin Energy          =      -0.4051943066881826 [Eh]
	 Opposite-Spin Energy      =      -1.0666115628390300 [Eh]
	 Correlation Energy        =      -1.4718058695272127 [Eh]
	 Total Energy              =   -7835.3928265047225068 [Eh]

	 ================> DF-SCS-MP2 Energies <==================
	-----------------------------------------------------------
	 SCS Same-Spin Scale       =       0.3333333333333333 [-]
	 SCS Opposite-Spin Scale   =       1.2000000000000000 [-]
	 SCS Same-Spin Energy      =      -0.1350647688960608 [Eh]
	 SCS Opposite-Spin Energy  =      -1.2799338754068359 [Eh]
	 SCS Correlation Energy    =      -1.4149986443028968 [Eh]
	 SCS Total Energy          =   -7835.3360192794980321 [Eh]
	-----------------------------------------------------------

  Dipole Moment: [D]
     X:     0.7712      Y:    -0.1105      Z:     1.6643     Total:     1.8376

*** Psi4 exiting successfully. Buy a developer a beer!
