                               Psi4 1.3.2 release

  ==> Input File <==

--------------------------------------------------------------------------
#psi4
#
memory 32 gb

molecule  {
0 1
 Br       -1.9526460    -0.0000120     0.1900160
 Br        0.6794840    -1.5903300    -0.6027370
 Br        0.6794630     1.5903430    -0.6027300
  C        0.4130850    -0.0000010     1.7854520
  C        0.0594385    -0.0893959     0.3062793
  C        1.9178350     0.0000000     2.0258460
  H       -0.0503490     0.8836850     2.2377410
  H       -0.0503460    -0.8836890     2.2377380
  H        2.3836370     0.8873060     1.5930820
  H        2.1087990    -0.0000020     3.1023230
  H        2.3836390    -0.8873020     1.5930780
units angstrom
no_reorient  #important for SAPT in psi4, default
symmetry c1  #important for SAPT in psi4, default
}

set PROPERTIES_ORIGIN ["COM"]
properties('MP2/aug-cc-pvtz', properties = ['dipole'])
--------------------------------------------------------------------------

    Molecular point group: c1
  Charge       = 0
  Multiplicity = 1
  Basis Set: AUG-CC-PVTZ
    Blend: AUG-CC-PVTZ
  Basis Set: (AUG-CC-PVTZ AUX)
    Blend: AUG-CC-PVTZ-JKFIT

    Orbital Energies [Eh]
    ---------------------

    Doubly Occupied:

       1A   -490.052168     2A   -490.034748     3A   -490.033660
       4A    -65.192315     5A    -65.174436     6A    -65.173304
       7A    -58.547654     8A    -58.546077     9A    -58.546056
      10A    -58.529837    11A    -58.528704    12A    -58.528206
      13A    -58.528193    14A    -58.527066    15A    -58.527062
      16A    -11.422476    17A    -11.268300    18A    -11.233986
      19A     -9.865642    20A     -9.846926    21A     -9.845755
      22A     -7.477798    23A     -7.470034    24A     -7.469965
      25A     -7.458745    26A     -7.457552    27A     -7.451316
      28A     -7.451266    29A     -7.450103    30A     -7.450101
      31A     -3.221861    32A     -3.217653    33A     -3.217558
      34A     -3.207708    35A     -3.207705    36A     -3.202579
      37A     -3.201378    38A     -3.198836    39A     -3.198772
      40A     -3.197634    41A     -3.197616    42A     -3.189092
      43A     -3.189088    44A     -3.187911    45A     -3.187909
      46A     -1.171569    47A     -1.048068    48A     -1.023900
      49A     -1.005710    50A     -0.901851    51A     -0.767733
      52A     -0.656425    53A     -0.631697    54A     -0.591219
      55A     -0.563209    56A     -0.532616    57A     -0.517581
      58A     -0.502947    59A     -0.453057    60A     -0.439141
      61A     -0.427280    62A     -0.414952    63A     -0.406203
      64A     -0.396495

  @DF-RHF Final Energy: -7833.91558200575219

   => Energetics <=

    Nuclear Repulsion Energy =           1132.0050283257739920
    One-Electron Energy =              -13164.7124145899033465
    Two-Electron Energy =                4198.7918042583778515
    Total Energy =                      -7833.9155820057521851
  Basis Set: (AUG-CC-PVTZ AUX)
    Blend: AUG-CC-PVTZ-RI
    Molecular point group: c1

    Geometry (in Angstrom), charge = 0, multiplicity = 1:

       Center              X                  Y                   Z               Mass
    ------------   -----------------  -----------------  -----------------  -----------------
         BR          -1.911820665703     0.003849441804     0.261574698217    78.918337600000
         BR           0.720309334297    -1.586468558196    -0.531178301783    78.918337600000
         BR           0.720288334297     1.594204441804    -0.531171301783    78.918337600000
         C            0.453910334297     0.003860441804     1.857010698217    12.000000000000
         C            0.100263834297    -0.085534458196     0.377837998217    12.000000000000
         C            1.958660334297     0.003861441804     2.097404698217    12.000000000000
         H           -0.009523665703     0.887546441804     2.309299698217     1.007825032230
         H           -0.009520665703    -0.879827558196     2.309296698217     1.007825032230
         H            2.424462334297     0.891167441804     1.664640698217     1.007825032230
         H            2.149624334297     0.003859441804     3.173881698217     1.007825032230
         H            2.424464334297    -0.883440558196     1.664636698217     1.007825032230

  Basis Set: AUG-CC-PVTZ
    Blend: AUG-CC-PVTZ
  Basis Set: (AUG-CC-PVTZ AUX)
    Blend: AUG-CC-PVTZ-JKFIT
	 Reference Energy          =   -7833.9155820057521851 [Eh]
	 Singles Energy            =      -0.0000000000000000 [Eh]
	 Same-Spin Energy          =      -0.4055741608734044 [Eh]
	 Opposite-Spin Energy      =      -1.0671614082789254 [Eh]
	 Correlation Energy        =      -1.4727355691523298 [Eh]
	 Total Energy              =   -7835.3883175749042493 [Eh]

	 ================> DF-SCS-MP2 Energies <==================
	-----------------------------------------------------------
	 SCS Same-Spin Scale       =       0.3333333333333333 [-]
	 SCS Opposite-Spin Scale   =       1.2000000000000000 [-]
	 SCS Same-Spin Energy      =      -0.1351913869578015 [Eh]
	 SCS Opposite-Spin Energy  =      -1.2805936899347103 [Eh]
	 SCS Correlation Energy    =      -1.4157850768925118 [Eh]
	 SCS Total Energy          =   -7835.3313670826446469 [Eh]
	-----------------------------------------------------------

  Dipole Moment: [D]
     X:     0.9781      Y:    -0.4511      Z:     1.6128     Total:     1.9394

*** Psi4 exiting successfully. Buy a developer a beer!
