                               Psi4 1.3.2 release

  ==> Input File <==

--------------------------------------------------------------------------
#psi4
#
memory 32 gb

molecule  {
0 1
 Br       -1.9526460    -0.0000120     0.1900160
 Br        0.6794840    -1.5903300    -0.6027370
 Br        0.6794630     1.5903430    -0.6027300
  C        0.4130850    -0.0000010     1.7854520
  C        0.1587127     0.0000002     0.2833522
  C        1.9178350     0.0000000     2.0258460
  H       -0.0503490     0.8836850     2.2377410
  H       -0.0503460    -0.8836890     2.2377380
  H        2.3836370     0.8873060     1.5930820
  H        2.1087990    -0.0000020     3.1023230
  H        2.3836390    -0.8873020     1.5930780
units angstrom
no_reorient  #important for SAPT in psi4, default
symmetry c1  #important for SAPT in psi4, default
}

set PROPERTIES_ORIGIN ["COM"]
properties('MP2/aug-cc-pvtz', properties = ['dipole'])
--------------------------------------------------------------------------

    Molecular point group: c1
  Charge       = 0
  Multiplicity = 1
  Basis Set: AUG-CC-PVTZ
    Blend: AUG-CC-PVTZ
  Basis Set: (AUG-CC-PVTZ AUX)
    Blend: AUG-CC-PVTZ-JKFIT

    Orbital Energies [Eh]
    ---------------------

    Doubly Occupied:

       1A   -490.050056     2A   -490.050055     3A   -490.019598
       4A    -65.190016     5A    -65.190016     6A    -65.159219
       7A    -58.545392     8A    -58.545392     9A    -58.543770
      10A    -58.543769    11A    -58.543756    12A    -58.543756
      13A    -58.514580    14A    -58.513005    15A    -58.513004
      16A    -11.424443    17A    -11.269096    18A    -11.234601
      19A     -9.863069    20A     -9.863064    21A     -9.831479
      22A     -7.475183    23A     -7.475180    24A     -7.467394
      25A     -7.467392    26A     -7.467360    27A     -7.467358
      28A     -7.442975    29A     -7.435967    30A     -7.435957
      31A     -3.219241    32A     -3.219217    33A     -3.215071
      34A     -3.215070    35A     -3.215027    36A     -3.215027
      37A     -3.205057    38A     -3.205053    39A     -3.205052
      40A     -3.205048    41A     -3.186581    42A     -3.183185
      43A     -3.183167    44A     -3.173983    45A     -3.173982
      46A     -1.174031    47A     -1.048104    48A     -1.035210
      49A     -0.995709    50A     -0.899266    51A     -0.771677
      52A     -0.658879    53A     -0.633529    54A     -0.587475
      55A     -0.568075    56A     -0.536051    57A     -0.513348
      58A     -0.508409    59A     -0.453928    60A     -0.447409
      61A     -0.420851    62A     -0.415108    63A     -0.398005
      64A     -0.394273

  @DF-RHF Final Energy: -7833.91054701138000

   => Energetics <=

    Nuclear Repulsion Energy =           1132.0322618270784005
    One-Electron Energy =              -13164.7556178347094828
    Two-Electron Energy =                4198.8128089962510785
    Total Energy =                      -7833.9105470113800038
  Basis Set: (AUG-CC-PVTZ AUX)
    Blend: AUG-CC-PVTZ-RI
    Molecular point group: c1

    Geometry (in Angstrom), charge = 0, multiplicity = 1:

       Center              X                  Y                   Z               Mass
    ------------   -----------------  -----------------  -----------------  -----------------
         BR          -1.916109058571    -0.000012242275     0.262565090606    78.918337600000
         BR           0.716020941429    -1.590330242275    -0.530187909394    78.918337600000
         BR           0.715999941429     1.590342757725    -0.530180909394    78.918337600000
         C            0.449621941429    -0.000001242275     1.858001090606    12.000000000000
         C            0.195249641429    -0.000000042275     0.355901290606    12.000000000000
         C            1.954371941429    -0.000000242275     2.098395090606    12.000000000000
         H           -0.013812058571     0.883684757725     2.310290090606     1.007825032230
         H           -0.013809058571    -0.883689242275     2.310287090606     1.007825032230
         H            2.420173941429     0.887305757725     1.665631090606     1.007825032230
         H            2.145335941429    -0.000002242275     3.174872090606     1.007825032230
         H            2.420175941429    -0.887302242275     1.665627090606     1.007825032230

  Basis Set: AUG-CC-PVTZ
    Blend: AUG-CC-PVTZ
  Basis Set: (AUG-CC-PVTZ AUX)
    Blend: AUG-CC-PVTZ-JKFIT
	 Reference Energy          =   -7833.9105470113800038 [Eh]
	 Singles Energy            =      -0.0000000000000000 [Eh]
	 Same-Spin Energy          =      -0.4059168181068327 [Eh]
	 Opposite-Spin Energy      =      -1.0676627261398801 [Eh]
	 Correlation Energy        =      -1.4735795442467128 [Eh]
	 Total Energy              =   -7835.3841265556266080 [Eh]

	 ================> DF-SCS-MP2 Energies <==================
	-----------------------------------------------------------
	 SCS Same-Spin Scale       =       0.3333333333333333 [-]
	 SCS Opposite-Spin Scale   =       1.2000000000000000 [-]
	 SCS Same-Spin Energy      =      -0.1353056060356109 [Eh]
	 SCS Opposite-Spin Energy  =      -1.2811952713678560 [Eh]
	 SCS Correlation Energy    =      -1.4165008774034669 [Eh]
	 SCS Total Energy          =   -7835.3270478887834543 [Eh]
	-----------------------------------------------------------

  Dipole Moment: [D]
     X:     1.4455      Y:    -0.0000      Z:     1.4891     Total:     2.0753

*** Psi4 exiting successfully. Buy a developer a beer!
