                               Psi4 1.4a3.dev225

  ==> Input File <==

--------------------------------------------------------------------------
#psi4
#
memory 32 gb

molecule  {
0 1
 Br       -1.9526460    -0.0000120     0.1900160
 Br        0.6794840    -1.5903300    -0.6027370
 Br        0.6794630     1.5903430    -0.6027300
  C        0.4130850    -0.0000010     1.7854520
  C       -0.0103617     0.0000000     0.2700146
  C        1.9178350     0.0000000     2.0258460
  H       -0.0503490     0.8836850     2.2377410
  H       -0.0503460    -0.8836890     2.2377380
  H        2.3836370     0.8873060     1.5930820
  H        2.1087990    -0.0000020     3.1023230
  H        2.3836390    -0.8873020     1.5930780
units angstrom
no_reorient  #important for SAPT in psi4, default
symmetry c1  #important for SAPT in psi4, default
}

set PROPERTIES_ORIGIN ["COM"]
properties('MP2/aug-cc-pvtz', properties = ['dipole'])
--------------------------------------------------------------------------

    Molecular point group: c1
  Charge       = 0
  Multiplicity = 1
  Basis Set: AUG-CC-PVTZ
    Blend: AUG-CC-PVTZ
  Basis Set: (AUG-CC-PVTZ AUX)
    Blend: AUG-CC-PVTZ-JKFIT

    Orbital Energies [Eh]
    ---------------------

    Doubly Occupied:

       1A   -490.041026     2A   -490.041026     3A   -490.040713
       4A    -65.180894     5A    -65.180893     6A    -65.180537
       7A    -58.536273     8A    -58.536273     9A    -58.535920
      10A    -58.534664    11A    -58.534664    12A    -58.534647
      13A    -58.534647    14A    -58.534298    15A    -58.534290
      16A    -11.418995    17A    -11.269358    18A    -11.232566
      19A     -9.853711    20A     -9.853706    21A     -9.853324
      22A     -7.465661    23A     -7.465658    24A     -7.465276
      25A     -7.458110    26A     -7.458108    27A     -7.458057
      28A     -7.458055    29A     -7.457687    30A     -7.457657
      31A     -3.209594    32A     -3.209572    33A     -3.209207
      34A     -3.205666    35A     -3.205662    36A     -3.205588
      37A     -3.205585    38A     -3.205258    39A     -3.205238
      40A     -3.195846    41A     -3.195843    42A     -3.195842
      43A     -3.195839    44A     -3.195425    45A     -3.195425
      46A     -1.165766    47A     -1.041335    48A     -1.020301
      49A     -1.019156    50A     -0.894894    51A     -0.765824
      52A     -0.651372    53A     -0.626802    54A     -0.587878
      55A     -0.564312    56A     -0.530943    57A     -0.518928
      58A     -0.502498    59A     -0.447819    60A     -0.446341
      61A     -0.424705    62A     -0.413002    63A     -0.412464
      64A     -0.400122

  @DF-RHF Final Energy: -7833.92054847628515

   => Energetics <=

    Nuclear Repulsion Energy =           1132.8225813242406730
    One-Electron Energy =              -13166.3327696727392322
    Two-Electron Energy =                4199.5896398722134109
    Total Energy =                      -7833.9205484762851484
  Basis Set: (AUG-CC-PVTZ AUX)
    Blend: AUG-CC-PVTZ-RI
    Molecular point group: c1

    Geometry (in Angstrom), charge = 0, multiplicity = 1:

       Center              X                  Y                   Z               Mass
    ------------   -----------------  -----------------  -----------------  -----------------
         BR          -1.908805474648    -0.000012233636     0.263141240992    78.918337600000
         BR           0.723324525352    -1.590330233636    -0.529611759008    78.918337600000
         BR           0.723303525352     1.590342766364    -0.529604759008    78.918337600000
         C            0.456925525352    -0.000001233636     1.858577240992    12.000000000000
         C            0.033478825352    -0.000000233636     0.343139840992    12.000000000000
         C            1.961675525352    -0.000000233636     2.098971240992    12.000000000000
         H           -0.006508474648     0.883684766364     2.310866240992     1.007825032230
         H           -0.006505474648    -0.883689233636     2.310863240992     1.007825032230
         H            2.427477525352     0.887305766364     1.666207240992     1.007825032230
         H            2.152639525352    -0.000002233636     3.175448240992     1.007825032230
         H            2.427479525352    -0.887302233636     1.666203240992     1.007825032230

  Basis Set: AUG-CC-PVTZ
    Blend: AUG-CC-PVTZ
  Basis Set: (AUG-CC-PVTZ AUX)
    Blend: AUG-CC-PVTZ-JKFIT
	 Reference Energy          =   -7833.9205484762851484 [Eh]
	 Singles Energy            =      -0.0000000000000000 [Eh]
	 Same-Spin Energy          =      -0.4050948102829092 [Eh]
	 Opposite-Spin Energy      =      -1.0663194821829047 [Eh]
	 Correlation Energy        =      -1.4714142924658140 [Eh]
	 Total Energy              =   -7835.3919627687510001 [Eh]

	 ================> DF-SCS-MP2 Energies <==================
	-----------------------------------------------------------
	 SCS Same-Spin Scale       =       0.3333333333333333 [-]
	 SCS Opposite-Spin Scale   =       1.2000000000000000 [-]
	 SCS Same-Spin Energy      =      -0.1350316034276364 [Eh]
	 SCS Opposite-Spin Energy  =      -1.2795833786194857 [Eh]
	 SCS Correlation Energy    =      -1.4146149820471221 [Eh]
	 SCS Total Energy          =   -7835.3351634583323175 [Eh]
	-----------------------------------------------------------

  Dipole Moment: [D]
     X:     0.6844      Y:    -0.0000      Z:     1.6168     Total:     1.7557

*** Psi4 exiting successfully. Buy a developer a beer!
