                               Psi4 1.3.2 release

  ==> Input File <==

--------------------------------------------------------------------------
#psi4
#
memory 32 gb

molecule  {
0 1
 Br       -1.9526460    -0.0000120     0.1900160
 Br        0.6794840    -1.5903300    -0.6027370
 Br        0.6794630     1.5903430    -0.6027300
  C        0.4130850    -0.0000010     1.7854520
  C       -0.0106905     0.0223660     0.3222626
  C        1.9178350     0.0000000     2.0258460
  H       -0.0503490     0.8836850     2.2377410
  H       -0.0503460    -0.8836890     2.2377380
  H        2.3836370     0.8873060     1.5930820
  H        2.1087990    -0.0000020     3.1023230
  H        2.3836390    -0.8873020     1.5930780
units angstrom
no_reorient  #important for SAPT in psi4, default
symmetry c1  #important for SAPT in psi4, default
}

set PROPERTIES_ORIGIN ["COM"]
properties('MP2/aug-cc-pvtz', properties = ['dipole'])
--------------------------------------------------------------------------

    Molecular point group: c1
  Charge       = 0
  Multiplicity = 1
  Basis Set: AUG-CC-PVTZ
    Blend: AUG-CC-PVTZ
  Basis Set: (AUG-CC-PVTZ AUX)
    Blend: AUG-CC-PVTZ-JKFIT

    Orbital Energies [Eh]
    ---------------------

    Doubly Occupied:

       1A   -490.042038     2A   -490.041912     3A   -490.037335
       4A    -65.181831     5A    -65.181741     6A    -65.177081
       7A    -58.537223     8A    -58.537129     9A    -58.535588
      10A    -58.535582    11A    -58.535508    12A    -58.535490
      13A    -58.532476    14A    -58.530853    15A    -58.530837
      16A    -11.421210    17A    -11.267659    18A    -11.233899
      19A     -9.854586    20A     -9.854503    21A     -9.849678
      22A     -7.466553    23A     -7.466460    24A     -7.461544
      25A     -7.458920    26A     -7.458901    27A     -7.458883
      28A     -7.458828    29A     -7.454071    30A     -7.454020
      31A     -3.210500    32A     -3.210391    33A     -3.206532
      34A     -3.206513    35A     -3.206474    36A     -3.206385
      37A     -3.205411    38A     -3.201610    39A     -3.201531
      40A     -3.196644    41A     -3.196644    42A     -3.196601
      43A     -3.196597    44A     -3.191830    45A     -3.191826
      46A     -1.167996    47A     -1.043903    48A     -1.019978
      49A     -1.013916    50A     -0.903596    51A     -0.764947
      52A     -0.655381    53A     -0.630428    54A     -0.590363
      55A     -0.561992    56A     -0.533066    57A     -0.515543
      58A     -0.499969    59A     -0.448006    60A     -0.445240
      61A     -0.431354    62A     -0.412090    63A     -0.409346
      64A     -0.399241

  @DF-RHF Final Energy: -7833.92104535784438

   => Energetics <=

    Nuclear Repulsion Energy =           1131.9338733423819576
    One-Electron Energy =              -13164.5814652710905648
    Two-Electron Energy =                4198.7265465708633201
    Total Energy =                      -7833.9210453578443776
  Basis Set: (AUG-CC-PVTZ AUX)
    Blend: AUG-CC-PVTZ-RI
    Molecular point group: c1

    Geometry (in Angstrom), charge = 0, multiplicity = 1:

       Center              X                  Y                   Z               Mass
    ------------   -----------------  -----------------  -----------------  -----------------
         BR          -1.908791271325    -0.000978387933     0.260884260321    78.918337600000
         BR           0.723338728675    -1.591296387933    -0.531868739679    78.918337600000
         BR           0.723317728675     1.589376612067    -0.531861739679    78.918337600000
         C            0.456939728675    -0.000967387933     1.856320260321    12.000000000000
         C            0.033164228675     0.021399612067     0.393130860321    12.000000000000
         C            1.961689728675    -0.000966387933     2.096714260321    12.000000000000
         H           -0.006494271325     0.882718612067     2.308609260321     1.007825032230
         H           -0.006491271325    -0.884655387933     2.308606260321     1.007825032230
         H            2.427491728675     0.886339612067     1.663950260321     1.007825032230
         H            2.152653728675    -0.000968387933     3.173191260321     1.007825032230
         H            2.427493728675    -0.888268387933     1.663946260321     1.007825032230

  Basis Set: AUG-CC-PVTZ
    Blend: AUG-CC-PVTZ
  Basis Set: (AUG-CC-PVTZ AUX)
    Blend: AUG-CC-PVTZ-JKFIT
	 Reference Energy          =   -7833.9210453578443776 [Eh]
	 Singles Energy            =      -0.0000000000000000 [Eh]
	 Same-Spin Energy          =      -0.4051857657125326 [Eh]
	 Opposite-Spin Energy      =      -1.0665743661412950 [Eh]
	 Correlation Energy        =      -1.4717601318538276 [Eh]
	 Total Energy              =   -7835.3928054896978210 [Eh]

	 ================> DF-SCS-MP2 Energies <==================
	-----------------------------------------------------------
	 SCS Same-Spin Scale       =       0.3333333333333333 [-]
	 SCS Opposite-Spin Scale   =       1.2000000000000000 [-]
	 SCS Same-Spin Energy      =      -0.1350619219041775 [Eh]
	 SCS Opposite-Spin Energy  =      -1.2798892393695540 [Eh]
	 SCS Correlation Energy    =      -1.4149511612737316 [Eh]
	 SCS Total Energy          =   -7835.3359965191184529 [Eh]
	-----------------------------------------------------------

  Dipole Moment: [D]
     X:     0.6393      Y:     0.1099      Z:     1.7037     Total:     1.8230

*** Psi4 exiting successfully. Buy a developer a beer!
