                               Psi4 1.4a3.dev225

  ==> Input File <==

--------------------------------------------------------------------------
#psi4
#
memory 32 gb

molecule  {
0 1
 Br       -1.9526460    -0.0000120     0.1900160
 Br        0.6794840    -1.5903300    -0.6027370
 Br        0.6794630     1.5903430    -0.6027300
  C        0.4130850    -0.0000010     1.7854520
  C       -0.0022883     0.0000000     0.2989078
  C        1.9178350     0.0000000     2.0258460
  H       -0.0503490     0.8836850     2.2377410
  H       -0.0503460    -0.8836890     2.2377380
  H        2.3836370     0.8873060     1.5930820
  H        2.1087990    -0.0000020     3.1023230
  H        2.3836390    -0.8873020     1.5930780
units angstrom
no_reorient  #important for SAPT in psi4, default
symmetry c1  #important for SAPT in psi4, default
}

set PROPERTIES_ORIGIN ["COM"]
properties('MP2/aug-cc-pvtz', properties = ['dipole'])
--------------------------------------------------------------------------

    Molecular point group: c1
  Charge       = 0
  Multiplicity = 1
  Basis Set: AUG-CC-PVTZ
    Blend: AUG-CC-PVTZ
  Basis Set: (AUG-CC-PVTZ AUX)
    Blend: AUG-CC-PVTZ-JKFIT

    Orbital Energies [Eh]
    ---------------------

    Doubly Occupied:

       1A   -490.040714     2A   -490.040714     3A   -490.040532
       4A    -65.180541     5A    -65.180541     6A    -65.180318
       7A    -58.535927     8A    -58.535927     9A    -58.535708
      10A    -58.534310    11A    -58.534310    12A    -58.534293
      13A    -58.534293    14A    -58.534078    15A    -58.534071
      16A    -11.420263    17A    -11.268298    18A    -11.233289
      19A     -9.853293    20A     -9.853289    21A     -9.853046
      22A     -7.465230    23A     -7.465227    24A     -7.464987
      25A     -7.457680    26A     -7.457678    27A     -7.457629
      28A     -7.457627    29A     -7.457393    30A     -7.457372
      31A     -3.209157    32A     -3.209135    33A     -3.208913
      34A     -3.205249    35A     -3.205245    36A     -3.205170
      37A     -3.205167    38A     -3.204978    39A     -3.204963
      40A     -3.195414    41A     -3.195410    42A     -3.195410
      43A     -3.195406    44A     -3.195132    45A     -3.195132
      46A     -1.166862    47A     -1.042600    48A     -1.018695
      49A     -1.017812    50A     -0.899773    51A     -0.765522
      52A     -0.653776    53A     -0.628813    54A     -0.589090
      55A     -0.563049    56A     -0.531680    57A     -0.517191
      58A     -0.501308    59A     -0.447581    60A     -0.446093
      61A     -0.428824    62A     -0.411803    63A     -0.411321
      64A     -0.399689

  @DF-RHF Final Energy: -7833.92142165548921

   => Energetics <=

    Nuclear Repulsion Energy =           1132.3052387173238458
    One-Electron Energy =              -13165.3134315462648374
    Two-Electron Energy =                4199.0867711734508703
    Total Energy =                      -7833.9214216554892118
  Basis Set: (AUG-CC-PVTZ AUX)
    Blend: AUG-CC-PVTZ-RI
    Molecular point group: c1

    Geometry (in Angstrom), charge = 0, multiplicity = 1:

       Center              X                  Y                   Z               Mass
    ------------   -----------------  -----------------  -----------------  -----------------
         BR          -1.909154224988    -0.000012233636     0.261893128262    78.918337600000
         BR           0.722975775012    -1.590330233636    -0.530859871738    78.918337600000
         BR           0.722954775012     1.590342766364    -0.530852871738    78.918337600000
         C            0.456576775012    -0.000001233636     1.857329128262    12.000000000000
         C            0.041203475012    -0.000000233636     0.370784928262    12.000000000000
         C            1.961326775012    -0.000000233636     2.097723128262    12.000000000000
         H           -0.006857224988     0.883684766364     2.309618128262     1.007825032230
         H           -0.006854224988    -0.883689233636     2.309615128262     1.007825032230
         H            2.427128775012     0.887305766364     1.664959128262     1.007825032230
         H            2.152290775012    -0.000002233636     3.174200128262     1.007825032230
         H            2.427130775012    -0.887302233636     1.664955128262     1.007825032230

  Basis Set: AUG-CC-PVTZ
    Blend: AUG-CC-PVTZ
  Basis Set: (AUG-CC-PVTZ AUX)
    Blend: AUG-CC-PVTZ-JKFIT
	 Reference Energy          =   -7833.9214216554892118 [Eh]
	 Singles Energy            =      -0.0000000000000000 [Eh]
	 Same-Spin Energy          =      -0.4051174857488049 [Eh]
	 Opposite-Spin Energy      =      -1.0664287684716607 [Eh]
	 Correlation Energy        =      -1.4715462542204656 [Eh]
	 Total Energy              =   -7835.3929679097100234 [Eh]

	 ================> DF-SCS-MP2 Energies <==================
	-----------------------------------------------------------
	 SCS Same-Spin Scale       =       0.3333333333333333 [-]
	 SCS Opposite-Spin Scale   =       1.2000000000000000 [-]
	 SCS Same-Spin Energy      =      -0.1350391619162683 [Eh]
	 SCS Opposite-Spin Energy  =      -1.2797145221659927 [Eh]
	 SCS Correlation Energy    =      -1.4147536840822610 [Eh]
	 SCS Total Energy          =   -7835.3361753395711276 [Eh]
	-----------------------------------------------------------

  Dipole Moment: [D]
     X:     0.6957      Y:    -0.0000      Z:     1.6544     Total:     1.7947

*** Psi4 exiting successfully. Buy a developer a beer!
