                               Psi4 1.3.2 release

  ==> Input File <==

--------------------------------------------------------------------------
#psi4
#
memory 32 gb

molecule  {
0 1
 Br       -1.9545847    -0.0000121     0.2241679
 Br        0.6794840    -1.5903300    -0.6027370
 Br        0.6794630     1.5903430    -0.6027300
  C        0.4130850    -0.0000010     1.7854520
  C        0.0030940     0.0000000     0.3181700
  C        1.9178350     0.0000000     2.0258460
  H       -0.0503490     0.8836850     2.2377410
  H       -0.0503460    -0.8836890     2.2377380
  H        2.3836370     0.8873060     1.5930820
  H        2.1087990    -0.0000020     3.1023230
  H        2.3836390    -0.8873020     1.5930780
units angstrom
no_reorient  #important for SAPT in psi4, default
symmetry c1  #important for SAPT in psi4, default
}

set PROPERTIES_ORIGIN ["COM"]
properties('MP2/aug-cc-pvtz', properties = ['dipole'])
--------------------------------------------------------------------------

    Molecular point group: c1
  Charge       = 0
  Multiplicity = 1
  Basis Set: AUG-CC-PVTZ
    Blend: AUG-CC-PVTZ
  Basis Set: (AUG-CC-PVTZ AUX)
    Blend: AUG-CC-PVTZ-JKFIT

    Orbital Energies [Eh]
    ---------------------

    Doubly Occupied:

       1A   -490.040832     2A   -490.040832     3A   -490.040370
       4A    -65.180619     5A    -65.180619     6A    -65.180133
       7A    -58.536013     8A    -58.536013     9A    -58.535527
      10A    -58.534387    11A    -58.534387    12A    -58.534372
      13A    -58.534372    14A    -58.533894    15A    -58.533885
      16A    -11.421010    17A    -11.267153    18A    -11.233453
      19A     -9.853315    20A     -9.853311    21A     -9.852822
      22A     -7.465246    23A     -7.465243    24A     -7.464751
      25A     -7.457689    26A     -7.457687    27A     -7.457643
      28A     -7.457641    29A     -7.457169    30A     -7.457141
      31A     -3.209171    32A     -3.209151    33A     -3.208671
      34A     -3.205270    35A     -3.205266    36A     -3.205199
      37A     -3.205196    38A     -3.204758    39A     -3.204730
      40A     -3.195419    41A     -3.195416    42A     -3.195416
      43A     -3.195412    44A     -3.194905    45A     -3.194905
      46A     -1.167903    47A     -1.042805    48A     -1.017741
      49A     -1.017620    50A     -0.902675    51A     -0.765351
      52A     -0.655425    53A     -0.629736    54A     -0.590353
      55A     -0.562157    56A     -0.531915    57A     -0.516000
      58A     -0.500056    59A     -0.447070    60A     -0.446009
      61A     -0.430574    62A     -0.411406    63A     -0.411380
      64A     -0.399951

  @DF-RHF Final Energy: -7833.92133507127619

   => Energetics <=

    Nuclear Repulsion Energy =           1131.0735970801656549
    One-Electron Energy =              -13162.8447808671662642
    Two-Electron Energy =                4197.8498487157248746
    Total Energy =                      -7833.9213350712761894
  Basis Set: (AUG-CC-PVTZ AUX)
    Blend: AUG-CC-PVTZ-RI
    Molecular point group: c1

    Geometry (in Angstrom), charge = 0, multiplicity = 1:

       Center              X                  Y                   Z               Mass
    ------------   -----------------  -----------------  -----------------  -----------------
         BR          -1.910774662760    -0.000012305227     0.285510761429    78.918337600000
         BR           0.723294037240    -1.590330205227    -0.541394138571    78.918337600000
         BR           0.723273037240     1.590342794773    -0.541387138571    78.918337600000
         C            0.456895037240    -0.000001205227     1.846794861429    12.000000000000
         C            0.046904037240    -0.000000205227     0.379512861429    12.000000000000
         C            1.961645037240    -0.000000205227     2.087188861429    12.000000000000
         H           -0.006538962760     0.883684794773     2.299083861429     1.007825032230
         H           -0.006535962760    -0.883689205227     2.299080861429     1.007825032230
         H            2.427447037240     0.887305794773     1.654424861429     1.007825032230
         H            2.152609037240    -0.000002205227     3.163665861429     1.007825032230
         H            2.427449037240    -0.887302205227     1.654420861429     1.007825032230

  Basis Set: AUG-CC-PVTZ
    Blend: AUG-CC-PVTZ
  Basis Set: (AUG-CC-PVTZ AUX)
    Blend: AUG-CC-PVTZ-JKFIT
	 Reference Energy          =   -7833.9213350712761894 [Eh]
	 Singles Energy            =      -0.0000000000000000 [Eh]
	 Same-Spin Energy          =      -0.4051652995738748 [Eh]
	 Opposite-Spin Energy      =      -1.0666069680991890 [Eh]
	 Correlation Energy        =      -1.4717722676730638 [Eh]
	 Total Energy              =   -7835.3931073389494486 [Eh]

	 ================> DF-SCS-MP2 Energies <==================
	-----------------------------------------------------------
	 SCS Same-Spin Scale       =       0.3333333333333333 [-]
	 SCS Opposite-Spin Scale   =       1.2000000000000000 [-]
	 SCS Same-Spin Energy      =      -0.1350550998579583 [Eh]
	 SCS Opposite-Spin Energy  =      -1.2799283617190267 [Eh]
	 SCS Correlation Energy    =      -1.4149834615769850 [Eh]
	 SCS Total Energy          =   -7835.3363185328535110 [Eh]
	-----------------------------------------------------------

  Dipole Moment: [D]
     X:     0.7108      Y:    -0.0000      Z:     1.6686     Total:     1.8137

*** Psi4 exiting successfully. Buy a developer a beer!
