                               Psi4 1.3.2 release

  ==> Input File <==

--------------------------------------------------------------------------
#psi4
#
memory 32 gb

molecule  {
0 1
 Br       -1.9469821    -0.0000118     0.1218397
 Br        0.6794840    -1.5903300    -0.6027370
 Br        0.6794630     1.5903430    -0.6027300
  C        0.4130850    -0.0000010     1.7854520
  C        0.0030940     0.0000000     0.3181700
  C        1.9178350     0.0000000     2.0258460
  H       -0.0503490     0.8836850     2.2377410
  H       -0.0503460    -0.8836890     2.2377380
  H        2.3836370     0.8873060     1.5930820
  H        2.1087990    -0.0000020     3.1023230
  H        2.3836390    -0.8873020     1.5930780
units angstrom
no_reorient  #important for SAPT in psi4, default
symmetry c1  #important for SAPT in psi4, default
}

set PROPERTIES_ORIGIN ["COM"]
properties('MP2/aug-cc-pvtz', properties = ['dipole'])
--------------------------------------------------------------------------

    Molecular point group: c1
  Charge       = 0
  Multiplicity = 1
  Basis Set: AUG-CC-PVTZ
    Blend: AUG-CC-PVTZ
  Basis Set: (AUG-CC-PVTZ AUX)
    Blend: AUG-CC-PVTZ-JKFIT

    Orbital Energies [Eh]
    ---------------------

    Doubly Occupied:

       1A   -490.040399     2A   -490.039773     3A   -490.039773
       4A    -65.180155     5A    -65.179597     6A    -65.179597
       7A    -58.535552     8A    -58.534984     9A    -58.534984
      10A    -58.533908    11A    -58.533906    12A    -58.533366
      13A    -58.533366    14A    -58.533346    15A    -58.533346
      16A    -11.421240    17A    -11.268436    18A    -11.234579
      19A     -9.852847    20A     -9.852331    21A     -9.852327
      22A     -7.464792    23A     -7.464256    24A     -7.464253
      25A     -7.457168    26A     -7.457158    27A     -7.456724
      28A     -7.456722    29A     -7.456661    30A     -7.456659
      31A     -3.208724    32A     -3.208170    33A     -3.208150
      34A     -3.204791    35A     -3.204770    36A     -3.204293
      37A     -3.204289    38A     -3.204194    39A     -3.204191
      40A     -3.194898    41A     -3.194897    42A     -3.194452
      43A     -3.194449    44A     -3.194449    45A     -3.194446
      46A     -1.167799    47A     -1.044775    48A     -1.017305
      49A     -1.015388    50A     -0.903988    51A     -0.765286
      52A     -0.655689    53A     -0.631111    54A     -0.589360
      55A     -0.562603    56A     -0.533444    57A     -0.515353
      58A     -0.501130    59A     -0.448008    60A     -0.445661
      61A     -0.432803    62A     -0.410140    63A     -0.408748
      64A     -0.398153

  @DF-RHF Final Energy: -7833.92104311644107

   => Energetics <=

    Nuclear Repulsion Energy =           1133.8265255943902048
    One-Electron Energy =              -13168.3989113477837236
    Two-Electron Energy =                4200.6513426369529043
    Total Energy =                      -7833.9210431164410693
  Basis Set: (AUG-CC-PVTZ AUX)
    Blend: AUG-CC-PVTZ-RI
    Molecular point group: c1

    Geometry (in Angstrom), charge = 0, multiplicity = 1:

       Center              X                  Y                   Z               Mass
    ------------   -----------------  -----------------  -----------------  -----------------
         BR          -1.905331879947    -0.000012090454     0.212252906444    78.918337600000
         BR           0.721134220053    -1.590330290454    -0.512323793556    78.918337600000
         BR           0.721113220053     1.590342709546    -0.512316793556    78.918337600000
         C            0.454735220053    -0.000001290454     1.875865206444    12.000000000000
         C            0.044744220053    -0.000000290454     0.408583206444    12.000000000000
         C            1.959485220053    -0.000000290454     2.116259206444    12.000000000000
         H           -0.008698779947     0.883684709546     2.328154206444     1.007825032230
         H           -0.008695779947    -0.883689290454     2.328151206444     1.007825032230
         H            2.425287220053     0.887305709546     1.683495206444     1.007825032230
         H            2.150449220053    -0.000002290454     3.192736206444     1.007825032230
         H            2.425289220053    -0.887302290454     1.683491206444     1.007825032230

  Basis Set: AUG-CC-PVTZ
    Blend: AUG-CC-PVTZ
  Basis Set: (AUG-CC-PVTZ AUX)
    Blend: AUG-CC-PVTZ-JKFIT
	 Reference Energy          =   -7833.9210431164410693 [Eh]
	 Singles Energy            =      -0.0000000000000000 [Eh]
	 Same-Spin Energy          =      -0.4051988641502751 [Eh]
	 Opposite-Spin Energy      =      -1.0665221878109941 [Eh]
	 Correlation Energy        =      -1.4717210519612691 [Eh]
	 Total Energy              =   -7835.3927641684022092 [Eh]

	 ================> DF-SCS-MP2 Energies <==================
	-----------------------------------------------------------
	 SCS Same-Spin Scale       =       0.3333333333333333 [-]
	 SCS Opposite-Spin Scale   =       1.2000000000000000 [-]
	 SCS Same-Spin Energy      =      -0.1350662880500917 [Eh]
	 SCS Opposite-Spin Energy  =      -1.2798266253731929 [Eh]
	 SCS Correlation Energy    =      -1.4148929134232846 [Eh]
	 SCS Total Energy          =   -7835.3359360298645697 [Eh]
	-----------------------------------------------------------

  Dipole Moment: [D]
     X:     0.6932      Y:    -0.0000      Z:     1.7125     Total:     1.8475

*** Psi4 exiting successfully. Buy a developer a beer!
