                               Psi4 1.3.2 release

  ==> Input File <==

--------------------------------------------------------------------------
#psi4
#
memory 32 gb

molecule  {
0 1
 Br       -1.9526460    -0.0000120     0.1900160
 Br        0.6794840    -1.5903300    -0.6027370
 Br        0.6794630     1.5903430    -0.6027300
  C        0.4130850    -0.0000010     1.7854520
  C        0.0569168    -0.0000001     0.5107917
  C        1.9178350     0.0000000     2.0258460
  H       -0.0503490     0.8836850     2.2377410
  H       -0.0503460    -0.8836890     2.2377380
  H        2.3836370     0.8873060     1.5930820
  H        2.1087990    -0.0000020     3.1023230
  H        2.3836390    -0.8873020     1.5930780
units angstrom
no_reorient  #important for SAPT in psi4, default
symmetry c1  #important for SAPT in psi4, default
}

set PROPERTIES_ORIGIN ["COM"]
properties('MP2/aug-cc-pvtz', properties = ['dipole'])
--------------------------------------------------------------------------

    Molecular point group: c1
  Charge       = 0
  Multiplicity = 1
  Basis Set: AUG-CC-PVTZ
    Blend: AUG-CC-PVTZ
  Basis Set: (AUG-CC-PVTZ AUX)
    Blend: AUG-CC-PVTZ-JKFIT

    Orbital Energies [Eh]
    ---------------------

    Doubly Occupied:

       1A   -490.037138     2A   -490.036203     3A   -490.036203
       4A    -65.176650     5A    -65.175743     6A    -65.175743
       7A    -58.532085     8A    -58.531175     9A    -58.531175
      10A    -58.530392    11A    -58.530389    12A    -58.529500
      13A    -58.529500    14A    -58.529482    15A    -58.529482
      16A    -11.427837    17A    -11.261044    18A    -11.243470
      19A     -9.848955    20A     -9.848043    21A     -9.848038
      22A     -7.460812    23A     -7.459884    24A     -7.459880
      25A     -7.453214    26A     -7.453182    27A     -7.452355
      28A     -7.452352    29A     -7.452283    30A     -7.452281
      31A     -3.204695    32A     -3.203749    33A     -3.203737
      34A     -3.200897    35A     -3.200872    36A     -3.200009
      37A     -3.200005    38A     -3.199912    39A     -3.199906
      40A     -3.190920    41A     -3.190918    42A     -3.190057
      43A     -3.190055    44A     -3.190054    45A     -3.190053
      46A     -1.195650    47A     -1.049394    48A     -1.006263
      49A     -1.005056    50A     -0.938607    51A     -0.764735
      52A     -0.680385    53A     -0.645523    54A     -0.605113
      55A     -0.561532    56A     -0.546914    57A     -0.495334
      58A     -0.486208    59A     -0.448407    60A     -0.442151
      61A     -0.439691    62A     -0.401133    63A     -0.400889
      64A     -0.394588

  @DF-RHF Final Energy: -7833.88292935523441

   => Energetics <=

    Nuclear Repulsion Energy =           1128.1995184494369369
    One-Electron Energy =              -13157.2690932685272855
    Two-Electron Energy =                4195.1866454638557116
    Total Energy =                      -7833.8829293552344097
  Basis Set: (AUG-CC-PVTZ AUX)
    Blend: AUG-CC-PVTZ-RI
    Molecular point group: c1

    Geometry (in Angstrom), charge = 0, multiplicity = 1:

       Center              X                  Y                   Z               Mass
    ------------   -----------------  -----------------  -----------------  -----------------
         BR          -1.911711734679    -0.000012229316     0.252740282854    78.918337600000
         BR           0.720418265321    -1.590330229316    -0.540012717146    78.918337600000
         BR           0.720397265321     1.590342770684    -0.540005717146    78.918337600000
         C            0.454019265321    -0.000001229316     1.848176282854    12.000000000000
         C            0.097851065321    -0.000000329316     0.573515982854    12.000000000000
         C            1.958769265321    -0.000000229316     2.088570282854    12.000000000000
         H           -0.009414734679     0.883684770684     2.300465282854     1.007825032230
         H           -0.009411734679    -0.883689229316     2.300462282854     1.007825032230
         H            2.424571265321     0.887305770684     1.655806282854     1.007825032230
         H            2.149733265321    -0.000002229316     3.165047282854     1.007825032230
         H            2.424573265321    -0.887302229316     1.655802282854     1.007825032230

  Basis Set: AUG-CC-PVTZ
    Blend: AUG-CC-PVTZ
  Basis Set: (AUG-CC-PVTZ AUX)
    Blend: AUG-CC-PVTZ-JKFIT
	 Reference Energy          =   -7833.8829293552344097 [Eh]
	 Singles Energy            =      -0.0000000000000000 [Eh]
	 Same-Spin Energy          =      -0.4074696572150167 [Eh]
	 Opposite-Spin Energy      =      -1.0706269717259838 [Eh]
	 Correlation Energy        =      -1.4780966289410005 [Eh]
	 Total Energy              =   -7835.3610259841752850 [Eh]

	 ================> DF-SCS-MP2 Energies <==================
	-----------------------------------------------------------
	 SCS Same-Spin Scale       =       0.3333333333333333 [-]
	 SCS Opposite-Spin Scale   =       1.2000000000000000 [-]
	 SCS Same-Spin Energy      =      -0.1358232190716722 [Eh]
	 SCS Opposite-Spin Energy  =      -1.2847523660711804 [Eh]
	 SCS Correlation Energy    =      -1.4205755851428525 [Eh]
	 SCS Total Energy          =   -7835.3035049403770245 [Eh]
	-----------------------------------------------------------

  Dipole Moment: [D]
     X:     0.8934      Y:    -0.0000      Z:     2.2226     Total:     2.3954

*** Psi4 exiting successfully. Buy a developer a beer!
