                               Psi4 1.3.2 release

  ==> Input File <==

--------------------------------------------------------------------------
#psi4
#
memory 32 gb

molecule  {
0 1
 Br       -1.9526460    -0.0000120     0.1900160
 Br        0.6794840    -1.5903300    -0.6027370
 Br        0.6794630     1.5903430    -0.6027300
  C        0.4130850    -0.0000010     1.7854520
  C        0.0545512     0.0000001     0.3047553
  C        1.9178350     0.0000000     2.0258460
  H       -0.0503490     0.8836850     2.2377410
  H       -0.0503460    -0.8836890     2.2377380
  H        2.3836370     0.8873060     1.5930820
  H        2.1087990    -0.0000020     3.1023230
  H        2.3836390    -0.8873020     1.5930780
units angstrom
no_reorient  #important for SAPT in psi4, default
symmetry c1  #important for SAPT in psi4, default
}

set PROPERTIES_ORIGIN ["COM"]
properties('MP2/aug-cc-pvtz', properties = ['dipole'])
--------------------------------------------------------------------------

    Molecular point group: c1
  Charge       = 0
  Multiplicity = 1
  Basis Set: AUG-CC-PVTZ
    Blend: AUG-CC-PVTZ
  Basis Set: (AUG-CC-PVTZ AUX)
    Blend: AUG-CC-PVTZ-JKFIT

    Orbital Energies [Eh]
    ---------------------

    Doubly Occupied:

       1A   -490.043568     2A   -490.043568     3A   -490.034055
       4A    -65.183424     5A    -65.183423     6A    -65.173720
       7A    -58.538810     8A    -58.538810     9A    -58.537187
      10A    -58.537187    11A    -58.537172    12A    -58.537172
      13A    -58.529117    14A    -58.527483    15A    -58.527480
      16A    -11.421407    17A    -11.267684    18A    -11.233807
      19A     -9.856248    20A     -9.856243    21A     -9.846201
      22A     -7.468240    23A     -7.468237    24A     -7.460612
      25A     -7.460610    26A     -7.460567    27A     -7.460565
      28A     -7.458006    29A     -7.450558    30A     -7.450554
      31A     -3.212207    32A     -3.212185    33A     -3.208220
      34A     -3.208216    35A     -3.208156    36A     -3.208153
      37A     -3.201838    38A     -3.198319    39A     -3.198315
      40A     -3.198315    41A     -3.198312    42A     -3.198074
      43A     -3.198072    44A     -3.188364    45A     -3.188364
      46A     -1.168737    47A     -1.043717    48A     -1.023386
      49A     -1.011186    50A     -0.901609    51A     -0.767061
      52A     -0.656246    53A     -0.630267    54A     -0.589219
      55A     -0.563695    56A     -0.531767    57A     -0.516025
      58A     -0.502521    59A     -0.449922    60A     -0.444713
      61A     -0.428358    62A     -0.414059    63A     -0.407301
      64A     -0.398700

  @DF-RHF Final Energy: -7833.92004153508333

   => Energetics <=

    Nuclear Repulsion Energy =           1132.0050728503431401
    One-Electron Energy =              -13164.7196029167862434
    Two-Electron Energy =                4198.7944885313600025
    Total Energy =                      -7833.9200415350833282
  Basis Set: (AUG-CC-PVTZ AUX)
    Blend: AUG-CC-PVTZ-RI
    Molecular point group: c1

    Geometry (in Angstrom), charge = 0, multiplicity = 1:

       Center              X                  Y                   Z               Mass
    ------------   -----------------  -----------------  -----------------  -----------------
         BR          -1.911609546778    -0.000012237956     0.261640531139    78.918337600000
         BR           0.720520453222    -1.590330237956    -0.531112468861    78.918337600000
         BR           0.720499453222     1.590342762044    -0.531105468861    78.918337600000
         C            0.454121453222    -0.000001237956     1.857076531139    12.000000000000
         C            0.095587653222    -0.000000137956     0.376379831139    12.000000000000
         C            1.958871453222    -0.000000237956     2.097470531139    12.000000000000
         H           -0.009312546778     0.883684762044     2.309365531139     1.007825032230
         H           -0.009309546778    -0.883689237956     2.309362531139     1.007825032230
         H            2.424673453222     0.887305762044     1.664706531139     1.007825032230
         H            2.149835453222    -0.000002237956     3.173947531139     1.007825032230
         H            2.424675453222    -0.887302237956     1.664702531139     1.007825032230

  Basis Set: AUG-CC-PVTZ
    Blend: AUG-CC-PVTZ
  Basis Set: (AUG-CC-PVTZ AUX)
    Blend: AUG-CC-PVTZ-JKFIT
	 Reference Energy          =   -7833.9200415350833282 [Eh]
	 Singles Energy            =      -0.0000000000000000 [Eh]
	 Same-Spin Energy          =      -0.4052694725634006 [Eh]
	 Opposite-Spin Energy      =      -1.0667461265808060 [Eh]
	 Correlation Energy        =      -1.4720155991442065 [Eh]
	 Total Energy              =   -7835.3920571342277981 [Eh]

	 ================> DF-SCS-MP2 Energies <==================
	-----------------------------------------------------------
	 SCS Same-Spin Scale       =       0.3333333333333333 [-]
	 SCS Opposite-Spin Scale   =       1.2000000000000000 [-]
	 SCS Same-Spin Energy      =      -0.1350898241878002 [Eh]
	 SCS Opposite-Spin Energy  =      -1.2800953518969671 [Eh]
	 SCS Correlation Energy    =      -1.4151851760847673 [Eh]
	 SCS Total Energy          =   -7835.3352267111677065 [Eh]
	-----------------------------------------------------------

  Dipole Moment: [D]
     X:     0.9486      Y:    -0.0000      Z:     1.6135     Total:     1.8717

*** Psi4 exiting successfully. Buy a developer a beer!
