                               Psi4 1.3.2 release

  ==> Input File <==

--------------------------------------------------------------------------
#psi4
#
memory 32 gb

molecule  {
0 1
 Br       -1.9526460    -0.0000120     0.1900160
 Br        0.6794840    -1.5903300    -0.6027370
 Br        0.6794630     1.5903430    -0.6027300
  C        0.4130850    -0.0000010     1.7854520
  C       -0.0224512    -0.0000000     0.3255488
  C        1.9178350     0.0000000     2.0258460
  H       -0.0503490     0.8836850     2.2377410
  H       -0.0503460    -0.8836890     2.2377380
  H        2.3836370     0.8873060     1.5930820
  H        2.1087990    -0.0000020     3.1023230
  H        2.3836390    -0.8873020     1.5930780
units angstrom
no_reorient  #important for SAPT in psi4, default
symmetry c1  #important for SAPT in psi4, default
}

set PROPERTIES_ORIGIN ["COM"]
properties('MP2/aug-cc-pvtz', properties = ['dipole'])
--------------------------------------------------------------------------

    Molecular point group: c1
  Charge       = 0
  Multiplicity = 1
  Basis Set: AUG-CC-PVTZ
    Blend: AUG-CC-PVTZ
  Basis Set: (AUG-CC-PVTZ AUX)
    Blend: AUG-CC-PVTZ-JKFIT

    Orbital Energies [Eh]
    ---------------------

    Doubly Occupied:

       1A   -490.043386     2A   -490.038944     3A   -490.038943
       4A    -65.183214     5A    -65.178715     6A    -65.178715
       7A    -58.538601     8A    -58.536970     9A    -58.536963
      10A    -58.534108    11A    -58.534108    12A    -58.532485
      13A    -58.532485    14A    -58.532468    15A    -58.532468
      16A    -11.421225    17A    -11.267678    18A    -11.233945
      19A     -9.856032    20A     -9.851367    21A     -9.851363
      22A     -7.468026    23A     -7.463264    24A     -7.463260
      25A     -7.460368    26A     -7.460345    27A     -7.455753
      28A     -7.455751    29A     -7.455701    30A     -7.455698
      31A     -3.211991    32A     -3.207986    33A     -3.207966
      34A     -3.207162    35A     -3.207142    36A     -3.203315
      37A     -3.203311    38A     -3.203229    39A     -3.203226
      40A     -3.198082    41A     -3.198081    42A     -3.193497
      43A     -3.193494    44A     -3.193493    45A     -3.193490
      46A     -1.167971    47A     -1.044239    48A     -1.018734
      49A     -1.014726    50A     -0.903965    51A     -0.764589
      52A     -0.655276    53A     -0.630568    54A     -0.590398
      55A     -0.561831    56A     -0.533649    57A     -0.515062
      58A     -0.499643    59A     -0.447334    60A     -0.445885
      61A     -0.431591    62A     -0.411826    63A     -0.409574
      64A     -0.399276

  @DF-RHF Final Energy: -7833.92103470712209

   => Energetics <=

    Nuclear Repulsion Energy =           1131.9206034393084792
    One-Electron Energy =              -13164.5553697469622421
    Two-Electron Energy =                4198.7137316005319008
    Total Energy =                      -7833.9210347071220895
  Basis Set: (AUG-CC-PVTZ AUX)
    Blend: AUG-CC-PVTZ-RI
    Molecular point group: c1

    Geometry (in Angstrom), charge = 0, multiplicity = 1:

       Center              X                  Y                   Z               Mass
    ------------   -----------------  -----------------  -----------------  -----------------
         BR          -1.908283239006    -0.000012233636     0.260742304842    78.918337600000
         BR           0.723846760994    -1.590330233636    -0.532010695158    78.918337600000
         BR           0.723825760994     1.590342766364    -0.532003695158    78.918337600000
         C            0.457447760994    -0.000001233636     1.856178304842    12.000000000000
         C            0.021911560994    -0.000000233636     0.396275104842    12.000000000000
         C            1.962197760994    -0.000000233636     2.096572304842    12.000000000000
         H           -0.005986239006     0.883684766364     2.308467304842     1.007825032230
         H           -0.005983239006    -0.883689233636     2.308464304842     1.007825032230
         H            2.427999760994     0.887305766364     1.663808304842     1.007825032230
         H            2.153161760994    -0.000002233636     3.173049304842     1.007825032230
         H            2.428001760994    -0.887302233636     1.663804304842     1.007825032230

  Basis Set: AUG-CC-PVTZ
    Blend: AUG-CC-PVTZ
  Basis Set: (AUG-CC-PVTZ AUX)
    Blend: AUG-CC-PVTZ-JKFIT
	 Reference Energy          =   -7833.9210347071220895 [Eh]
	 Singles Energy            =      -0.0000000000000000 [Eh]
	 Same-Spin Energy          =      -0.4051838918043159 [Eh]
	 Opposite-Spin Energy      =      -1.0665621487104242 [Eh]
	 Correlation Energy        =      -1.4717460405147400 [Eh]
	 Total Energy              =   -7835.3927807476366070 [Eh]

	 ================> DF-SCS-MP2 Energies <==================
	-----------------------------------------------------------
	 SCS Same-Spin Scale       =       0.3333333333333333 [-]
	 SCS Opposite-Spin Scale   =       1.2000000000000000 [-]
	 SCS Same-Spin Energy      =      -0.1350612972681053 [Eh]
	 SCS Opposite-Spin Energy  =      -1.2798745784525090 [Eh]
	 SCS Correlation Energy    =      -1.4149358757206143 [Eh]
	 SCS Total Energy          =   -7835.3359705828424921 [Eh]
	-----------------------------------------------------------

  Dipole Moment: [D]
     X:     0.5827      Y:    -0.0000      Z:     1.7206     Total:     1.8166

*** Psi4 exiting successfully. Buy a developer a beer!
