                               Psi4 1.3.2 release

  ==> Input File <==

--------------------------------------------------------------------------
#psi4
#
memory 32 gb

molecule  {
0 1
 Br       -1.9285365    -0.0000114    -0.0137125
 Br        0.6794840    -1.5903300    -0.6027370
 Br        0.6794630     1.5903430    -0.6027300
  C        0.4130850    -0.0000010     1.7854520
  C        0.0030940     0.0000000     0.3181700
  C        1.9178350     0.0000000     2.0258460
  H       -0.0503490     0.8836850     2.2377410
  H       -0.0503460    -0.8836890     2.2377380
  H        2.3836370     0.8873060     1.5930820
  H        2.1087990    -0.0000020     3.1023230
  H        2.3836390    -0.8873020     1.5930780
units angstrom
no_reorient  #important for SAPT in psi4, default
symmetry c1  #important for SAPT in psi4, default
}

set PROPERTIES_ORIGIN ["COM"]
properties('MP2/aug-cc-pvtz', properties = ['dipole'])
--------------------------------------------------------------------------

    Molecular point group: c1
  Charge       = 0
  Multiplicity = 1
  Basis Set: AUG-CC-PVTZ
    Blend: AUG-CC-PVTZ
  Basis Set: (AUG-CC-PVTZ AUX)
    Blend: AUG-CC-PVTZ-JKFIT

    Orbital Energies [Eh]
    ---------------------

    Doubly Occupied:

       1A   -490.040318     2A   -490.038352     3A   -490.038352
       4A    -65.180078     5A    -65.178230     6A    -65.178229
       7A    -58.535480     8A    -58.533826     9A    -58.533812
      10A    -58.533607    11A    -58.533607    12A    -58.531999
      13A    -58.531999    14A    -58.531972    15A    -58.531972
      16A    -11.421448    17A    -11.270149    18A    -11.235961
      19A     -9.852792    20A     -9.851019    21A     -9.851014
      22A     -7.464771    23A     -7.462936    24A     -7.462933
      25A     -7.457104    26A     -7.457045    27A     -7.455436
      28A     -7.455434    29A     -7.455346    30A     -7.455344
      31A     -3.208724    32A     -3.206837    33A     -3.206816
      34A     -3.204792    35A     -3.204709    36A     -3.202992
      37A     -3.202987    38A     -3.202853    39A     -3.202850
      40A     -3.194774    41A     -3.194771    42A     -3.193157
      43A     -3.193154    44A     -3.193154    45A     -3.193151
      46A     -1.167930    47A     -1.047408    48A     -1.016769
      49A     -1.012323    50A     -0.905604    51A     -0.765322
      52A     -0.656110    53A     -0.632837    54A     -0.588160
      55A     -0.563206    56A     -0.535336    57A     -0.514581
      58A     -0.502576    59A     -0.449444    60A     -0.445412
      61A     -0.435215    62A     -0.408517    63A     -0.404857
      64A     -0.395410

  @DF-RHF Final Energy: -7833.91885891046422

   => Energetics <=

    Nuclear Repulsion Energy =           1138.0474543613077003
    One-Electron Energy =              -13176.9060187277827936
    Two-Electron Energy =                4204.9397054560113247
    Total Energy =                      -7833.9188589104642233
  Basis Set: (AUG-CC-PVTZ AUX)
    Blend: AUG-CC-PVTZ-RI
    Molecular point group: c1

    Geometry (in Angstrom), charge = 0, multiplicity = 1:

       Center              X                  Y                   Z               Mass
    ------------   -----------------  -----------------  -----------------  -----------------
         BR          -1.892126477234    -0.000011804089     0.115209633812    78.918337600000
         BR           0.715894022766    -1.590330404089    -0.473814866188    78.918337600000
         BR           0.715873022766     1.590342595911    -0.473807866188    78.918337600000
         C            0.449495022766    -0.000001404089     1.914374133812    12.000000000000
         C            0.039504022766    -0.000000404089     0.447092133812    12.000000000000
         C            1.954245022766    -0.000000404089     2.154768133812    12.000000000000
         H           -0.013938977234     0.883684595911     2.366663133812     1.007825032230
         H           -0.013935977234    -0.883689404089     2.366660133812     1.007825032230
         H            2.420047022766     0.887305595911     1.722004133812     1.007825032230
         H            2.145209022766    -0.000002404089     3.231245133812     1.007825032230
         H            2.420049022766    -0.887302404089     1.722000133812     1.007825032230

  Basis Set: AUG-CC-PVTZ
    Blend: AUG-CC-PVTZ
  Basis Set: (AUG-CC-PVTZ AUX)
    Blend: AUG-CC-PVTZ-JKFIT
	 Reference Energy          =   -7833.9188589104642233 [Eh]
	 Singles Energy            =      -0.0000000000000000 [Eh]
	 Same-Spin Energy          =      -0.4053671690629135 [Eh]
	 Opposite-Spin Energy      =      -1.0666197609918284 [Eh]
	 Correlation Energy        =      -1.4719869300547419 [Eh]
	 Total Energy              =   -7835.3908458405185229 [Eh]

	 ================> DF-SCS-MP2 Energies <==================
	-----------------------------------------------------------
	 SCS Same-Spin Scale       =       0.3333333333333333 [-]
	 SCS Opposite-Spin Scale   =       1.2000000000000000 [-]
	 SCS Same-Spin Energy      =      -0.1351223896876378 [Eh]
	 SCS Opposite-Spin Energy  =      -1.2799437131901941 [Eh]
	 SCS Correlation Energy    =      -1.4150661028778320 [Eh]
	 SCS Total Energy          =   -7835.3339250133421956 [Eh]
	-----------------------------------------------------------

  Dipole Moment: [D]
     X:     0.6709      Y:    -0.0000      Z:     1.7687     Total:     1.8917

*** Psi4 exiting successfully. Buy a developer a beer!
