                               Psi4 1.3.2 release

  ==> Input File <==

--------------------------------------------------------------------------
#psi4
#
memory 32 gb

molecule  {
0 1
 Br       -1.9553280    -0.0000125     0.3951485
 Br        0.6794840    -1.5903300    -0.6027370
 Br        0.6794630     1.5903430    -0.6027300
  C        0.4130850    -0.0000010     1.7854520
  C        0.0030940     0.0000000     0.3181700
  C        1.9178350     0.0000000     2.0258460
  H       -0.0503490     0.8836850     2.2377410
  H       -0.0503460    -0.8836890     2.2377380
  H        2.3836370     0.8873060     1.5930820
  H        2.1087990    -0.0000020     3.1023230
  H        2.3836390    -0.8873020     1.5930780
units angstrom
no_reorient  #important for SAPT in psi4, default
symmetry c1  #important for SAPT in psi4, default
}

set PROPERTIES_ORIGIN ["COM"]
properties('MP2/aug-cc-pvtz', properties = ['dipole'])
--------------------------------------------------------------------------

    Molecular point group: c1
  Charge       = 0
  Multiplicity = 1
  Basis Set: AUG-CC-PVTZ
    Blend: AUG-CC-PVTZ
  Basis Set: (AUG-CC-PVTZ AUX)
    Blend: AUG-CC-PVTZ-JKFIT

    Orbital Energies [Eh]
    ---------------------

    Doubly Occupied:

       1A   -490.042586     2A   -490.042586     3A   -490.040137
       4A    -65.182313     5A    -65.182313     6A    -65.179933
       7A    -58.537718     8A    -58.537718     9A    -58.536080
      10A    -58.536080    11A    -58.536069    12A    -58.536069
      13A    -58.535322    14A    -58.533702    15A    -58.533673
      16A    -11.420482    17A    -11.265030    18A    -11.231391
      19A     -9.854951    20A     -9.854946    21A     -9.852645
      22A     -7.466896    23A     -7.466892    24A     -7.464567
      25A     -7.459295    26A     -7.459293    27A     -7.459269
      28A     -7.459267    29A     -7.457035    30A     -7.456942
      31A     -3.210838    32A     -3.210820    33A     -3.208476
      34A     -3.206902    35A     -3.206897    36A     -3.206869
      37A     -3.206865    38A     -3.204617    39A     -3.204503
      40A     -3.197022    41A     -3.197018    42A     -3.197018
      43A     -3.197014    44A     -3.194744    45A     -3.194742
      46A     -1.168508    47A     -1.039642    48A     -1.021145
      49A     -1.018518    50A     -0.900250    51A     -0.765690
      52A     -0.655145    53A     -0.627296    54A     -0.592147
      55A     -0.561416    56A     -0.529163    57A     -0.517358
      58A     -0.498326    59A     -0.446657    60A     -0.445710
      61A     -0.426213    62A     -0.415107    63A     -0.413530
      64A     -0.402541

  @DF-RHF Final Energy: -7833.91906947209736

   => Energetics <=

    Nuclear Repulsion Energy =           1127.2708455144784239
    One-Electron Energy =              -13155.1600161433543690
    Two-Electron Energy =                4193.9701011567785827
    Total Energy =                      -7833.9190694720973624
  Basis Set: (AUG-CC-PVTZ AUX)
    Blend: AUG-CC-PVTZ-RI
    Molecular point group: c1

    Geometry (in Angstrom), charge = 0, multiplicity = 1:

       Center              X                  Y                   Z               Mass
    ------------   -----------------  -----------------  -----------------  -----------------
         BR          -1.911306799196    -0.000012591591     0.407917605291    78.918337600000
         BR           0.723505200804    -1.590330091591    -0.589967894709    78.918337600000
         BR           0.723484200804     1.590342908409    -0.589960894709    78.918337600000
         C            0.457106200804    -0.000001091591     1.798221105291    12.000000000000
         C            0.047115200804    -0.000000091591     0.330939105291    12.000000000000
         C            1.961856200804    -0.000000091591     2.038615105291    12.000000000000
         H           -0.006327799196     0.883684908409     2.250510105291     1.007825032230
         H           -0.006324799196    -0.883689091591     2.250507105291     1.007825032230
         H            2.427658200804     0.887305908409     1.605851105291     1.007825032230
         H            2.152820200804    -0.000002091591     3.115092105291     1.007825032230
         H            2.427660200804    -0.887302091591     1.605847105291     1.007825032230

  Basis Set: AUG-CC-PVTZ
    Blend: AUG-CC-PVTZ
  Basis Set: (AUG-CC-PVTZ AUX)
    Blend: AUG-CC-PVTZ-JKFIT
	 Reference Energy          =   -7833.9190694720973624 [Eh]
	 Singles Energy            =      -0.0000000000000000 [Eh]
	 Same-Spin Energy          =      -0.4053031870306899 [Eh]
	 Opposite-Spin Energy      =      -1.0670816774914784 [Eh]
	 Correlation Energy        =      -1.4723848645221684 [Eh]
	 Total Energy              =   -7835.3914543366199723 [Eh]

	 ================> DF-SCS-MP2 Energies <==================
	-----------------------------------------------------------
	 SCS Same-Spin Scale       =       0.3333333333333333 [-]
	 SCS Opposite-Spin Scale   =       1.2000000000000000 [-]
	 SCS Same-Spin Energy      =      -0.1351010623435633 [Eh]
	 SCS Opposite-Spin Energy  =      -1.2804980129897741 [Eh]
	 SCS Correlation Energy    =      -1.4155990753333374 [Eh]
	 SCS Total Energy          =   -7835.3346685474307378 [Eh]
	-----------------------------------------------------------

  Dipole Moment: [D]
     X:     0.7420      Y:    -0.0000      Z:     1.5934     Total:     1.7577

*** Psi4 exiting successfully. Buy a developer a beer!
