                               Psi4 1.3.2 release

  ==> Input File <==

--------------------------------------------------------------------------
#psi4
#
memory 32 gb

molecule  {
0 1
 Br       -1.9526460    -0.0000120     0.1900160
 Br        0.6794840    -1.5903300    -0.6027370
 Br        0.6794630     1.5903430    -0.6027300
  C        0.4130850    -0.0000010     1.7854520
  C       -0.0512531     0.0893959     0.3372091
  C        1.9178350     0.0000000     2.0258460
  H       -0.0503490     0.8836850     2.2377410
  H       -0.0503460    -0.8836890     2.2377380
  H        2.3836370     0.8873060     1.5930820
  H        2.1087990    -0.0000020     3.1023230
  H        2.3836390    -0.8873020     1.5930780
units angstrom
no_reorient  #important for SAPT in psi4, default
symmetry c1  #important for SAPT in psi4, default
}

set PROPERTIES_ORIGIN ["COM"]
properties('MP2/aug-cc-pvtz', properties = ['dipole'])
--------------------------------------------------------------------------

    Molecular point group: c1
  Charge       = 0
  Multiplicity = 1
  Basis Set: AUG-CC-PVTZ
    Blend: AUG-CC-PVTZ
  Basis Set: (AUG-CC-PVTZ AUX)
    Blend: AUG-CC-PVTZ-JKFIT

    Orbital Energies [Eh]
    ---------------------

    Doubly Occupied:

       1A   -490.047080     2A   -490.046360     3A   -490.027063
       4A    -65.186981     5A    -65.186272     6A    -65.166727
       7A    -58.542360     8A    -58.541651     9A    -58.540736
      10A    -58.540723    11A    -58.540038    12A    -58.540012
      13A    -58.522109    14A    -58.520513    15A    -58.520497
      16A    -11.422754    17A    -11.268537    18A    -11.234319
      19A     -9.859946    20A     -9.859202    21A     -9.839092
      22A     -7.472008    23A     -7.471239    24A     -7.464278
      25A     -7.464235    26A     -7.463578    27A     -7.463500
      28A     -7.450744    29A     -7.443558    30A     -7.443507
      31A     -3.216022    32A     -3.215230    33A     -3.211941
      34A     -3.211880    35A     -3.211219    36A     -3.211089
      37A     -3.201958    38A     -3.201955    39A     -3.201254
      40A     -3.201250    41A     -3.194454    42A     -3.190918
      43A     -3.190838    44A     -3.181448    45A     -3.181444
      46A     -1.170473    47A     -1.046706    48A     -1.028714
      49A     -1.001756    50A     -0.905423    51A     -0.764436
      52A     -0.655366    53A     -0.632064    54A     -0.593023
      55A     -0.560988    56A     -0.536122    57A     -0.515714
      58A     -0.498924    59A     -0.452020    60A     -0.444190
      61A     -0.425949    62A     -0.416942    63A     -0.403476
      64A     -0.397082

  @DF-RHF Final Energy: -7833.91642393340135

   => Energetics <=

    Nuclear Repulsion Energy =           1131.8474140231878664
    One-Electron Energy =              -13164.4038972132930212
    Two-Electron Energy =                4198.6400592567033527
    Total Energy =                      -7833.9164239334013473
  Basis Set: (AUG-CC-PVTZ AUX)
    Blend: AUG-CC-PVTZ-RI
    Molecular point group: c1

    Geometry (in Angstrom), charge = 0, multiplicity = 1:

       Center              X                  Y                   Z               Mass
    ------------   -----------------  -----------------  -----------------  -----------------
         BR          -1.907039070203    -0.003873909076     0.260238609548    78.918337600000
         BR           0.725090929797    -1.594191909076    -0.532514390452    78.918337600000
         BR           0.725069929797     1.586481090924    -0.532507390452    78.918337600000
         C            0.458691929797    -0.003862909076     1.855674609548    12.000000000000
         C           -0.005646170203     0.085533990924     0.407431709548    12.000000000000
         C            1.963441929797    -0.003861909076     2.096068609548    12.000000000000
         H           -0.004742070203     0.879823090924     2.307963609548     1.007825032230
         H           -0.004739070203    -0.887550909076     2.307960609548     1.007825032230
         H            2.429243929797     0.883444090924     1.663304609548     1.007825032230
         H            2.154405929797    -0.003863909076     3.172545609548     1.007825032230
         H            2.429245929797    -0.891163909076     1.663300609548     1.007825032230

  Basis Set: AUG-CC-PVTZ
    Blend: AUG-CC-PVTZ
  Basis Set: (AUG-CC-PVTZ AUX)
    Blend: AUG-CC-PVTZ-JKFIT
	 Reference Energy          =   -7833.9164239334013473 [Eh]
	 Singles Energy            =      -0.0000000000000000 [Eh]
	 Same-Spin Energy          =      -0.4054821981295087 [Eh]
	 Opposite-Spin Energy      =      -1.0669101821838836 [Eh]
	 Correlation Energy        =      -1.4723923803133923 [Eh]
	 Total Energy              =   -7835.3888163137144147 [Eh]

	 ================> DF-SCS-MP2 Energies <==================
	-----------------------------------------------------------
	 SCS Same-Spin Scale       =       0.3333333333333333 [-]
	 SCS Opposite-Spin Scale   =       1.2000000000000000 [-]
	 SCS Same-Spin Energy      =      -0.1351607327098362 [Eh]
	 SCS Opposite-Spin Energy  =      -1.2802922186206602 [Eh]
	 SCS Correlation Energy    =      -1.4154529513304965 [Eh]
	 SCS Total Energy          =   -7835.3318768847320825 [Eh]
	-----------------------------------------------------------

  Dipole Moment: [D]
     X:     0.4444      Y:     0.4401      Z:     1.7726     Total:     1.8797

*** Psi4 exiting successfully. Buy a developer a beer!
