                               Psi4 1.3.2 release

  ==> Input File <==

--------------------------------------------------------------------------
#psi4
#
memory 32 gb

molecule  {
0 1
 Br       -1.9389423    -0.0000116     0.0539027
 Br        0.6794840    -1.5903300    -0.6027370
 Br        0.6794630     1.5903430    -0.6027300
  C        0.4130850    -0.0000010     1.7854520
  C        0.0030940     0.0000000     0.3181700
  C        1.9178350     0.0000000     2.0258460
  H       -0.0503490     0.8836850     2.2377410
  H       -0.0503460    -0.8836890     2.2377380
  H        2.3836370     0.8873060     1.5930820
  H        2.1087990    -0.0000020     3.1023230
  H        2.3836390    -0.8873020     1.5930780
units angstrom
no_reorient  #important for SAPT in psi4, default
symmetry c1  #important for SAPT in psi4, default
}

set PROPERTIES_ORIGIN ["COM"]
properties('MP2/aug-cc-pvtz', properties = ['dipole'])
--------------------------------------------------------------------------

    Molecular point group: c1
  Charge       = 0
  Multiplicity = 1
  Basis Set: AUG-CC-PVTZ
    Blend: AUG-CC-PVTZ
  Basis Set: (AUG-CC-PVTZ AUX)
    Blend: AUG-CC-PVTZ-JKFIT

    Orbital Energies [Eh]
    ---------------------

    Doubly Occupied:

       1A   -490.040375     2A   -490.039063     3A   -490.039063
       4A    -65.180131     5A    -65.178914     6A    -65.178914
       7A    -58.535531     8A    -58.534296     9A    -58.534296
      10A    -58.533882    11A    -58.533874    12A    -58.532683
      13A    -58.532683    14A    -58.532660    15A    -58.532660
      16A    -11.421358    17A    -11.269293    18A    -11.235286
      19A     -9.852831    20A     -9.851675    21A     -9.851671
      22A     -7.464792    23A     -7.463596    24A     -7.463593
      25A     -7.457150    26A     -7.457115    27A     -7.456080
      28A     -7.456078    29A     -7.456004    30A     -7.456002
      31A     -3.208734    32A     -3.207503    33A     -3.207483
      34A     -3.204803    35A     -3.204750    36A     -3.203642
      37A     -3.203637    38A     -3.203524    39A     -3.203521
      40A     -3.194852    41A     -3.194850    42A     -3.193805
      43A     -3.193802    44A     -3.193802    45A     -3.193799
      46A     -1.167827    47A     -1.046093    48A     -1.017030
      49A     -1.013868    50A     -0.904814    51A     -0.765289
      52A     -0.655892    53A     -0.631990    54A     -0.588740
      55A     -0.562903    56A     -0.534412    57A     -0.514959
      58A     -0.501852    59A     -0.448698    60A     -0.445488
      61A     -0.434101    62A     -0.409317    63A     -0.406855
      64A     -0.396834

  @DF-RHF Final Energy: -7833.92020265593146

   => Energetics <=

    Nuclear Repulsion Energy =           1135.8582428403644826
    One-Electron Energy =              -13172.4948553428403102
    Two-Electron Energy =                4202.7164098465445932
    Total Energy =                      -7833.9202026559314618
  Basis Set: (AUG-CC-PVTZ AUX)
    Blend: AUG-CC-PVTZ-RI
    Molecular point group: c1

    Geometry (in Angstrom), charge = 0, multiplicity = 1:

       Center              X                  Y                   Z               Mass
    ------------   -----------------  -----------------  -----------------  -----------------
         BR          -1.899576100968    -0.000011947272     0.163616080094    78.918337600000
         BR           0.718850199032    -1.590330347272    -0.493023619906    78.918337600000
         BR           0.718829199032     1.590342652728    -0.493016619906    78.918337600000
         C            0.452451199032    -0.000001347272     1.895165380094    12.000000000000
         C            0.042460199032    -0.000000347272     0.427883380094    12.000000000000
         C            1.957201199032    -0.000000347272     2.135559380094    12.000000000000
         H           -0.010982800968     0.883684652728     2.347454380094     1.007825032230
         H           -0.010979800968    -0.883689347272     2.347451380094     1.007825032230
         H            2.423003199032     0.887305652728     1.702795380094     1.007825032230
         H            2.148165199032    -0.000002347272     3.212036380094     1.007825032230
         H            2.423005199032    -0.887302347272     1.702791380094     1.007825032230

  Basis Set: AUG-CC-PVTZ
    Blend: AUG-CC-PVTZ
  Basis Set: (AUG-CC-PVTZ AUX)
    Blend: AUG-CC-PVTZ-JKFIT
	 Reference Energy          =   -7833.9202026559314618 [Eh]
	 Singles Energy            =      -0.0000000000000000 [Eh]
	 Same-Spin Energy          =      -0.4052659989702179 [Eh]
	 Opposite-Spin Energy      =      -1.0665421411556970 [Eh]
	 Correlation Energy        =      -1.4718081401259149 [Eh]
	 Total Energy              =   -7835.3920107960575479 [Eh]

	 ================> DF-SCS-MP2 Energies <==================
	-----------------------------------------------------------
	 SCS Same-Spin Scale       =       0.3333333333333333 [-]
	 SCS Opposite-Spin Scale   =       1.2000000000000000 [-]
	 SCS Same-Spin Energy      =      -0.1350886663234060 [Eh]
	 SCS Opposite-Spin Energy  =      -1.2798505693868363 [Eh]
	 SCS Correlation Energy    =      -1.4149392357102422 [Eh]
	 SCS Total Energy          =   -7835.3351418916417970 [Eh]
	-----------------------------------------------------------

  Dipole Moment: [D]
     X:     0.6819      Y:    -0.0000      Z:     1.7409     Total:     1.8697

*** Psi4 exiting successfully. Buy a developer a beer!
