                               Psi4 1.3.2 release

  ==> Input File <==

--------------------------------------------------------------------------
#psi4
#
memory 32 gb

molecule  {
0 1
 Br       -1.9526460    -0.0000120     0.1900160
 Br        0.6794840    -1.5903300    -0.6027370
 Br        0.6794630     1.5903430    -0.6027300
  C        0.4130850    -0.0000010     1.7854520
  C       -0.0775944     0.1339577     0.3493817
  C        1.9178350     0.0000000     2.0258460
  H       -0.0503490     0.8836850     2.2377410
  H       -0.0503460    -0.8836890     2.2377380
  H        2.3836370     0.8873060     1.5930820
  H        2.1087990    -0.0000020     3.1023230
  H        2.3836390    -0.8873020     1.5930780
units angstrom
no_reorient  #important for SAPT in psi4, default
symmetry c1  #important for SAPT in psi4, default
}

set PROPERTIES_ORIGIN ["COM"]
properties('MP2/aug-cc-pvtz', properties = ['dipole'])
--------------------------------------------------------------------------

    Molecular point group: c1
  Charge       = 0
  Multiplicity = 1
  Basis Set: AUG-CC-PVTZ
    Blend: AUG-CC-PVTZ
  Basis Set: (AUG-CC-PVTZ AUX)
    Blend: AUG-CC-PVTZ-JKFIT

    Orbital Energies [Eh]
    ---------------------

    Doubly Occupied:

       1A   -490.050614     2A   -490.049523     3A   -490.019374
       4A    -65.190586     5A    -65.189483     6A    -65.159042
       7A    -58.545955     8A    -58.544856     9A    -58.544341
      10A    -58.544319    11A    -58.543248    12A    -58.543215
      13A    -58.514397    14A    -58.512842    15A    -58.512827
      16A    -11.424809    17A    -11.269668    18A    -11.234794
      19A     -9.863694    20A     -9.862520    21A     -9.831327
      22A     -7.475817    23A     -7.474609    24A     -7.468028
      25A     -7.467957    26A     -7.466893    27A     -7.466789
      28A     -7.442811    29A     -7.435875    30A     -7.435823
      31A     -3.219877    32A     -3.218641    33A     -3.215728
      34A     -3.215622    35A     -3.214573    36A     -3.214402
      37A     -3.205676    38A     -3.205672    39A     -3.204536
      40A     -3.204530    41A     -3.186399    42A     -3.183052
      43A     -3.182971    44A     -3.173889    45A     -3.173885
      46A     -1.173508    47A     -1.049179    48A     -1.034570
      49A     -0.992927    50A     -0.907003    51A     -0.764630
      52A     -0.655768    53A     -0.633681    54A     -0.595959
      55A     -0.560461    56A     -0.538811    57A     -0.516559
      58A     -0.498480    59A     -0.454530    60A     -0.445747
      61A     -0.420628    62A     -0.418671    63A     -0.398379
      64A     -0.394329

  @DF-RHF Final Energy: -7833.91071304174329

   => Energetics <=

    Nuclear Repulsion Energy =           1131.7484567179558326
    One-Electron Energy =              -13164.1997189126395824
    Two-Electron Energy =                4198.5405491529400024
    Total Energy =                      -7833.9107130417432927
  Basis Set: (AUG-CC-PVTZ AUX)
    Blend: AUG-CC-PVTZ-RI
    Molecular point group: c1

    Geometry (in Angstrom), charge = 0, multiplicity = 1:

       Center              X                  Y                   Z               Mass
    ------------   -----------------  -----------------  -----------------  -----------------
         BR          -1.905901193061    -0.005798865463     0.259712784197    78.918337600000
         BR           0.726228806939    -1.596116865463    -0.533040215803    78.918337600000
         BR           0.726207806939     1.584556134537    -0.533033215803    78.918337600000
         C            0.459829806939    -0.005787865463     1.855148784197    12.000000000000
         C           -0.030849593061     0.128170834537     0.419078484197    12.000000000000
         C            1.964579806939    -0.005786865463     2.095542784197    12.000000000000
         H           -0.003604193061     0.877898134537     2.307437784197     1.007825032230
         H           -0.003601193061    -0.889475865463     2.307434784197     1.007825032230
         H            2.430381806939     0.881519134537     1.662778784197     1.007825032230
         H            2.155543806939    -0.005788865463     3.172019784197     1.007825032230
         H            2.430383806939    -0.893088865463     1.662774784197     1.007825032230

  Basis Set: AUG-CC-PVTZ
    Blend: AUG-CC-PVTZ
  Basis Set: (AUG-CC-PVTZ AUX)
    Blend: AUG-CC-PVTZ-JKFIT
	 Reference Energy          =   -7833.9107130417432927 [Eh]
	 Singles Energy            =      -0.0000000000000000 [Eh]
	 Same-Spin Energy          =      -0.4058428381657347 [Eh]
	 Opposite-Spin Energy      =      -1.0673120691301903 [Eh]
	 Correlation Energy        =      -1.4731549072959251 [Eh]
	 Total Energy              =   -7835.3838679490390859 [Eh]

	 ================> DF-SCS-MP2 Energies <==================
	-----------------------------------------------------------
	 SCS Same-Spin Scale       =       0.3333333333333333 [-]
	 SCS Opposite-Spin Scale   =       1.2000000000000000 [-]
	 SCS Same-Spin Energy      =      -0.1352809460552449 [Eh]
	 SCS Opposite-Spin Energy  =      -1.2807744829562282 [Eh]
	 SCS Correlation Energy    =      -1.4160554290114731 [Eh]
	 SCS Total Energy          =   -7835.3267684707543594 [Eh]
	-----------------------------------------------------------

  Dipole Moment: [D]
     X:     0.3139      Y:     0.6639      Z:     1.8259     Total:     1.9680

*** Psi4 exiting successfully. Buy a developer a beer!
