                               Psi4 1.3.2 release

  ==> Input File <==

--------------------------------------------------------------------------
#psi4
#
memory 32 gb

molecule  {
0 1
 Br       -1.9526460    -0.0000120     0.1900160
 Br        0.6794840    -1.5903300    -0.6027370
 Br        0.6794630     1.5903430    -0.6027300
  C        0.4130850    -0.0000010     1.7854520
  C        0.0882744    -0.1339577     0.3030341
  C        1.9178350     0.0000000     2.0258460
  H       -0.0503490     0.8836850     2.2377410
  H       -0.0503460    -0.8836890     2.2377380
  H        2.3836370     0.8873060     1.5930820
  H        2.1087990    -0.0000020     3.1023230
  H        2.3836390    -0.8873020     1.5930780
units angstrom
no_reorient  #important for SAPT in psi4, default
symmetry c1  #important for SAPT in psi4, default
}

set PROPERTIES_ORIGIN ["COM"]
properties('MP2/aug-cc-pvtz', properties = ['dipole'])
--------------------------------------------------------------------------

    Molecular point group: c1
  Charge       = 0
  Multiplicity = 1
  Basis Set: AUG-CC-PVTZ
    Blend: AUG-CC-PVTZ
  Basis Set: (AUG-CC-PVTZ AUX)
    Blend: AUG-CC-PVTZ-JKFIT

    Orbital Energies [Eh]
    ---------------------

    Doubly Occupied:

       1A   -490.057792     2A   -490.031732     3A   -490.030044
       4A    -65.198196     5A    -65.171374     6A    -65.169647
       7A    -58.553485     8A    -58.551959     9A    -58.551933
      10A    -58.526776    11A    -58.525145    12A    -58.525132
      13A    -58.525046    14A    -58.523412    15A    -58.523408
      16A    -11.424181    17A    -11.269267    18A    -11.234304
      19A     -9.871952    20A     -9.843769    21A     -9.842002
      22A     -7.484211    23A     -7.476379    24A     -7.476290
      25A     -7.455529    26A     -7.453725    27A     -7.448168
      28A     -7.448111    29A     -7.446369    30A     -7.446361
      31A     -3.228335    32A     -3.223967    33A     -3.223851
      34A     -3.214058    35A     -3.214056    36A     -3.199320
      37A     -3.197498    38A     -3.195655    39A     -3.195587
      40A     -3.193848    41A     -3.193827    42A     -3.185969
      43A     -3.185965    44A     -3.184216    45A     -3.184212
      46A     -1.176520    47A     -1.054132    48A     -1.022469
      49A     -1.000097    50A     -0.901553    51A     -0.769469
      52A     -0.657095    53A     -0.634304    54A     -0.592924
      55A     -0.563603    56A     -0.534328    57A     -0.518898
      58A     -0.504898    59A     -0.454469    60A     -0.434948
      61A     -0.424125    62A     -0.415835    63A     -0.404502
      64A     -0.393271

  @DF-RHF Final Energy: -7833.90798271112089

   => Energetics <=

    Nuclear Repulsion Energy =           1132.0344646694989024
    One-Electron Energy =              -13164.7578904116853664
    Two-Electron Energy =                4198.8154430310651151
    Total Energy =                      -7833.9079827111208942
  Basis Set: (AUG-CC-PVTZ AUX)
    Blend: AUG-CC-PVTZ-RI
    Molecular point group: c1

    Geometry (in Angstrom), charge = 0, multiplicity = 1:

       Center              X                  Y                   Z               Mass
    ------------   -----------------  -----------------  -----------------  -----------------
         BR          -1.913066303219     0.005774398191     0.261714882600    78.918337600000
         BR           0.719063696781    -1.584543601809    -0.531038117400    78.918337600000
         BR           0.719042696781     1.596129398191    -0.531031117400    78.918337600000
         C            0.452664696781     0.005785398191     1.857150882600    12.000000000000
         C            0.127854096781    -0.128171301809     0.374732982600    12.000000000000
         C            1.957414696781     0.005786398191     2.097544882600    12.000000000000
         H           -0.010769303219     0.889471398191     2.309439882600     1.007825032230
         H           -0.010766303219    -0.877902601809     2.309436882600     1.007825032230
         H            2.423216696781     0.893092398191     1.664780882600     1.007825032230
         H            2.148378696781     0.005784398191     3.174021882600     1.007825032230
         H            2.423218696781    -0.881515601809     1.664776882600     1.007825032230

  Basis Set: AUG-CC-PVTZ
    Blend: AUG-CC-PVTZ
  Basis Set: (AUG-CC-PVTZ AUX)
    Blend: AUG-CC-PVTZ-JKFIT
	 Reference Energy          =   -7833.9079827111208942 [Eh]
	 Singles Energy            =      -0.0000000000000000 [Eh]
	 Same-Spin Energy          =      -0.4060946213844787 [Eh]
	 Opposite-Spin Energy      =      -1.0678921949823608 [Eh]
	 Correlation Energy        =      -1.4739868163668395 [Eh]
	 Total Energy              =   -7835.3819695274878541 [Eh]

	 ================> DF-SCS-MP2 Energies <==================
	-----------------------------------------------------------
	 SCS Same-Spin Scale       =       0.3333333333333333 [-]
	 SCS Opposite-Spin Scale   =       1.2000000000000000 [-]
	 SCS Same-Spin Energy      =      -0.1353648737948262 [Eh]
	 SCS Opposite-Spin Energy  =      -1.2814706339788329 [Eh]
	 SCS Correlation Energy    =      -1.4168355077736592 [Eh]
	 SCS Total Energy          =   -7835.3248182188945066 [Eh]
	-----------------------------------------------------------

  Dipole Moment: [D]
     X:     1.1261      Y:    -0.6915      Z:     1.5823     Total:     2.0615

*** Psi4 exiting successfully. Buy a developer a beer!
