                               Psi4 1.3.2 release

  ==> Input File <==

--------------------------------------------------------------------------
#psi4
#
memory 32 gb

molecule  {
0 1
 Br       -1.9559271    -0.0000122     0.2583484
 Br        0.6794840    -1.5903300    -0.6027370
 Br        0.6794630     1.5903430    -0.6027300
  C        0.4130850    -0.0000010     1.7854520
  C        0.0030940     0.0000000     0.3181700
  C        1.9178350     0.0000000     2.0258460
  H       -0.0503490     0.8836850     2.2377410
  H       -0.0503460    -0.8836890     2.2377380
  H        2.3836370     0.8873060     1.5930820
  H        2.1087990    -0.0000020     3.1023230
  H        2.3836390    -0.8873020     1.5930780
units angstrom
no_reorient  #important for SAPT in psi4, default
symmetry c1  #important for SAPT in psi4, default
}

set PROPERTIES_ORIGIN ["COM"]
properties('MP2/aug-cc-pvtz', properties = ['dipole'])
--------------------------------------------------------------------------

    Molecular point group: c1
  Charge       = 0
  Multiplicity = 1
  Basis Set: AUG-CC-PVTZ
    Blend: AUG-CC-PVTZ
  Basis Set: (AUG-CC-PVTZ AUX)
    Blend: AUG-CC-PVTZ-JKFIT

    Orbital Energies [Eh]
    ---------------------

    Doubly Occupied:

       1A   -490.041184     2A   -490.041184     3A   -490.040342
       4A    -65.180959     5A    -65.180959     6A    -65.180110
       7A    -58.536355     8A    -58.536355     9A    -58.535502
      10A    -58.534726    11A    -58.534726    12A    -58.534712
      13A    -58.534712    14A    -58.533873    15A    -58.533860
      16A    -11.420920    17A    -11.266726    18A    -11.233060
      19A     -9.853643    20A     -9.853638    21A     -9.852800
      22A     -7.465576    23A     -7.465573    24A     -7.464726
      25A     -7.458010    26A     -7.458008    27A     -7.457970
      28A     -7.457967    29A     -7.457158    30A     -7.457117
      31A     -3.209505    32A     -3.209485    33A     -3.208643
      34A     -3.205596    35A     -3.205592    36A     -3.205534
      37A     -3.205530    38A     -3.204742    39A     -3.204697
      40A     -3.195741    41A     -3.195737    42A     -3.195737
      43A     -3.195734    44A     -3.194891    45A     -3.194890
      46A     -1.167979    47A     -1.042154    48A     -1.018349
      49A     -1.017892    50A     -0.902215    51A     -0.765393
      52A     -0.655351    53A     -0.629262    54A     -0.590699
      55A     -0.562009    56A     -0.531384    57A     -0.516238
      58A     -0.499702    59A     -0.446779    60A     -0.446136
      61A     -0.429764    62A     -0.412198    63A     -0.411832
      64A     -0.400507

  @DF-RHF Final Energy: -7833.92116553761571

   => Energetics <=

    Nuclear Repulsion Energy =           1130.2344593241944040
    One-Electron Energy =              -13161.1505458102528792
    Two-Electron Energy =                4196.9949209484429957
    Total Energy =                      -7833.9211655376157069
  Basis Set: (AUG-CC-PVTZ AUX)
    Blend: AUG-CC-PVTZ-RI
    Molecular point group: c1

    Geometry (in Angstrom), charge = 0, multiplicity = 1:

       Center              X                  Y                   Z               Mass
    ------------   -----------------  -----------------  -----------------  -----------------
         BR          -1.911735701306    -0.000012376818     0.309980947676    78.918337600000
         BR           0.723675398694    -1.590330176818    -0.551104452324    78.918337600000
         BR           0.723654398694     1.590342823182    -0.551097452324    78.918337600000
         C            0.457276398694    -0.000001176818     1.837084547676    12.000000000000
         C            0.047285398694    -0.000000176818     0.369802547676    12.000000000000
         C            1.962026398694    -0.000000176818     2.077478547676    12.000000000000
         H           -0.006157601306     0.883684823182     2.289373547676     1.007825032230
         H           -0.006154601306    -0.883689176818     2.289370547676     1.007825032230
         H            2.427828398694     0.887305823182     1.644714547676     1.007825032230
         H            2.152990398694    -0.000002176818     3.153955547676     1.007825032230
         H            2.427830398694    -0.887302176818     1.644710547676     1.007825032230

  Basis Set: AUG-CC-PVTZ
    Blend: AUG-CC-PVTZ
  Basis Set: (AUG-CC-PVTZ AUX)
    Blend: AUG-CC-PVTZ-JKFIT
	 Reference Energy          =   -7833.9211655376157069 [Eh]
	 Singles Energy            =      -0.0000000000000000 [Eh]
	 Same-Spin Energy          =      -0.4051728587370814 [Eh]
	 Opposite-Spin Energy      =      -1.0666674285496851 [Eh]
	 Correlation Energy        =      -1.4718402872867666 [Eh]
	 Total Energy              =   -7835.3930058249025024 [Eh]

	 ================> DF-SCS-MP2 Energies <==================
	-----------------------------------------------------------
	 SCS Same-Spin Scale       =       0.3333333333333333 [-]
	 SCS Opposite-Spin Scale   =       1.2000000000000000 [-]
	 SCS Same-Spin Energy      =      -0.1350576195790271 [Eh]
	 SCS Opposite-Spin Energy  =      -1.2800009142596220 [Eh]
	 SCS Correlation Energy    =      -1.4150585338386492 [Eh]
	 SCS Total Energy          =   -7835.3362240714541258 [Eh]
	-----------------------------------------------------------

  Dipole Moment: [D]
     X:     0.7168      Y:    -0.0000      Z:     1.6538     Total:     1.8025

*** Psi4 exiting successfully. Buy a developer a beer!
