                               Psi4 1.3.2 release

  ==> Input File <==

--------------------------------------------------------------------------
#psi4
#
memory 32 gb

molecule  {
0 1
 Br       -1.9568215    -0.0000124     0.3267537
 Br        0.6794840    -1.5903300    -0.6027370
 Br        0.6794630     1.5903430    -0.6027300
  C        0.4130850    -0.0000010     1.7854520
  C        0.0030940     0.0000000     0.3181700
  C        1.9178350     0.0000000     2.0258460
  H       -0.0503490     0.8836850     2.2377410
  H       -0.0503460    -0.8836890     2.2377380
  H        2.3836370     0.8873060     1.5930820
  H        2.1087990    -0.0000020     3.1023230
  H        2.3836390    -0.8873020     1.5930780
units angstrom
no_reorient  #important for SAPT in psi4, default
symmetry c1  #important for SAPT in psi4, default
}

set PROPERTIES_ORIGIN ["COM"]
properties('MP2/aug-cc-pvtz', properties = ['dipole'])
--------------------------------------------------------------------------

    Molecular point group: c1
  Charge       = 0
  Multiplicity = 1
  Basis Set: AUG-CC-PVTZ
    Blend: AUG-CC-PVTZ
  Basis Set: (AUG-CC-PVTZ AUX)
    Blend: AUG-CC-PVTZ-JKFIT

    Orbital Energies [Eh]
    ---------------------

    Doubly Occupied:

       1A   -490.041886     2A   -490.041886     3A   -490.040259
       4A    -65.181637     5A    -65.181637     6A    -65.180038
       7A    -58.537037     8A    -58.537037     9A    -58.535429
      10A    -58.535404    11A    -58.535404    12A    -58.535392
      13A    -58.535392    14A    -58.533805    15A    -58.533785
      16A    -11.420716    17A    -11.265875    18A    -11.232245
      19A     -9.854297    20A     -9.854293    21A     -9.852737
      22A     -7.466236    23A     -7.466233    24A     -7.464659
      25A     -7.458652    26A     -7.458650    27A     -7.458621
      28A     -7.458619    29A     -7.457112    30A     -7.457045
      31A     -3.210172    32A     -3.210153    33A     -3.208571
      34A     -3.206249    35A     -3.206245    36A     -3.206202
      37A     -3.206198    38A     -3.204692    39A     -3.204613
      40A     -3.196382    41A     -3.196379    42A     -3.196379
      43A     -3.196375    44A     -3.194836    45A     -3.194834
      46A     -1.168196    47A     -1.040873    48A     -1.019776
      49A     -1.018201    50A     -0.901259    51A     -0.765514
      52A     -0.655228    53A     -0.628294    54A     -0.591412
      55A     -0.561713    56A     -0.530293    57A     -0.516760
      58A     -0.499005    59A     -0.446395    60A     -0.446228
      61A     -0.428047    62A     -0.413734    63A     -0.412685
      64A     -0.401559

  @DF-RHF Final Energy: -7833.92040870018081

   => Energetics <=

    Nuclear Repulsion Energy =           1128.6739888070078450
    One-Electron Energy =              -13157.9978621793088678
    Two-Electron Energy =                4195.4034646721202080
    Total Energy =                      -7833.9204087001808148
  Basis Set: (AUG-CC-PVTZ AUX)
    Blend: AUG-CC-PVTZ-RI
    Molecular point group: c1

    Geometry (in Angstrom), charge = 0, multiplicity = 1:

       Center              X                  Y                   Z               Mass
    ------------   -----------------  -----------------  -----------------  -----------------
         BR          -1.912376011851    -0.000012520000     0.358953035015    78.918337600000
         BR           0.723929488149    -1.590330120000    -0.570537664985    78.918337600000
         BR           0.723908488149     1.590342880000    -0.570530664985    78.918337600000
         C            0.457530488149    -0.000001120000     1.817651335015    12.000000000000
         C            0.047539488149    -0.000000120000     0.350369335015    12.000000000000
         C            1.962280488149    -0.000000120000     2.058045335015    12.000000000000
         H           -0.005903511851     0.883684880000     2.269940335015     1.007825032230
         H           -0.005900511851    -0.883689120000     2.269937335015     1.007825032230
         H            2.428082488149     0.887305880000     1.625281335015     1.007825032230
         H            2.153244488149    -0.000002120000     3.134522335015     1.007825032230
         H            2.428084488149    -0.887302120000     1.625277335015     1.007825032230

  Basis Set: AUG-CC-PVTZ
    Blend: AUG-CC-PVTZ
  Basis Set: (AUG-CC-PVTZ AUX)
    Blend: AUG-CC-PVTZ-JKFIT
	 Reference Energy          =   -7833.9204087001808148 [Eh]
	 Singles Energy            =      -0.0000000000000000 [Eh]
	 Same-Spin Energy          =      -0.4052174938405902 [Eh]
	 Opposite-Spin Energy      =      -1.0668391920488449 [Eh]
	 Correlation Energy        =      -1.4720566858894353 [Eh]
	 Total Energy              =   -7835.3924653860703984 [Eh]

	 ================> DF-SCS-MP2 Energies <==================
	-----------------------------------------------------------
	 SCS Same-Spin Scale       =       0.3333333333333333 [-]
	 SCS Opposite-Spin Scale   =       1.2000000000000000 [-]
	 SCS Same-Spin Energy      =      -0.1350724979468634 [Eh]
	 SCS Opposite-Spin Energy  =      -1.2802070304586139 [Eh]
	 SCS Correlation Energy    =      -1.4152795284054773 [Eh]
	 SCS Total Energy          =   -7835.3356882285861502 [Eh]
	-----------------------------------------------------------

  Dipole Moment: [D]
     X:     0.7292      Y:    -0.0000      Z:     1.6238     Total:     1.7800

*** Psi4 exiting successfully. Buy a developer a beer!
