                               Psi4 1.3.2 release

  ==> Input File <==

--------------------------------------------------------------------------
#psi4
#
memory 32 gb

molecule  {
0 1
 Br       -1.9526460    -0.0000120     0.1900160
 Br        0.6794840    -1.5903300    -0.6027370
 Br        0.6794630     1.5903430    -0.6027300
  C        0.4130850    -0.0000010     1.7854520
  C       -0.0982597    -0.0000001     0.3503438
  C        1.9178350     0.0000000     2.0258460
  H       -0.0503490     0.8836850     2.2377410
  H       -0.0503460    -0.8836890     2.2377380
  H        2.3836370     0.8873060     1.5930820
  H        2.1087990    -0.0000020     3.1023230
  H        2.3836390    -0.8873020     1.5930780
units angstrom
no_reorient  #important for SAPT in psi4, default
symmetry c1  #important for SAPT in psi4, default
}

set PROPERTIES_ORIGIN ["COM"]
properties('MP2/aug-cc-pvtz', properties = ['dipole'])
--------------------------------------------------------------------------

    Molecular point group: c1
  Charge       = 0
  Multiplicity = 1
  Basis Set: AUG-CC-PVTZ
    Blend: AUG-CC-PVTZ
  Basis Set: (AUG-CC-PVTZ AUX)
    Blend: AUG-CC-PVTZ-JKFIT

    Orbital Energies [Eh]
    ---------------------

    Doubly Occupied:

       1A   -490.051943     2A   -490.034238     3A   -490.034238
       4A    -65.192064     5A    -65.173934     6A    -65.173934
       7A    -58.547404     8A    -58.545819     9A    -58.545805
      10A    -58.529329    11A    -58.529329    12A    -58.527709
      13A    -58.527708    14A    -58.527690    15A    -58.527690
      16A    -11.422698    17A    -11.268566    18A    -11.234587
      19A     -9.865390    20A     -9.846427    21A     -9.846422
      22A     -7.477548    23A     -7.469755    24A     -7.469702
      25A     -7.458223    26A     -7.458220    27A     -7.450829
      28A     -7.450827    29A     -7.450779    30A     -7.450777
      31A     -3.221619    32A     -3.217386    33A     -3.217330
      34A     -3.207434    35A     -3.207433    36A     -3.202050
      37A     -3.202033    38A     -3.198336    39A     -3.198332
      40A     -3.198243    41A     -3.198240    42A     -3.188623
      43A     -3.188620    44A     -3.188618    45A     -3.188615
      46A     -1.171121    47A     -1.050478    48A     -1.019701
      49A     -1.006211    50A     -0.906820    51A     -0.762977
      52A     -0.655120    53A     -0.633122    54A     -0.591671
      55A     -0.561345    56A     -0.539501    57A     -0.511828
      58A     -0.498657    59A     -0.452672    60A     -0.440432
      61A     -0.429398    62A     -0.414495    63A     -0.406066
      64A     -0.397039

  @DF-RHF Final Energy: -7833.91557812817700

   => Energetics <=

    Nuclear Repulsion Energy =           1131.8224145734391186
    One-Electron Energy =              -13164.3536938817996997
    Two-Electron Energy =                4198.6157011801842600
    Total Energy =                      -7833.9155781281770032
  Basis Set: (AUG-CC-PVTZ AUX)
    Blend: AUG-CC-PVTZ-RI
    Molecular point group: c1

    Geometry (in Angstrom), charge = 0, multiplicity = 1:

       Center              X                  Y                   Z               Mass
    ------------   -----------------  -----------------  -----------------  -----------------
         BR          -1.905008504677    -0.000012229316     0.259671223925    78.918337600000
         BR           0.727121495323    -1.590330229316    -0.533081776075    78.918337600000
         BR           0.727100495323     1.590342770684    -0.533074776075    78.918337600000
         C            0.460722495323    -0.000001229316     1.855107223925    12.000000000000
         C           -0.050622204677    -0.000000329316     0.419999023925    12.000000000000
         C            1.965472495323    -0.000000229316     2.095501223925    12.000000000000
         H           -0.002711504677     0.883684770684     2.307396223925     1.007825032230
         H           -0.002708504677    -0.883689229316     2.307393223925     1.007825032230
         H            2.431274495323     0.887305770684     1.662737223925     1.007825032230
         H            2.156436495323    -0.000002229316     3.171978223925     1.007825032230
         H            2.431276495323    -0.887302229316     1.662733223925     1.007825032230

  Basis Set: AUG-CC-PVTZ
    Blend: AUG-CC-PVTZ
  Basis Set: (AUG-CC-PVTZ AUX)
    Blend: AUG-CC-PVTZ-JKFIT
	 Reference Energy          =   -7833.9155781281770032 [Eh]
	 Singles Energy            =      -0.0000000000000000 [Eh]
	 Same-Spin Energy          =      -0.4055388595986292 [Eh]
	 Opposite-Spin Energy      =      -1.0669786936837939 [Eh]
	 Correlation Energy        =      -1.4725175532824233 [Eh]
	 Total Energy              =   -7835.3880956814591627 [Eh]

	 ================> DF-SCS-MP2 Energies <==================
	-----------------------------------------------------------
	 SCS Same-Spin Scale       =       0.3333333333333333 [-]
	 SCS Opposite-Spin Scale   =       1.2000000000000000 [-]
	 SCS Same-Spin Energy      =      -0.1351796198662097 [Eh]
	 SCS Opposite-Spin Energy  =      -1.2803744324205526 [Eh]
	 SCS Correlation Energy    =      -1.4155540522867622 [Eh]
	 SCS Total Energy          =   -7835.3311321804640102 [Eh]
	-----------------------------------------------------------

  Dipole Moment: [D]
     X:     0.2078      Y:    -0.0000      Z:     1.8433     Total:     1.8550

*** Psi4 exiting successfully. Buy a developer a beer!
