                               Psi4 1.4a3.dev225

  ==> Input File <==

--------------------------------------------------------------------------
#psi4
#
memory 32 gb

molecule  {
0 1
 Br       -1.9526460    -0.0000120     0.1900160
 Br        0.6794840    -1.5903300    -0.6027370
 Br        0.6794630     1.5903430    -0.6027300
  C        0.4130850    -0.0000010     1.7854520
  C        0.0084763    -0.0000000     0.3374322
  C        1.9178350     0.0000000     2.0258460
  H       -0.0503490     0.8836850     2.2377410
  H       -0.0503460    -0.8836890     2.2377380
  H        2.3836370     0.8873060     1.5930820
  H        2.1087990    -0.0000020     3.1023230
  H        2.3836390    -0.8873020     1.5930780
units angstrom
no_reorient  #important for SAPT in psi4, default
symmetry c1  #important for SAPT in psi4, default
}

set PROPERTIES_ORIGIN ["COM"]
properties('MP2/aug-cc-pvtz', properties = ['dipole'])
--------------------------------------------------------------------------

    Molecular point group: c1
  Charge       = 0
  Multiplicity = 1
  Basis Set: AUG-CC-PVTZ
    Blend: AUG-CC-PVTZ
  Basis Set: (AUG-CC-PVTZ AUX)
    Blend: AUG-CC-PVTZ-JKFIT

    Orbital Energies [Eh]
    ---------------------

    Doubly Occupied:

       1A   -490.040223     2A   -490.040221     3A   -490.040221
       4A    -65.179992     5A    -65.179992     6A    -65.179956
       7A    -58.535388     8A    -58.535388     9A    -58.535355
      10A    -58.533759    11A    -58.533759    12A    -58.533743
      13A    -58.533743    14A    -58.533712    15A    -58.533708
      16A    -11.421908    17A    -11.266858    18A    -11.234444
      19A     -9.852657    20A     -9.852653    21A     -9.852604
      22A     -7.464578    23A     -7.464574    24A     -7.464531
      25A     -7.457029    26A     -7.457027    27A     -7.456977
      28A     -7.456975    29A     -7.456929    30A     -7.456919
      31A     -3.208499    32A     -3.208475    33A     -3.208448
      34A     -3.204616    35A     -3.204611    36A     -3.204538
      37A     -3.204531    38A     -3.204531    39A     -3.204527
      40A     -3.194756    41A     -3.194753    42A     -3.194753
      43A     -3.194750    44A     -3.194667    45A     -3.194667
      46A     -1.169070    47A     -1.044318    48A     -1.016466
      49A     -1.015929    50A     -0.906540    51A     -0.765121
      52A     -0.657349    53A     -0.631626    54A     -0.591036
      55A     -0.561655    56A     -0.533361    57A     -0.514192
      58A     -0.499429    59A     -0.447116    60A     -0.445650
      61A     -0.433692    62A     -0.410138    63A     -0.409718
      64A     -0.399037

  @DF-RHF Final Energy: -7833.92076762938723

   => Energetics <=

    Nuclear Repulsion Energy =           1131.5927675991695196
    One-Electron Energy =              -13163.9102944749756716
    Two-Electron Energy =                4198.3967592464186964
    Total Energy =                      -7833.9207676293872282
  Basis Set: (AUG-CC-PVTZ AUX)
    Blend: AUG-CC-PVTZ-RI
    Molecular point group: c1

    Geometry (in Angstrom), charge = 0, multiplicity = 1:

       Center              X                  Y                   Z               Mass
    ------------   -----------------  -----------------  -----------------  -----------------
         BR          -1.909619228321    -0.000012233636     0.260228972195    78.918337600000
         BR           0.722510771679    -1.590330233636    -0.532524027805    78.918337600000
         BR           0.722489771679     1.590342766364    -0.532517027805    78.918337600000
         C            0.456111771679    -0.000001233636     1.855664972195    12.000000000000
         C            0.051503071679    -0.000000233636     0.407645172195    12.000000000000
         C            1.960861771679    -0.000000233636     2.096058972195    12.000000000000
         H           -0.007322228321     0.883684766364     2.307953972195     1.007825032230
         H           -0.007319228321    -0.883689233636     2.307950972195     1.007825032230
         H            2.426663771679     0.887305766364     1.663294972195     1.007825032230
         H            2.151825771679    -0.000002233636     3.172535972195     1.007825032230
         H            2.426665771679    -0.887302233636     1.663290972195     1.007825032230

  Basis Set: AUG-CC-PVTZ
    Blend: AUG-CC-PVTZ
  Basis Set: (AUG-CC-PVTZ AUX)
    Blend: AUG-CC-PVTZ-JKFIT
	 Reference Energy          =   -7833.9207676293872282 [Eh]
	 Singles Energy            =      -0.0000000000000000 [Eh]
	 Same-Spin Energy          =      -0.4052462032116574 [Eh]
	 Opposite-Spin Energy      =      -1.0667465448530939 [Eh]
	 Correlation Energy        =      -1.4719927480647514 [Eh]
	 Total Energy              =   -7835.3927603774518502 [Eh]

	 ================> DF-SCS-MP2 Energies <==================
	-----------------------------------------------------------
	 SCS Same-Spin Scale       =       0.3333333333333333 [-]
	 SCS Opposite-Spin Scale   =       1.2000000000000000 [-]
	 SCS Same-Spin Energy      =      -0.1350820677372191 [Eh]
	 SCS Opposite-Spin Energy  =      -1.2800958538237126 [Eh]
	 SCS Correlation Energy    =      -1.4151779215609317 [Eh]
	 SCS Total Energy          =   -7835.3359455509480540 [Eh]
	-----------------------------------------------------------

  Dipole Moment: [D]
     X:     0.7154      Y:    -0.0000      Z:     1.7159     Total:     1.8591

*** Psi4 exiting successfully. Buy a developer a beer!
