                               Psi4 1.3.2 release

  ==> Input File <==

--------------------------------------------------------------------------
#psi4
#
memory 32 gb

molecule  {
0 1
 Br       -1.9526460    -0.0000120     0.1900160
 Br        0.6794840    -1.5903300    -0.6027370
 Br        0.6794630     1.5903430    -0.6027300
  C        0.4130850    -0.0000010     1.7854520
  C       -0.1480328    -0.0000002     0.3690637
  C        1.9178350     0.0000000     2.0258460
  H       -0.0503490     0.8836850     2.2377410
  H       -0.0503460    -0.8836890     2.2377380
  H        2.3836370     0.8873060     1.5930820
  H        2.1087990    -0.0000020     3.1023230
  H        2.3836390    -0.8873020     1.5930780
units angstrom
no_reorient  #important for SAPT in psi4, default
symmetry c1  #important for SAPT in psi4, default
}

set PROPERTIES_ORIGIN ["COM"]
properties('MP2/aug-cc-pvtz', properties = ['dipole'])
--------------------------------------------------------------------------

    Molecular point group: c1
  Charge       = 0
  Multiplicity = 1
  Basis Set: AUG-CC-PVTZ
    Blend: AUG-CC-PVTZ
  Basis Set: (AUG-CC-PVTZ AUX)
    Blend: AUG-CC-PVTZ-JKFIT

    Orbital Energies [Eh]
    ---------------------

    Doubly Occupied:

       1A   -490.057518     2A   -490.030901     3A   -490.030900
       4A    -65.197908     5A    -65.170557     6A    -65.170556
       7A    -58.553195     8A    -58.551664     9A    -58.551644
      10A    -58.525950    11A    -58.525950    12A    -58.524334
      13A    -58.524334    14A    -58.524316    15A    -58.524315
      16A    -11.424508    17A    -11.269647    18A    -11.235240
      19A     -9.871679    20A     -9.842957    21A     -9.842953
      22A     -7.483940    23A     -7.476087    24A     -7.476006
      25A     -7.454683    26A     -7.454679    27A     -7.447371
      28A     -7.447369    29A     -7.447327    30A     -7.447325
      31A     -3.228069    32A     -3.223682    33A     -3.223593
      34A     -3.213771    35A     -3.213769    36A     -3.198457
      37A     -3.198443    38A     -3.194831    39A     -3.194828
      40A     -3.194740    41A     -3.194738    42A     -3.185207
      43A     -3.185205    44A     -3.185202    45A     -3.185199
      46A     -1.175979    47A     -1.056430    48A     -1.017658
      49A     -1.000563    50A     -0.908990    51A     -0.762416
      52A     -0.655456    53A     -0.635840    54A     -0.592849
      55A     -0.561855    56A     -0.544204    57A     -0.509797
      58A     -0.499150    59A     -0.455518    60A     -0.435949
      61A     -0.426751    62A     -0.415297    63A     -0.404163
      64A     -0.394053

  @DF-RHF Final Energy: -7833.90788628910741

   => Energetics <=

    Nuclear Repulsion Energy =           1131.7643942592778785
    One-Electron Energy =              -13164.2276287741478882
    Two-Electron Energy =                4198.5553482257619180
    Total Energy =                      -7833.9078862891074095
  Basis Set: (AUG-CC-PVTZ AUX)
    Blend: AUG-CC-PVTZ-RI
    Molecular point group: c1

    Geometry (in Angstrom), charge = 0, multiplicity = 1:

       Center              X                  Y                   Z               Mass
    ------------   -----------------  -----------------  -----------------  -----------------
         BR          -1.902858433389    -0.000012224996     0.258862571872    78.918337600000
         BR           0.729271566611    -1.590330224996    -0.533890428128    78.918337600000
         BR           0.729250566611     1.590342775004    -0.533883428128    78.918337600000
         C            0.462872566611    -0.000001224996     1.854298571872    12.000000000000
         C           -0.098245233389    -0.000000424996     0.437910271872    12.000000000000
         C            1.967622566611    -0.000000224996     2.094692571872    12.000000000000
         H           -0.000561433389     0.883684775004     2.306587571872     1.007825032230
         H           -0.000558433389    -0.883689224996     2.306584571872     1.007825032230
         H            2.433424566611     0.887305775004     1.661928571872     1.007825032230
         H            2.158586566611    -0.000002224996     3.171169571872     1.007825032230
         H            2.433426566611    -0.887302224996     1.661924571872     1.007825032230

  Basis Set: AUG-CC-PVTZ
    Blend: AUG-CC-PVTZ
  Basis Set: (AUG-CC-PVTZ AUX)
    Blend: AUG-CC-PVTZ-JKFIT
	 Reference Energy          =   -7833.9078862891074095 [Eh]
	 Singles Energy            =      -0.0000000000000000 [Eh]
	 Same-Spin Energy          =      -0.4060508199593748 [Eh]
	 Opposite-Spin Energy      =      -1.0676355200144187 [Eh]
	 Correlation Energy        =      -1.4736863399737934 [Eh]
	 Total Energy              =   -7835.3815726290813473 [Eh]

	 ================> DF-SCS-MP2 Energies <==================
	-----------------------------------------------------------
	 SCS Same-Spin Scale       =       0.3333333333333333 [-]
	 SCS Opposite-Spin Scale   =       1.2000000000000000 [-]
	 SCS Same-Spin Energy      =      -0.1353502733197916 [Eh]
	 SCS Opposite-Spin Energy  =      -1.2811626240173024 [Eh]
	 SCS Correlation Energy    =      -1.4165128973370940 [Eh]
	 SCS Total Energy          =   -7835.3243991864446798 [Eh]
	-----------------------------------------------------------

  Dipole Moment: [D]
     X:    -0.0560      Y:    -0.0000      Z:     1.9362     Total:     1.9370

*** Psi4 exiting successfully. Buy a developer a beer!
