                               Psi4 1.4a3.dev225

  ==> Input File <==

--------------------------------------------------------------------------
#psi4
#
memory 32 gb

molecule  {
0 1
 Br       -1.9526460    -0.0000120     0.1900160
 Br        0.6794840    -1.5903300    -0.6027370
 Br        0.6794630     1.5903430    -0.6027300
  C        0.4130850    -0.0000010     1.7854520
  C        0.0165497    -0.0000000     0.3663254
  C        1.9178350     0.0000000     2.0258460
  H       -0.0503490     0.8836850     2.2377410
  H       -0.0503460    -0.8836890     2.2377380
  H        2.3836370     0.8873060     1.5930820
  H        2.1087990    -0.0000020     3.1023230
  H        2.3836390    -0.8873020     1.5930780
units angstrom
no_reorient  #important for SAPT in psi4, default
symmetry c1  #important for SAPT in psi4, default
}

set PROPERTIES_ORIGIN ["COM"]
properties('MP2/aug-cc-pvtz', properties = ['dipole'])
--------------------------------------------------------------------------

    Molecular point group: c1
  Charge       = 0
  Multiplicity = 1
  Basis Set: AUG-CC-PVTZ
    Blend: AUG-CC-PVTZ
  Basis Set: (AUG-CC-PVTZ AUX)
    Blend: AUG-CC-PVTZ-JKFIT

    Orbital Energies [Eh]
    ---------------------

    Doubly Occupied:

       1A   -490.039925     2A   -490.039779     3A   -490.039779
       4A    -65.179619     5A    -65.179509     6A    -65.179509
       7A    -58.535025     8A    -58.534912     9A    -58.534912
      10A    -58.533372    11A    -58.533369    12A    -58.533274
      13A    -58.533274    14A    -58.533258    15A    -58.533258
      16A    -11.423091    17A    -11.265777    18A    -11.235476
      19A     -9.852207    20A     -9.852109    21A     -9.852104
      22A     -7.464123    23A     -7.464017    24A     -7.464014
      25A     -7.456515    26A     -7.456512    27A     -7.456469
      28A     -7.456467    29A     -7.456416    30A     -7.456413
      31A     -3.208041    32A     -3.207926    33A     -3.207909
      34A     -3.204136    35A     -3.204134    36A     -3.204069
      37A     -3.204065    38A     -3.203986    39A     -3.203982
      40A     -3.194251    41A     -3.194250    42A     -3.194191
      43A     -3.194187    44A     -3.194187    45A     -3.194184
      46A     -1.171411    47A     -1.045574    48A     -1.014727
      49A     -1.014451    50A     -0.911768    51A     -0.764843
      52A     -0.660337    53A     -0.633824    54A     -0.592759
      55A     -0.560874    56A     -0.535020    57A     -0.511565
      58A     -0.497778    59A     -0.446644    60A     -0.445260
      61A     -0.436823    62A     -0.408829    63A     -0.408449
      64A     -0.398482

  @DF-RHF Final Energy: -7833.91874721540080

   => Energetics <=

    Nuclear Repulsion Energy =           1131.0441762776690666
    One-Electron Energy =              -13162.8310524295648065
    Two-Electron Energy =                4197.8681289364940312
    Total Energy =                      -7833.9187472154007992
  Basis Set: (AUG-CC-PVTZ AUX)
    Blend: AUG-CC-PVTZ-RI
    Molecular point group: c1

    Geometry (in Angstrom), charge = 0, multiplicity = 1:

       Center              X                  Y                   Z               Mass
    ------------   -----------------  -----------------  -----------------  -----------------
         BR          -1.909967978660    -0.000012233636     0.258980859465    78.918337600000
         BR           0.722162021340    -1.590330233636    -0.533772140535    78.918337600000
         BR           0.722141021340     1.590342766364    -0.533765140535    78.918337600000
         C            0.455763021340    -0.000001233636     1.854416859465    12.000000000000
         C            0.059227721340    -0.000000233636     0.435290259465    12.000000000000
         C            1.960513021340    -0.000000233636     2.094810859465    12.000000000000
         H           -0.007670978660     0.883684766364     2.306705859465     1.007825032230
         H           -0.007667978660    -0.883689233636     2.306702859465     1.007825032230
         H            2.426315021340     0.887305766364     1.662046859465     1.007825032230
         H            2.151477021340    -0.000002233636     3.171287859465     1.007825032230
         H            2.426317021340    -0.887302233636     1.662042859465     1.007825032230

  Basis Set: AUG-CC-PVTZ
    Blend: AUG-CC-PVTZ
  Basis Set: (AUG-CC-PVTZ AUX)
    Blend: AUG-CC-PVTZ-JKFIT
	 Reference Energy          =   -7833.9187472154007992 [Eh]
	 Singles Energy            =      -0.0000000000000000 [Eh]
	 Same-Spin Energy          =      -0.4054220369040668 [Eh]
	 Opposite-Spin Energy      =      -1.0671156030359379 [Eh]
	 Correlation Energy        =      -1.4725376399400048 [Eh]
	 Total Energy              =   -7835.3912848553409276 [Eh]

	 ================> DF-SCS-MP2 Energies <==================
	-----------------------------------------------------------
	 SCS Same-Spin Scale       =       0.3333333333333333 [-]
	 SCS Opposite-Spin Scale   =       1.2000000000000000 [-]
	 SCS Same-Spin Energy      =      -0.1351406789680223 [Eh]
	 SCS Opposite-Spin Energy  =      -1.2805387236431254 [Eh]
	 SCS Correlation Energy    =      -1.4156794026111477 [Eh]
	 SCS Total Energy          =   -7835.3344266180120030 [Eh]
	-----------------------------------------------------------

  Dipole Moment: [D]
     X:     0.7340      Y:    -0.0000      Z:     1.7722     Total:     1.9182

*** Psi4 exiting successfully. Buy a developer a beer!
