                               Psi4 1.3.2 release

  ==> Input File <==

--------------------------------------------------------------------------
#psi4
#
memory 32 gb

molecule  {
0 1
 Br       -1.9501115    -0.0000119     0.1559031
 Br        0.6794840    -1.5903300    -0.6027370
 Br        0.6794630     1.5903430    -0.6027300
  C        0.4130850    -0.0000010     1.7854520
  C        0.0030940     0.0000000     0.3181700
  C        1.9178350     0.0000000     2.0258460
  H       -0.0503490     0.8836850     2.2377410
  H       -0.0503460    -0.8836890     2.2377380
  H        2.3836370     0.8873060     1.5930820
  H        2.1087990    -0.0000020     3.1023230
  H        2.3836390    -0.8873020     1.5930780
units angstrom
no_reorient  #important for SAPT in psi4, default
symmetry c1  #important for SAPT in psi4, default
}

set PROPERTIES_ORIGIN ["COM"]
properties('MP2/aug-cc-pvtz', properties = ['dipole'])
--------------------------------------------------------------------------

    Molecular point group: c1
  Charge       = 0
  Multiplicity = 1
  Basis Set: AUG-CC-PVTZ
    Blend: AUG-CC-PVTZ
  Basis Set: (AUG-CC-PVTZ AUX)
    Blend: AUG-CC-PVTZ-JKFIT

    Orbital Energies [Eh]
    ---------------------

    Doubly Occupied:

       1A   -490.040398     2A   -490.040126     3A   -490.040126
       4A    -65.180156     5A    -65.179939     6A    -65.179938
       7A    -58.535552     8A    -58.535327     9A    -58.535327
      10A    -58.533910    11A    -58.533908    12A    -58.533707
      13A    -58.533707    14A    -58.533689    15A    -58.533689
      16A    -11.421170    17A    -11.268008    18A    -11.234212
      19A     -9.852845    20A     -9.852660    21A     -9.852655
      22A     -7.464784    23A     -7.464586    24A     -7.464583
      25A     -7.457169    26A     -7.457166    27A     -7.457046
      28A     -7.457043    29A     -7.456989    30A     -7.456986
      31A     -3.208713    32A     -3.208503    33A     -3.208484
      34A     -3.204777    35A     -3.204772    36A     -3.204619
      37A     -3.204614    38A     -3.204529    39A     -3.204526
      40A     -3.194909    41A     -3.194908    42A     -3.194775
      43A     -3.194772    44A     -3.194771    45A     -3.194768
      46A     -1.167814    47A     -1.044117    48A     -1.017447
      49A     -1.016139    50A     -0.903561    51A     -0.765298
      52A     -0.655595    53A     -0.630660    54A     -0.589683
      55A     -0.562454    56A     -0.532945    57A     -0.515559
      58A     -0.500771    59A     -0.447683    60A     -0.445769
      61A     -0.432095    62A     -0.410559    63A     -0.409654
      64A     -0.398775

  @DF-RHF Final Energy: -7833.92127145420636

   => Energetics <=

    Nuclear Repulsion Energy =           1132.8696270032278335
    One-Electron Energy =              -13166.4689561528939521
    Two-Electron Energy =                4199.6780576954606659
    Total Energy =                      -7833.9212714542063623
  Basis Set: (AUG-CC-PVTZ AUX)
    Blend: AUG-CC-PVTZ-RI
    Molecular point group: c1

    Geometry (in Angstrom), charge = 0, multiplicity = 1:

       Center              X                  Y                   Z               Mass
    ------------   -----------------  -----------------  -----------------  -----------------
         BR          -1.907572250943    -0.000012162045     0.236639259546    78.918337600000
         BR           0.722023249057    -1.590330262045    -0.522000840454    78.918337600000
         BR           0.722002249057     1.590342737955    -0.521993840454    78.918337600000
         C            0.455624249057    -0.000001262045     1.866188159546    12.000000000000
         C            0.045633249057    -0.000000262045     0.398906159546    12.000000000000
         C            1.960374249057    -0.000000262045     2.106582159546    12.000000000000
         H           -0.007809750943     0.883684737955     2.318477159546     1.007825032230
         H           -0.007806750943    -0.883689262045     2.318474159546     1.007825032230
         H            2.426176249057     0.887305737955     1.673818159546     1.007825032230
         H            2.151338249057    -0.000002262045     3.183059159546     1.007825032230
         H            2.426178249057    -0.887302262045     1.673814159546     1.007825032230

  Basis Set: AUG-CC-PVTZ
    Blend: AUG-CC-PVTZ
  Basis Set: (AUG-CC-PVTZ AUX)
    Blend: AUG-CC-PVTZ-JKFIT
	 Reference Energy          =   -7833.9212714542063623 [Eh]
	 Singles Energy            =      -0.0000000000000000 [Eh]
	 Same-Spin Energy          =      -0.4051785215792580 [Eh]
	 Opposite-Spin Energy      =      -1.0665347593764816 [Eh]
	 Correlation Energy        =      -1.4717132809557396 [Eh]
	 Total Energy              =   -7835.3929847351619173 [Eh]

	 ================> DF-SCS-MP2 Energies <==================
	-----------------------------------------------------------
	 SCS Same-Spin Scale       =       0.3333333333333333 [-]
	 SCS Opposite-Spin Scale   =       1.2000000000000000 [-]
	 SCS Same-Spin Energy      =      -0.1350595071930860 [Eh]
	 SCS Opposite-Spin Energy  =      -1.2798417112517779 [Eh]
	 SCS Correlation Energy    =      -1.4149012184448639 [Eh]
	 SCS Total Energy          =   -7835.3361726726516281 [Eh]
	-----------------------------------------------------------

  Dipole Moment: [D]
     X:     0.6990      Y:    -0.0000      Z:     1.6980     Total:     1.8362

*** Psi4 exiting successfully. Buy a developer a beer!
