                               Psi4 1.3.2 release

  ==> Input File <==

--------------------------------------------------------------------------
#psi4
#
memory 32 gb

molecule  {
0 1
 Br       -1.9526460    -0.0000120     0.1900160
 Br        0.6794840    -1.5903300    -0.6027370
 Br        0.6794630     1.5903430    -0.6027300
  C        0.4130850    -0.0000010     1.7854520
  C        0.0030940     0.0000000     0.3181700
  C        1.9178350     0.0000000     2.0258460
  H       -0.0503490     0.8836850     2.2377410
  H       -0.0503460    -0.8836890     2.2377380
  H        2.3836370     0.8873060     1.5930820
  H        2.1087990    -0.0000020     3.1023230
  H        2.3836390    -0.8873020     1.5930780
units angstrom
no_reorient  #important for SAPT in psi4, default
symmetry c1  #important for SAPT in psi4, default
}

set PROPERTIES_ORIGIN ["COM"]
properties('MP2/aug-cc-pvtz', properties = ['dipole'])
--------------------------------------------------------------------------

    Molecular point group: c1
  Charge       = 0
  Multiplicity = 1
  Basis Set: AUG-CC-PVTZ
    Blend: AUG-CC-PVTZ
  Basis Set: (AUG-CC-PVTZ AUX)
    Blend: AUG-CC-PVTZ-JKFIT

    Orbital Energies [Eh]
    ---------------------

    Doubly Occupied:

       1A   -490.040480     2A   -490.040480     3A   -490.040389
       4A    -65.180279     5A    -65.180279     6A    -65.180149
       7A    -58.535670     8A    -58.535670     9A    -58.535543
      10A    -58.534047    11A    -58.534047    12A    -58.534030
      13A    -58.534030    14A    -58.533906    15A    -58.533901
      16A    -11.421094    17A    -11.267580    18A    -11.233837
      19A     -9.852987    20A     -9.852983    21A     -9.852837
      22A     -7.464916    23A     -7.464913    24A     -7.464771
      25A     -7.457367    26A     -7.457365    27A     -7.457316
      28A     -7.457314    29A     -7.457173    30A     -7.457157
      31A     -3.208839    32A     -3.208818    33A     -3.208693
      34A     -3.204945    35A     -3.204940    36A     -3.204865
      37A     -3.204861    38A     -3.204767    39A     -3.204756
      40A     -3.195098    41A     -3.195094    42A     -3.195094
      43A     -3.195091    44A     -3.194911    45A     -3.194911
      46A     -1.167848    47A     -1.043460    48A     -1.017593
      49A     -1.016883    50A     -0.903123    51A     -0.765319
      52A     -0.655507    53A     -0.630202    54A     -0.590014
      55A     -0.562306    56A     -0.532435    57A     -0.515774
      58A     -0.500412    59A     -0.447371    60A     -0.445886
      61A     -0.431351    62A     -0.410981    63A     -0.410532
      64A     -0.399374

  @DF-RHF Final Energy: -7833.92136951272005

   => Energetics <=

    Nuclear Repulsion Energy =           1131.9519813170441012
    One-Electron Energy =              -13164.6175736753884848
    Two-Electron Energy =                4198.7442228456238809
    Total Energy =                      -7833.9213695127200481
  Basis Set: (AUG-CC-PVTZ AUX)
    Blend: AUG-CC-PVTZ-RI
    Molecular point group: c1

    Geometry (in Angstrom), charge = 0, multiplicity = 1:

       Center              X                  Y                   Z               Mass
    ------------   -----------------  -----------------  -----------------  -----------------
         BR          -1.909386726654    -0.000012233636     0.261061050229    78.918337600000
         BR           0.722743273346    -1.590330233636    -0.531691949771    78.918337600000
         BR           0.722722273346     1.590342766364    -0.531684949771    78.918337600000
         C            0.456344273346    -0.000001233636     1.856497050229    12.000000000000
         C            0.046353273346    -0.000000233636     0.389215050229    12.000000000000
         C            1.961094273346    -0.000000233636     2.096891050229    12.000000000000
         H           -0.007089726654     0.883684766364     2.308786050229     1.007825032230
         H           -0.007086726654    -0.883689233636     2.308783050229     1.007825032230
         H            2.426896273346     0.887305766364     1.664127050229     1.007825032230
         H            2.152058273346    -0.000002233636     3.173368050229     1.007825032230
         H            2.426898273346    -0.887302233636     1.664123050229     1.007825032230

  Basis Set: AUG-CC-PVTZ
    Blend: AUG-CC-PVTZ
  Basis Set: (AUG-CC-PVTZ AUX)
    Blend: AUG-CC-PVTZ-JKFIT
	 Reference Energy          =   -7833.9213695127200481 [Eh]
	 Singles Energy            =      -0.0000000000000000 [Eh]
	 Same-Spin Energy          =      -0.4051672616187703 [Eh]
	 Opposite-Spin Energy      =      -1.0665628838462065 [Eh]
	 Correlation Energy        =      -1.4717301454649767 [Eh]
	 Total Energy              =   -7835.3930996581848376 [Eh]

	 ================> DF-SCS-MP2 Energies <==================
	-----------------------------------------------------------
	 SCS Same-Spin Scale       =       0.3333333333333333 [-]
	 SCS Opposite-Spin Scale   =       1.2000000000000000 [-]
	 SCS Same-Spin Energy      =      -0.1350557538729234 [Eh]
	 SCS Opposite-Spin Energy  =      -1.2798754606154477 [Eh]
	 SCS Correlation Energy    =      -1.4149312144883710 [Eh]
	 SCS Total Energy          =   -7835.3363007272082541 [Eh]
	-----------------------------------------------------------

  Dipole Moment: [D]
     X:     0.7048      Y:    -0.0000      Z:     1.6834     Total:     1.8250

*** Psi4 exiting successfully. Buy a developer a beer!
