                               Psi4 1.3.2 release

  ==> Input File <==

--------------------------------------------------------------------------
#psi4
#
memory 32 gb

molecule  {
0 1
  O       -1.4890520    -1.1699510    -0.0104640
  O        1.7837190     1.3890130    -0.0214620
  N        0.6957764    -0.7839971    -0.0222330
  C       -0.5553190    -0.1742840    -0.0060060
  C       -1.1407710     1.0618160     0.0104930
  C        1.8652240     0.1617960    -0.0202730
  C       -2.5496710     0.8075520     0.0175600
  C       -2.7164660    -0.5449080     0.0047820
  C        3.1811850    -0.5832010     0.0301470
  H        0.8582920    -1.6573840    -0.0213170
  H       -0.6226040     2.0066250     0.0153600
  H       -3.3400310     1.5456830     0.0304840
  H       -3.5700130    -1.2048780     0.0045220
  H        3.4438230    -0.7947010     1.0711420
  H        3.9529480     0.0571610    -0.3968850
  H        3.1464960    -1.5284770    -0.5179270
units angstrom
no_reorient  #important for SAPT in psi4, default
symmetry c1  #important for SAPT in psi4, default
}

set PROPERTIES_ORIGIN ["COM"]
properties('MP2/aug-cc-pvtz', properties = ['dipole'])
--------------------------------------------------------------------------

    Molecular point group: c1
  Charge       = 0
  Multiplicity = 1
  Basis Set: AUG-CC-PVTZ
    Blend: AUG-CC-PVTZ
  Basis Set: (AUG-CC-PVTZ AUX)
    Blend: AUG-CC-PVTZ-JKFIT

    Orbital Energies [Eh]
    ---------------------

    Doubly Occupied:

       1A    -20.619862     2A    -20.558466     3A    -15.605418
       4A    -11.389816     5A    -11.337759     6A    -11.279331
       7A    -11.255055     8A    -11.231093     9A    -11.219535
      10A     -1.461623    11A     -1.395990    12A     -1.251487
      13A     -1.081320    14A     -1.034829    15A     -0.978186
      16A     -0.835798    17A     -0.811938    18A     -0.780950
      19A     -0.744443    20A     -0.685366    21A     -0.652360
      22A     -0.642628    23A     -0.620184    24A     -0.617927
      25A     -0.576455    26A     -0.568856    27A     -0.560562
      28A     -0.547391    29A     -0.536773    30A     -0.466003
      31A     -0.447165    32A     -0.396204    33A     -0.289092

  @DF-RHF Final Energy:  -435.57017710881081

   => Energetics <=

    Nuclear Repulsion Energy =            426.2837566129912830
    One-Electron Energy =               -1438.7481337567933224
    Two-Electron Energy =                 576.8942000349912860
    Total Energy =                       -435.5701771088107535
  Basis Set: (AUG-CC-PVTZ AUX)
    Blend: AUG-CC-PVTZ-RI
    Molecular point group: c1

    Geometry (in Angstrom), charge = 0, multiplicity = 1:

       Center              X                  Y                   Z               Mass
    ------------   -----------------  -----------------  -----------------  -----------------
         O           -1.451990546501    -1.167411629002    -0.008906846807    15.994914619570
         O            1.820780453499     1.391552370998    -0.019904846807    15.994914619570
         N            0.732837853499    -0.781457729002    -0.020675846807    14.003074004430
         C           -0.518257546501    -0.171744629002    -0.004448846807    12.000000000000
         C           -1.103709546501     1.064355370998     0.012050153193    12.000000000000
         C            1.902285453499     0.164335370998    -0.018715846807    12.000000000000
         C           -2.512609546501     0.810091370998     0.019117153193    12.000000000000
         C           -2.679404546501    -0.542368629002     0.006339153193    12.000000000000
         C            3.218246453499    -0.580661629002     0.031704153193    12.000000000000
         H            0.895353453499    -1.654844629002    -0.019759846807     1.007825032230
         H           -0.585542546501     2.009164370998     0.016917153193     1.007825032230
         H           -3.302969546501     1.548222370998     0.032041153193     1.007825032230
         H           -3.532951546501    -1.202338629002     0.006079153193     1.007825032230
         H            3.480884453499    -0.792161629002     1.072699153193     1.007825032230
         H            3.990009453499     0.059700370998    -0.395327846807     1.007825032230
         H            3.183557453499    -1.525937629002    -0.516369846807     1.007825032230

  Basis Set: AUG-CC-PVTZ
    Blend: AUG-CC-PVTZ
  Basis Set: (AUG-CC-PVTZ AUX)
    Blend: AUG-CC-PVTZ-JKFIT
	 Reference Energy          =    -435.5701771088108103 [Eh]
	 Singles Energy            =      -0.0000000000000000 [Eh]
	 Same-Spin Energy          =      -0.4469583780754274 [Eh]
	 Opposite-Spin Energy      =      -1.3709263210378051 [Eh]
	 Correlation Energy        =      -1.8178846991132325 [Eh]
	 Total Energy              =    -437.3880618079240321 [Eh]

	 ================> DF-SCS-MP2 Energies <==================
	-----------------------------------------------------------
	 SCS Same-Spin Scale       =       0.3333333333333333 [-]
	 SCS Opposite-Spin Scale   =       1.2000000000000000 [-]
	 SCS Same-Spin Energy      =      -0.1489861260251424 [Eh]
	 SCS Opposite-Spin Energy  =      -1.6451115852453662 [Eh]
	 SCS Correlation Energy    =      -1.7940977112705085 [Eh]
	 SCS Total Energy          =    -437.3642748200813344 [Eh]
	-----------------------------------------------------------

  Dipole Moment: [D]
     X:     0.7944      Y:    -2.4838      Z:     0.0857     Total:     2.6092

*** Psi4 exiting successfully. Buy a developer a beer!
