                               Psi4 1.4a3.dev225

  ==> Input File <==

--------------------------------------------------------------------------
#psi4
#
memory 32 gb

molecule  {
0 1
  O       -1.4890520    -1.1699510    -0.0104640
  O        1.7837190     1.3890130    -0.0214620
  N        0.7526660    -0.6498780    -0.0214550
  C       -0.5690001    -0.1888725    -0.0060713
  C       -1.1407710     1.0618160     0.0104930
  C        1.8652240     0.1617960    -0.0202730
  C       -2.5496710     0.8075520     0.0175600
  C       -2.7164660    -0.5449080     0.0047820
  C        3.1811850    -0.5832010     0.0301470
  H        0.8582920    -1.6573840    -0.0213170
  H       -0.6226040     2.0066250     0.0153600
  H       -3.3400310     1.5456830     0.0304840
  H       -3.5700130    -1.2048780     0.0045220
  H        3.4438230    -0.7947010     1.0711420
  H        3.9529480     0.0571610    -0.3968850
  H        3.1464960    -1.5284770    -0.5179270
units angstrom
no_reorient  #important for SAPT in psi4, default
symmetry c1  #important for SAPT in psi4, default
}

set PROPERTIES_ORIGIN ["COM"]
properties('MP2/aug-cc-pvtz', properties = ['dipole'])
--------------------------------------------------------------------------

    Molecular point group: c1
  Charge       = 0
  Multiplicity = 1
  Basis Set: AUG-CC-PVTZ
    Blend: AUG-CC-PVTZ
  Basis Set: (AUG-CC-PVTZ AUX)
    Blend: AUG-CC-PVTZ-JKFIT

    Orbital Energies [Eh]
    ---------------------

    Doubly Occupied:

       1A    -20.632837     2A    -20.534297     3A    -15.619171
       4A    -11.371127     5A    -11.339653     6A    -11.284023
       7A    -11.250601     8A    -11.234758     9A    -11.220313
      10A     -1.475465    11A     -1.389058    12A     -1.254009
      13A     -1.084409    14A     -1.036475    15A     -0.978474
      16A     -0.849709    17A     -0.806082    18A     -0.772231
      19A     -0.743051    20A     -0.684288    21A     -0.662836
      22A     -0.650675    23A     -0.622311    24A     -0.602193
      25A     -0.576758    26A     -0.569944    27A     -0.567647
      28A     -0.546869    29A     -0.542976    30A     -0.454176
      31A     -0.439321    32A     -0.398804    33A     -0.293223

  @DF-RHF Final Energy:  -435.60436048982740

   => Energetics <=

    Nuclear Repulsion Energy =            427.8929390941316910
    One-Electron Energy =               -1442.0190684885892551
    Two-Electron Energy =                 578.5217689046302212
    Total Energy =                       -435.6043604898273998
  Basis Set: (AUG-CC-PVTZ AUX)
    Blend: AUG-CC-PVTZ-RI
    Molecular point group: c1

    Geometry (in Angstrom), charge = 0, multiplicity = 1:

       Center              X                  Y                   Z               Mass
    ------------   -----------------  -----------------  -----------------  -----------------
         O           -1.457048265977    -1.181030575820    -0.008987702299    15.994914619570
         O            1.815722734023     1.377933424180    -0.019985702299    15.994914619570
         N            0.784669734023    -0.660957575820    -0.019978702299    14.003074004430
         C           -0.536996365977    -0.199952075820    -0.004595002299    12.000000000000
         C           -1.108767265977     1.050736424180     0.011969297701    12.000000000000
         C            1.897227734023     0.150716424180    -0.018796702299    12.000000000000
         C           -2.517667265977     0.796472424180     0.019036297701    12.000000000000
         C           -2.684462265977    -0.555987575820     0.006258297701    12.000000000000
         C            3.213188734023    -0.594280575820     0.031623297701    12.000000000000
         H            0.890295734023    -1.668463575820    -0.019840702299     1.007825032230
         H           -0.590600265977     1.995545424180     0.016836297701     1.007825032230
         H           -3.308027265977     1.534603424180     0.031960297701     1.007825032230
         H           -3.538009265977    -1.215957575820     0.005998297701     1.007825032230
         H            3.475826734023    -0.805780575820     1.072618297701     1.007825032230
         H            3.984951734023     0.046081424180    -0.395408702299     1.007825032230
         H            3.178499734023    -1.539556575820    -0.516450702299     1.007825032230

  Basis Set: AUG-CC-PVTZ
    Blend: AUG-CC-PVTZ
  Basis Set: (AUG-CC-PVTZ AUX)
    Blend: AUG-CC-PVTZ-JKFIT
	 Reference Energy          =    -435.6043604898273998 [Eh]
	 Singles Energy            =      -0.0000000000000000 [Eh]
	 Same-Spin Energy          =      -0.4468778256250681 [Eh]
	 Opposite-Spin Energy      =      -1.3687900314846202 [Eh]
	 Correlation Energy        =      -1.8156678571096883 [Eh]
	 Total Energy              =    -437.4200283469371016 [Eh]

	 ================> DF-SCS-MP2 Energies <==================
	-----------------------------------------------------------
	 SCS Same-Spin Scale       =       0.3333333333333333 [-]
	 SCS Opposite-Spin Scale   =       1.2000000000000000 [-]
	 SCS Same-Spin Energy      =      -0.1489592752083560 [Eh]
	 SCS Opposite-Spin Energy  =      -1.6425480377815442 [Eh]
	 SCS Correlation Energy    =      -1.7915073129899002 [Eh]
	 SCS Total Energy          =    -437.3958678028172926 [Eh]
	-----------------------------------------------------------

  Dipole Moment: [D]
     X:     0.1051      Y:    -2.9722      Z:     0.0780     Total:     2.9750

*** Psi4 exiting successfully. Buy a developer a beer!
