                               Psi4 1.3.2 release

  ==> Input File <==

--------------------------------------------------------------------------
#psi4
#
memory 32 gb

molecule  {
0 1
  O       -1.4890520    -1.1699510    -0.0104640
  O        1.7837190     1.3890130    -0.0214620
  N        0.7526660    -0.6498780    -0.0214550
  C       -0.5338342    -0.1638767    -0.0060789
  C       -1.1407710     1.0618160     0.0104930
  C        1.8652240     0.1617960    -0.0202730
  C       -2.5496710     0.8075520     0.0175600
  C       -2.7164660    -0.5449080     0.0047820
  C        3.1811850    -0.5832010     0.0301470
  H        0.8582920    -1.6573840    -0.0213170
  H       -0.6226040     2.0066250     0.0153600
  H       -3.3400310     1.5456830     0.0304840
  H       -3.5700130    -1.2048780     0.0045220
  H        3.4438230    -0.7947010     1.0711420
  H        3.9529480     0.0571610    -0.3968850
  H        3.1464960    -1.5284770    -0.5179270
units angstrom
no_reorient  #important for SAPT in psi4, default
symmetry c1  #important for SAPT in psi4, default
}

set PROPERTIES_ORIGIN ["COM"]
properties('MP2/aug-cc-pvtz', properties = ['dipole'])
--------------------------------------------------------------------------

    Molecular point group: c1
  Charge       = 0
  Multiplicity = 1
  Basis Set: AUG-CC-PVTZ
    Blend: AUG-CC-PVTZ
  Basis Set: (AUG-CC-PVTZ AUX)
    Blend: AUG-CC-PVTZ-JKFIT

    Orbital Energies [Eh]
    ---------------------

    Doubly Occupied:

       1A    -20.625541     2A    -20.536509     3A    -15.621499
       4A    -11.372411     5A    -11.338338     6A    -11.284595
       7A    -11.251627     8A    -11.232823     9A    -11.221050
      10A     -1.456829    11A     -1.391630    12A     -1.261459
      13A     -1.081878    14A     -1.037758    15A     -0.976724
      16A     -0.852053    17A     -0.806927    18A     -0.770133
      19A     -0.740853    20A     -0.685569    21A     -0.656800
      22A     -0.649893    23A     -0.620443    24A     -0.603616
      25A     -0.574919    26A     -0.570670    27A     -0.560932
      28A     -0.548285    29A     -0.545382    30A     -0.458565
      31A     -0.441199    32A     -0.397293    33A     -0.292435

  @DF-RHF Final Energy:  -435.60273214603217

   => Energetics <=

    Nuclear Repulsion Energy =            427.7665293559848578
    One-Electron Energy =               -1441.8052509323854338
    Two-Electron Energy =                 578.4359894303684086
    Total Energy =                       -435.6027321460321673
  Basis Set: (AUG-CC-PVTZ AUX)
    Blend: AUG-CC-PVTZ-RI
    Molecular point group: c1

    Geometry (in Angstrom), charge = 0, multiplicity = 1:

       Center              X                  Y                   Z               Mass
    ------------   -----------------  -----------------  -----------------  -----------------
         O           -1.460422905196    -1.183429257696    -0.008986972977    15.994914619570
         O            1.812348094804     1.375534742304    -0.019984972977    15.994914619570
         N            0.781295094804    -0.663356257696    -0.019977972977    14.003074004430
         C           -0.505205105196    -0.177354957696    -0.004601872977    12.000000000000
         C           -1.112141905196     1.048337742304     0.011970027023    12.000000000000
         C            1.893853094804     0.148317742304    -0.018795972977    12.000000000000
         C           -2.521041905196     0.794073742304     0.019037027023    12.000000000000
         C           -2.687836905196    -0.558386257696     0.006259027023    12.000000000000
         C            3.209814094804    -0.596679257696     0.031624027023    12.000000000000
         H            0.886921094804    -1.670862257696    -0.019839972977     1.007825032230
         H           -0.593974905196     1.993146742304     0.016837027023     1.007825032230
         H           -3.311401905196     1.532204742304     0.031961027023     1.007825032230
         H           -3.541383905196    -1.218356257696     0.005999027023     1.007825032230
         H            3.472452094804    -0.808179257696     1.072619027023     1.007825032230
         H            3.981577094804     0.043682742304    -0.395407972977     1.007825032230
         H            3.175125094804    -1.541955257696    -0.516449972977     1.007825032230

  Basis Set: AUG-CC-PVTZ
    Blend: AUG-CC-PVTZ
  Basis Set: (AUG-CC-PVTZ AUX)
    Blend: AUG-CC-PVTZ-JKFIT
	 Reference Energy          =    -435.6027321460321673 [Eh]
	 Singles Energy            =      -0.0000000000000000 [Eh]
	 Same-Spin Energy          =      -0.4471441235519845 [Eh]
	 Opposite-Spin Energy      =      -1.3697303176429634 [Eh]
	 Correlation Energy        =      -1.8168744411949480 [Eh]
	 Total Energy              =    -437.4196065872271220 [Eh]

	 ================> DF-SCS-MP2 Energies <==================
	-----------------------------------------------------------
	 SCS Same-Spin Scale       =       0.3333333333333333 [-]
	 SCS Opposite-Spin Scale   =       1.2000000000000000 [-]
	 SCS Same-Spin Energy      =      -0.1490480411839948 [Eh]
	 SCS Opposite-Spin Energy  =      -1.6436763811715560 [Eh]
	 SCS Correlation Energy    =      -1.7927244223555507 [Eh]
	 SCS Total Energy          =    -437.3954565683877149 [Eh]
	-----------------------------------------------------------

  Dipole Moment: [D]
     X:     0.2716      Y:    -2.9348      Z:     0.0776     Total:     2.9484

*** Psi4 exiting successfully. Buy a developer a beer!
