                               Psi4 1.3.2 release

  ==> Input File <==

--------------------------------------------------------------------------
#psi4
#
memory 32 gb

molecule  {
0 1
  O       -1.4890520    -1.1699510    -0.0104640
  O        1.7837190     1.3890130    -0.0214620
  N        0.7526660    -0.6498780    -0.0214550
  C       -0.4563621    -0.2773287    -0.0078098
  C       -1.1407710     1.0618160     0.0104930
  C        1.8652240     0.1617960    -0.0202730
  C       -2.5496710     0.8075520     0.0175600
  C       -2.7164660    -0.5449080     0.0047820
  C        3.1811850    -0.5832010     0.0301470
  H        0.8582920    -1.6573840    -0.0213170
  H       -0.6226040     2.0066250     0.0153600
  H       -3.3400310     1.5456830     0.0304840
  H       -3.5700130    -1.2048780     0.0045220
  H        3.4438230    -0.7947010     1.0711420
  H        3.9529480     0.0571610    -0.3968850
  H        3.1464960    -1.5284770    -0.5179270
units angstrom
no_reorient  #important for SAPT in psi4, default
symmetry c1  #important for SAPT in psi4, default
}

set PROPERTIES_ORIGIN ["COM"]
properties('MP2/aug-cc-pvtz', properties = ['dipole'])
--------------------------------------------------------------------------

    Molecular point group: c1
  Charge       = 0
  Multiplicity = 1
  Basis Set: AUG-CC-PVTZ
    Blend: AUG-CC-PVTZ
  Basis Set: (AUG-CC-PVTZ AUX)
    Blend: AUG-CC-PVTZ-JKFIT

    Orbital Energies [Eh]
    ---------------------

    Doubly Occupied:

       1A    -20.627458     2A    -20.548154     3A    -15.633704
       4A    -11.383534     5A    -11.349281     6A    -11.273778
       7A    -11.259367     8A    -11.228718     9A    -11.221045
      10A     -1.462530    11A     -1.404813    12A     -1.304196
      13A     -1.059292    14A     -1.051715    15A     -0.969507
      16A     -0.872955    17A     -0.823609    18A     -0.769239
      19A     -0.734381    20A     -0.692905    21A     -0.670640
      22A     -0.661579    23A     -0.624323    24A     -0.615491
      25A     -0.583469    26A     -0.565003    27A     -0.558174
      28A     -0.545488    29A     -0.520740    30A     -0.475025
      31A     -0.451673    32A     -0.385823    33A     -0.263641

  @DF-RHF Final Energy:  -435.56670919642352

   => Energetics <=

    Nuclear Repulsion Energy =            427.8995097640265044
    One-Electron Energy =               -1441.7499390469868104
    Two-Electron Energy =                 578.2837200865367322
    Total Energy =                       -435.5667091964235169
  Basis Set: (AUG-CC-PVTZ AUX)
    Blend: AUG-CC-PVTZ-RI
    Molecular point group: c1

    Geometry (in Angstrom), charge = 0, multiplicity = 1:

       Center              X                  Y                   Z               Mass
    ------------   -----------------  -----------------  -----------------  -----------------
         O           -1.467857391077    -1.172542018391    -0.008820869933    15.994914619570
         O            1.804913608923     1.386421981609    -0.019818869933    15.994914619570
         N            0.773860608923    -0.652469018391    -0.019811869933    14.003074004430
         C           -0.435167491077    -0.279919718391    -0.006166669933    12.000000000000
         C           -1.119576391077     1.059224981609     0.012136130067    12.000000000000
         C            1.886418608923     0.159204981609    -0.018629869933    12.000000000000
         C           -2.528476391077     0.804960981609     0.019203130067    12.000000000000
         C           -2.695271391077    -0.547499018391     0.006425130067    12.000000000000
         C            3.202379608923    -0.585792018391     0.031790130067    12.000000000000
         H            0.879486608923    -1.659975018391    -0.019673869933     1.007825032230
         H           -0.601409391077     2.004033981609     0.017003130067     1.007825032230
         H           -3.318836391077     1.543091981609     0.032127130067     1.007825032230
         H           -3.548818391077    -1.207469018391     0.006165130067     1.007825032230
         H            3.465017608923    -0.797292018391     1.072785130067     1.007825032230
         H            3.974142608923     0.054569981609    -0.395241869933     1.007825032230
         H            3.167690608923    -1.531068018391    -0.516283869933     1.007825032230

  Basis Set: AUG-CC-PVTZ
    Blend: AUG-CC-PVTZ
  Basis Set: (AUG-CC-PVTZ AUX)
    Blend: AUG-CC-PVTZ-JKFIT
	 Reference Energy          =    -435.5667091964235169 [Eh]
	 Singles Energy            =      -0.0000000000000000 [Eh]
	 Same-Spin Energy          =      -0.4503673196114297 [Eh]
	 Opposite-Spin Energy      =      -1.3731943440456620 [Eh]
	 Correlation Energy        =      -1.8235616636570917 [Eh]
	 Total Energy              =    -437.3902708600805909 [Eh]

	 ================> DF-SCS-MP2 Energies <==================
	-----------------------------------------------------------
	 SCS Same-Spin Scale       =       0.3333333333333333 [-]
	 SCS Opposite-Spin Scale   =       1.2000000000000000 [-]
	 SCS Same-Spin Energy      =      -0.1501224398704765 [Eh]
	 SCS Opposite-Spin Energy  =      -1.6478332128547943 [Eh]
	 SCS Correlation Energy    =      -1.7979556527252709 [Eh]
	 SCS Total Energy          =    -437.3646648491487667 [Eh]
	-----------------------------------------------------------

  Dipole Moment: [D]
     X:     0.7924      Y:    -3.2408      Z:     0.0693     Total:     3.3370

*** Psi4 exiting successfully. Buy a developer a beer!
