                               Psi4 1.3.2 release

  ==> Input File <==

--------------------------------------------------------------------------
#psi4
#
memory 32 gb

molecule  {
0 1
  O       -1.4890520    -1.1699510    -0.0104640
  O        1.7837190     1.3890130    -0.0214620
  N        0.7526660    -0.6498780    -0.0214550
  C       -0.5711249    -0.2202213    -0.0064280
  C       -1.1407710     1.0618160     0.0104930
  C        1.8652240     0.1617960    -0.0202730
  C       -2.5496710     0.8075520     0.0175600
  C       -2.7164660    -0.5449080     0.0047820
  C        3.1811850    -0.5832010     0.0301470
  H        0.8582920    -1.6573840    -0.0213170
  H       -0.6226040     2.0066250     0.0153600
  H       -3.3400310     1.5456830     0.0304840
  H       -3.5700130    -1.2048780     0.0045220
  H        3.4438230    -0.7947010     1.0711420
  H        3.9529480     0.0571610    -0.3968850
  H        3.1464960    -1.5284770    -0.5179270
units angstrom
no_reorient  #important for SAPT in psi4, default
symmetry c1  #important for SAPT in psi4, default
}

set PROPERTIES_ORIGIN ["COM"]
properties('MP2/aug-cc-pvtz', properties = ['dipole'])
--------------------------------------------------------------------------

    Molecular point group: c1
  Charge       = 0
  Multiplicity = 1
  Basis Set: AUG-CC-PVTZ
    Blend: AUG-CC-PVTZ
  Basis Set: (AUG-CC-PVTZ AUX)
    Blend: AUG-CC-PVTZ-JKFIT

    Orbital Energies [Eh]
    ---------------------

    Doubly Occupied:

       1A    -20.636710     2A    -20.535148     3A    -15.620224
       4A    -11.372445     5A    -11.342301     6A    -11.281935
       7A    -11.251417     8A    -11.234894     9A    -11.220305
      10A     -1.486015    11A     -1.389881    12A     -1.257173
      13A     -1.080905    14A     -1.037968    15A     -0.978447
      16A     -0.851233    17A     -0.808401    18A     -0.773600
      19A     -0.743890    20A     -0.684783    21A     -0.667923
      22A     -0.654081    23A     -0.623823    24A     -0.603539
      25A     -0.576379    26A     -0.573127    27A     -0.564872
      28A     -0.544094    29A     -0.542420    30A     -0.454857
      31A     -0.440218    32A     -0.397315    33A     -0.288539

  @DF-RHF Final Energy:  -435.60197819547420

   => Energetics <=

    Nuclear Repulsion Energy =            427.9525824890487229
    One-Electron Energy =               -1442.0713948647685356
    Two-Electron Energy =                 578.5168341802456098
    Total Energy =                       -435.6019781954742029
  Basis Set: (AUG-CC-PVTZ AUX)
    Blend: AUG-CC-PVTZ-RI
    Molecular point group: c1

    Geometry (in Angstrom), charge = 0, multiplicity = 1:

       Center              X                  Y                   Z               Mass
    ------------   -----------------  -----------------  -----------------  -----------------
         O           -1.456844362951    -1.178022238483    -0.008953472155    15.994914619570
         O            1.815926637049     1.380941761517    -0.019951472155    15.994914619570
         N            0.784873637049    -0.657949238483    -0.019944472155    14.003074004430
         C           -0.538917262951    -0.228292538483    -0.004917472155    12.000000000000
         C           -1.108563362951     1.053744761517     0.012003527845    12.000000000000
         C            1.897431637049     0.153724761517    -0.018762472155    12.000000000000
         C           -2.517463362951     0.799480761517     0.019070527845    12.000000000000
         C           -2.684258362951    -0.552979238483     0.006292527845    12.000000000000
         C            3.213392637049    -0.591272238483     0.031657527845    12.000000000000
         H            0.890499637049    -1.665455238483    -0.019806472155     1.007825032230
         H           -0.590396362951     1.998553761517     0.016870527845     1.007825032230
         H           -3.307823362951     1.537611761517     0.031994527845     1.007825032230
         H           -3.537805362951    -1.212949238483     0.006032527845     1.007825032230
         H            3.476030637049    -0.802772238483     1.072652527845     1.007825032230
         H            3.985155637049     0.049089761517    -0.395374472155     1.007825032230
         H            3.178703637049    -1.536548238483    -0.516416472155     1.007825032230

  Basis Set: AUG-CC-PVTZ
    Blend: AUG-CC-PVTZ
  Basis Set: (AUG-CC-PVTZ AUX)
    Blend: AUG-CC-PVTZ-JKFIT
	 Reference Energy          =    -435.6019781954742029 [Eh]
	 Singles Energy            =      -0.0000000000000000 [Eh]
	 Same-Spin Energy          =      -0.4472483632794733 [Eh]
	 Opposite-Spin Energy      =      -1.3687924190813692 [Eh]
	 Correlation Energy        =      -1.8160407823608424 [Eh]
	 Total Energy              =    -437.4180189778350609 [Eh]

	 ================> DF-SCS-MP2 Energies <==================
	-----------------------------------------------------------
	 SCS Same-Spin Scale       =       0.3333333333333333 [-]
	 SCS Opposite-Spin Scale   =       1.2000000000000000 [-]
	 SCS Same-Spin Energy      =      -0.1490827877598244 [Eh]
	 SCS Opposite-Spin Energy  =      -1.6425509028976431 [Eh]
	 SCS Correlation Energy    =      -1.7916336906574675 [Eh]
	 SCS Total Energy          =    -437.3936118861316800 [Eh]
	-----------------------------------------------------------

  Dipole Moment: [D]
     X:     0.1314      Y:    -3.0477      Z:     0.0767     Total:     3.0515

*** Psi4 exiting successfully. Buy a developer a beer!
