                               Psi4 1.3.2 release

  ==> Input File <==

--------------------------------------------------------------------------
#psi4
#
memory 32 gb

molecule  {
0 1
  O       -1.4890520    -1.1699510    -0.0104640
  O        1.7837190     1.3890130    -0.0214620
  N        0.7526660    -0.6498780    -0.0214550
  C       -0.6429763    -0.2121168    -0.0057888
  C       -1.1407710     1.0618160     0.0104930
  C        1.8652240     0.1617960    -0.0202730
  C       -2.5496710     0.8075520     0.0175600
  C       -2.7164660    -0.5449080     0.0047820
  C        3.1811850    -0.5832010     0.0301470
  H        0.8582920    -1.6573840    -0.0213170
  H       -0.6226040     2.0066250     0.0153600
  H       -3.3400310     1.5456830     0.0304840
  H       -3.5700130    -1.2048780     0.0045220
  H        3.4438230    -0.7947010     1.0711420
  H        3.9529480     0.0571610    -0.3968850
  H        3.1464960    -1.5284770    -0.5179270
units angstrom
no_reorient  #important for SAPT in psi4, default
symmetry c1  #important for SAPT in psi4, default
}

set PROPERTIES_ORIGIN ["COM"]
properties('MP2/aug-cc-pvtz', properties = ['dipole'])
--------------------------------------------------------------------------

    Molecular point group: c1
  Charge       = 0
  Multiplicity = 1
  Basis Set: AUG-CC-PVTZ
    Blend: AUG-CC-PVTZ
  Basis Set: (AUG-CC-PVTZ AUX)
    Blend: AUG-CC-PVTZ-JKFIT

    Orbital Energies [Eh]
    ---------------------

    Doubly Occupied:

       1A    -20.645067     2A    -20.528917     3A    -15.612785
       4A    -11.367139     5A    -11.342181     6A    -11.284421
       7A    -11.247617     8A    -11.239131     9A    -11.219029
      10A     -1.511636    11A     -1.382930    12A     -1.236024
      13A     -1.094782    14A     -1.032880    15A     -0.982308
      16A     -0.846328    17A     -0.805269    18A     -0.777375
      19A     -0.743598    20A     -0.680948    21A     -0.678825
      22A     -0.649624    23A     -0.621294    24A     -0.600681
      25A     -0.587048    26A     -0.577344    27A     -0.563854
      28A     -0.541363    29A     -0.536713    30A     -0.444001
      31A     -0.434388    32A     -0.404109    33A     -0.298554

  @DF-RHF Final Energy:  -435.59610447361831

   => Energetics <=

    Nuclear Repulsion Energy =            428.2195384486470289
    One-Electron Energy =               -1442.5949581621284779
    Two-Electron Energy =                 578.7793152398631946
    Total Energy =                       -435.5961044736183112
  Basis Set: (AUG-CC-PVTZ AUX)
    Blend: AUG-CC-PVTZ-RI
    Molecular point group: c1

    Geometry (in Angstrom), charge = 0, multiplicity = 1:

       Center              X                  Y                   Z               Mass
    ------------   -----------------  -----------------  -----------------  -----------------
         O           -1.449949258536    -1.178799973833    -0.009014811958    15.994914619570
         O            1.822821741464     1.380164026167    -0.020012811958    15.994914619570
         N            0.791768741464    -0.658726973833    -0.020005811958    14.003074004430
         C           -0.603873558536    -0.220965773833    -0.004339611958    12.000000000000
         C           -1.101668258536     1.052967026167     0.011942188042    12.000000000000
         C            1.904326741464     0.152947026167    -0.018823811958    12.000000000000
         C           -2.510568258536     0.798703026167     0.019009188042    12.000000000000
         C           -2.677363258536    -0.553756973833     0.006231188042    12.000000000000
         C            3.220287741464    -0.592049973833     0.031596188042    12.000000000000
         H            0.897394741464    -1.666232973833    -0.019867811958     1.007825032230
         H           -0.583501258536     1.997776026167     0.016809188042     1.007825032230
         H           -3.300928258536     1.536834026167     0.031933188042     1.007825032230
         H           -3.530910258536    -1.213726973833     0.005971188042     1.007825032230
         H            3.482925741464    -0.803549973833     1.072591188042     1.007825032230
         H            3.992050741464     0.048312026167    -0.395435811958     1.007825032230
         H            3.185598741464    -1.537325973833    -0.516477811958     1.007825032230

  Basis Set: AUG-CC-PVTZ
    Blend: AUG-CC-PVTZ
  Basis Set: (AUG-CC-PVTZ AUX)
    Blend: AUG-CC-PVTZ-JKFIT
	 Reference Energy          =    -435.5961044736183112 [Eh]
	 Singles Energy            =      -0.0000000000000000 [Eh]
	 Same-Spin Energy          =      -0.4463218884823102 [Eh]
	 Opposite-Spin Energy      =      -1.3673691057491053 [Eh]
	 Correlation Energy        =      -1.8136909942314157 [Eh]
	 Total Energy              =    -437.4097954678497331 [Eh]

	 ================> DF-SCS-MP2 Energies <==================
	-----------------------------------------------------------
	 SCS Same-Spin Scale       =       0.3333333333333333 [-]
	 SCS Opposite-Spin Scale   =       1.2000000000000000 [-]
	 SCS Same-Spin Energy      =      -0.1487739628274367 [Eh]
	 SCS Opposite-Spin Energy  =      -1.6408429268989264 [Eh]
	 SCS Correlation Energy    =      -1.7896168897263631 [Eh]
	 SCS Total Energy          =    -437.3857213633446577 [Eh]
	-----------------------------------------------------------

  Dipole Moment: [D]
     X:    -0.2780      Y:    -2.9909      Z:     0.0799     Total:     3.0048

*** Psi4 exiting successfully. Buy a developer a beer!
