                               Psi4 1.3.2 release

  ==> Input File <==

--------------------------------------------------------------------------
#psi4
#
memory 32 gb

molecule  {
0 1
  O       -1.4890520    -1.1699510    -0.0104640
  O        1.7837190     1.3890130    -0.0214620
  N        0.7526660    -0.6498780    -0.0214550
  C       -0.4881417    -0.2418358    -0.0072043
  C       -1.1407710     1.0618160     0.0104930
  C        1.8652240     0.1617960    -0.0202730
  C       -2.5496710     0.8075520     0.0175600
  C       -2.7164660    -0.5449080     0.0047820
  C        3.1811850    -0.5832010     0.0301470
  H        0.8582920    -1.6573840    -0.0213170
  H       -0.6226040     2.0066250     0.0153600
  H       -3.3400310     1.5456830     0.0304840
  H       -3.5700130    -1.2048780     0.0045220
  H        3.4438230    -0.7947010     1.0711420
  H        3.9529480     0.0571610    -0.3968850
  H        3.1464960    -1.5284770    -0.5179270
units angstrom
no_reorient  #important for SAPT in psi4, default
symmetry c1  #important for SAPT in psi4, default
}

set PROPERTIES_ORIGIN ["COM"]
properties('MP2/aug-cc-pvtz', properties = ['dipole'])
--------------------------------------------------------------------------

    Molecular point group: c1
  Charge       = 0
  Multiplicity = 1
  Basis Set: AUG-CC-PVTZ
    Blend: AUG-CC-PVTZ
  Basis Set: (AUG-CC-PVTZ AUX)
    Blend: AUG-CC-PVTZ-JKFIT

    Orbital Energies [Eh]
    ---------------------

    Doubly Occupied:

       1A    -20.628146     2A    -20.543430     3A    -15.628851
       4A    -11.379288     5A    -11.345562     6A    -11.277759
       7A    -11.256355     8A    -11.230487     9A    -11.221607
      10A     -1.463321    11A     -1.399386    12A     -1.287291
      13A     -1.066006    14A     -1.046390    15A     -0.972239
      16A     -0.864564    17A     -0.816547    18A     -0.770576
      19A     -0.737914    20A     -0.689765    21A     -0.665422
      22A     -0.658933    23A     -0.623541    24A     -0.611045
      25A     -0.579745    26A     -0.566944    27A     -0.553258
      28A     -0.551597    29A     -0.532842    30A     -0.468386
      31A     -0.447576    32A     -0.389574    33A     -0.273756

  @DF-RHF Final Energy:  -435.58637995146296

   => Energetics <=

    Nuclear Repulsion Energy =            427.8354536615444772
    One-Electron Energy =               -1441.7474645884465190
    Two-Electron Energy =                 578.3256309754390259
    Total Energy =                       -435.5863799514629591
  Basis Set: (AUG-CC-PVTZ AUX)
    Blend: AUG-CC-PVTZ-RI
    Molecular point group: c1

    Geometry (in Angstrom), charge = 0, multiplicity = 1:

       Center              X                  Y                   Z               Mass
    ------------   -----------------  -----------------  -----------------  -----------------
         O           -1.464807712709    -1.175948037641    -0.008878975770    15.994914619570
         O            1.807963287291     1.383015962359    -0.019876975770    15.994914619570
         N            0.776910287291    -0.655875037641    -0.019869975770    14.003074004430
         C           -0.463897412709    -0.247832837641    -0.005619275770    12.000000000000
         C           -1.116526712709     1.055818962359     0.012078024230    12.000000000000
         C            1.889468287291     0.155798962359    -0.018687975770    12.000000000000
         C           -2.525426712709     0.801554962359     0.019145024230    12.000000000000
         C           -2.692221712709    -0.550905037641     0.006367024230    12.000000000000
         C            3.205429287291    -0.589198037641     0.031732024230    12.000000000000
         H            0.882536287291    -1.663381037641    -0.019731975770     1.007825032230
         H           -0.598359712709     2.000627962359     0.016945024230     1.007825032230
         H           -3.315786712709     1.539685962359     0.032069024230     1.007825032230
         H           -3.545768712709    -1.210875037641     0.006107024230     1.007825032230
         H            3.468067287291    -0.800698037641     1.072727024230     1.007825032230
         H            3.977192287291     0.051163962359    -0.395299975770     1.007825032230
         H            3.170740287291    -1.534474037641    -0.516341975770     1.007825032230

  Basis Set: AUG-CC-PVTZ
    Blend: AUG-CC-PVTZ
  Basis Set: (AUG-CC-PVTZ AUX)
    Blend: AUG-CC-PVTZ-JKFIT
	 Reference Energy          =    -435.5863799514629591 [Eh]
	 Singles Energy            =      -0.0000000000000000 [Eh]
	 Same-Spin Energy          =      -0.4491193812774134 [Eh]
	 Opposite-Spin Energy      =      -1.3716159795150835 [Eh]
	 Correlation Energy        =      -1.8207353607924968 [Eh]
	 Total Energy              =    -437.4071153122554279 [Eh]

	 ================> DF-SCS-MP2 Energies <==================
	-----------------------------------------------------------
	 SCS Same-Spin Scale       =       0.3333333333333333 [-]
	 SCS Opposite-Spin Scale   =       1.2000000000000000 [-]
	 SCS Same-Spin Energy      =      -0.1497064604258044 [Eh]
	 SCS Opposite-Spin Energy  =      -1.6459391754181001 [Eh]
	 SCS Correlation Energy    =      -1.7956456358439046 [Eh]
	 SCS Total Energy          =    -437.3820255873068845 [Eh]
	-----------------------------------------------------------

  Dipole Moment: [D]
     X:     0.5981      Y:    -3.1442      Z:     0.0723     Total:     3.2014

*** Psi4 exiting successfully. Buy a developer a beer!
