                               Psi4 1.3.2 release

  ==> Input File <==

--------------------------------------------------------------------------
#psi4
#
memory 32 gb

molecule  {
0 1
  O       -1.4890520    -1.1699510    -0.0104640
  O        1.7837190     1.3890130    -0.0214620
  N        0.7526660    -0.6498780    -0.0214550
  C       -0.5634224    -0.1971837    -0.0062147
  C       -1.1407710     1.0618160     0.0104930
  C        1.8652240     0.1617960    -0.0202730
  C       -2.5496710     0.8075520     0.0175600
  C       -2.7164660    -0.5449080     0.0047820
  C        3.1811850    -0.5832010     0.0301470
  H        0.8582920    -1.6573840    -0.0213170
  H       -0.6226040     2.0066250     0.0153600
  H       -3.3400310     1.5456830     0.0304840
  H       -3.5700130    -1.2048780     0.0045220
  H        3.4438230    -0.7947010     1.0711420
  H        3.9529480     0.0571610    -0.3968850
  H        3.1464960    -1.5284770    -0.5179270
units angstrom
no_reorient  #important for SAPT in psi4, default
symmetry c1  #important for SAPT in psi4, default
}

set PROPERTIES_ORIGIN ["COM"]
properties('MP2/aug-cc-pvtz', properties = ['dipole'])
--------------------------------------------------------------------------

    Molecular point group: c1
  Charge       = 0
  Multiplicity = 1
  Basis Set: AUG-CC-PVTZ
    Blend: AUG-CC-PVTZ
  Basis Set: (AUG-CC-PVTZ AUX)
    Blend: AUG-CC-PVTZ-JKFIT

    Orbital Energies [Eh]
    ---------------------

    Doubly Occupied:

       1A    -20.633077     2A    -20.535034     3A    -15.620008
       4A    -11.371883     5A    -11.340402     6A    -11.283311
       7A    -11.251113     8A    -11.234461     9A    -11.220478
      10A     -1.476041    11A     -1.389861    12A     -1.256675
      13A     -1.082364    14A     -1.037333    15A     -0.978064
      16A     -0.850769    17A     -0.806958    18A     -0.772381
      19A     -0.743024    20A     -0.684720    21A     -0.663458
      22A     -0.651913    23A     -0.622732    24A     -0.602971
      25A     -0.576147    26A     -0.570209    27A     -0.566720
      28A     -0.545746    29A     -0.543766    30A     -0.455249
      31A     -0.440023    32A     -0.397852    33A     -0.291191

  @DF-RHF Final Energy:  -435.60384155943882

   => Energetics <=

    Nuclear Repulsion Energy =            427.8901909486123145
    One-Electron Energy =               -1441.9961989570626884
    Two-Electron Energy =                 578.5021664490114972
    Total Energy =                       -435.6038415594388198
  Basis Set: (AUG-CC-PVTZ AUX)
    Blend: AUG-CC-PVTZ-RI
    Molecular point group: c1

    Geometry (in Angstrom), charge = 0, multiplicity = 1:

       Center              X                  Y                   Z               Mass
    ------------   -----------------  -----------------  -----------------  -----------------
         O           -1.457583521016    -1.180233004835    -0.008973941148    15.994914619570
         O            1.815187478984     1.378730995165    -0.019971941148    15.994914619570
         N            0.784134478984    -0.660160004835    -0.019964941148    14.003074004430
         C           -0.531953921016    -0.207465704835    -0.004724641148    12.000000000000
         C           -1.109302521016     1.051533995165     0.011983058852    12.000000000000
         C            1.896692478984     0.151513995165    -0.018782941148    12.000000000000
         C           -2.518202521016     0.797269995165     0.019050058852    12.000000000000
         C           -2.684997521016    -0.555190004835     0.006272058852    12.000000000000
         C            3.212653478984    -0.593483004835     0.031637058852    12.000000000000
         H            0.889760478984    -1.667666004835    -0.019826941148     1.007825032230
         H           -0.591135521016     1.996342995165     0.016850058852     1.007825032230
         H           -3.308562521016     1.535400995165     0.031974058852     1.007825032230
         H           -3.538544521016    -1.215160004835     0.006012058852     1.007825032230
         H            3.475291478984    -0.804983004835     1.072632058852     1.007825032230
         H            3.984416478984     0.046878995165    -0.395394941148     1.007825032230
         H            3.177964478984    -1.538759004835    -0.516436941148     1.007825032230

  Basis Set: AUG-CC-PVTZ
    Blend: AUG-CC-PVTZ
  Basis Set: (AUG-CC-PVTZ AUX)
    Blend: AUG-CC-PVTZ-JKFIT
	 Reference Energy          =    -435.6038415594388198 [Eh]
	 Singles Energy            =      -0.0000000000000000 [Eh]
	 Same-Spin Energy          =      -0.4470678243638105 [Eh]
	 Opposite-Spin Energy      =      -1.3689437607349615 [Eh]
	 Correlation Energy        =      -1.8160115850987721 [Eh]
	 Total Energy              =    -437.4198531445375693 [Eh]

	 ================> DF-SCS-MP2 Energies <==================
	-----------------------------------------------------------
	 SCS Same-Spin Scale       =       0.3333333333333333 [-]
	 SCS Opposite-Spin Scale   =       1.2000000000000000 [-]
	 SCS Same-Spin Energy      =      -0.1490226081212702 [Eh]
	 SCS Opposite-Spin Energy  =      -1.6427325128819537 [Eh]
	 SCS Correlation Energy    =      -1.7917551210032239 [Eh]
	 SCS Total Energy          =    -437.3955966804420541 [Eh]
	-----------------------------------------------------------

  Dipole Moment: [D]
     X:     0.1456      Y:    -2.9958      Z:     0.0774     Total:     3.0004

*** Psi4 exiting successfully. Buy a developer a beer!
