                               Psi4 1.3.2 release

  ==> Input File <==

--------------------------------------------------------------------------
#psi4
#
memory 32 gb

molecule  {
0 1
  O       -1.4890520    -1.1699510    -0.0104640
  O        1.7837190     1.3890130    -0.0214620
  N        0.7526660    -0.6498780    -0.0214550
  C       -0.4185085    -0.0283989    -0.0053528
  C       -1.1407710     1.0618160     0.0104930
  C        1.8652240     0.1617960    -0.0202730
  C       -2.5496710     0.8075520     0.0175600
  C       -2.7164660    -0.5449080     0.0047820
  C        3.1811850    -0.5832010     0.0301470
  H        0.8582920    -1.6573840    -0.0213170
  H       -0.6226040     2.0066250     0.0153600
  H       -3.3400310     1.5456830     0.0304840
  H       -3.5700130    -1.2048780     0.0045220
  H        3.4438230    -0.7947010     1.0711420
  H        3.9529480     0.0571610    -0.3968850
  H        3.1464960    -1.5284770    -0.5179270
units angstrom
no_reorient  #important for SAPT in psi4, default
symmetry c1  #important for SAPT in psi4, default
}

set PROPERTIES_ORIGIN ["COM"]
properties('MP2/aug-cc-pvtz', properties = ['dipole'])
--------------------------------------------------------------------------

    Molecular point group: c1
  Charge       = 0
  Multiplicity = 1
  Basis Set: AUG-CC-PVTZ
    Blend: AUG-CC-PVTZ
  Basis Set: (AUG-CC-PVTZ AUX)
    Blend: AUG-CC-PVTZ-JKFIT

    Orbital Energies [Eh]
    ---------------------

    Doubly Occupied:

       1A    -20.594244     2A    -20.543369     3A    -15.628588
       4A    -11.375776     5A    -11.337642     6A    -11.287661
       7A    -11.254177     8A    -11.226360     9A    -11.224255
      10A     -1.411603    11A     -1.387876    12A     -1.278433
      13A     -1.084997    14A     -1.039219    15A     -0.975350
      16A     -0.856019    17A     -0.817616    18A     -0.768549
      19A     -0.729428    20A     -0.688332    21A     -0.651584
      22A     -0.644382    23A     -0.610238    24A     -0.603403
      25A     -0.578286    26A     -0.564118    27A     -0.557810
      28A     -0.549013    29A     -0.511458    30A     -0.470769
      31A     -0.446279    32A     -0.397416    33A     -0.295912

  @DF-RHF Final Energy:  -435.56466478778407

   => Energetics <=

    Nuclear Repulsion Energy =            427.4616098774561692
    One-Electron Energy =               -1441.2722227243743873
    Two-Electron Energy =                 578.2459480591342071
    Total Energy =                       -435.5646647877840678
  Basis Set: (AUG-CC-PVTZ AUX)
    Blend: AUG-CC-PVTZ-RI
    Molecular point group: c1

    Geometry (in Angstrom), charge = 0, multiplicity = 1:

       Center              X                  Y                   Z               Mass
    ------------   -----------------  -----------------  -----------------  -----------------
         O           -1.471489951118    -1.196430167588    -0.009056652000    15.994914619570
         O            1.801281048882     1.362533832412    -0.020054652000    15.994914619570
         N            0.770228048882    -0.676357167588    -0.020047652000    14.003074004430
         C           -0.400946451118    -0.054878067588    -0.003945452000    12.000000000000
         C           -1.123208951118     1.035336832412     0.011900348000    12.000000000000
         C            1.882786048882     0.135316832412    -0.018865652000    12.000000000000
         C           -2.532108951118     0.781072832412     0.018967348000    12.000000000000
         C           -2.698903951118    -0.571387167588     0.006189348000    12.000000000000
         C            3.198747048882    -0.609680167588     0.031554348000    12.000000000000
         H            0.875854048882    -1.683863167588    -0.019909652000     1.007825032230
         H           -0.605041951118     1.980145832412     0.016767348000     1.007825032230
         H           -3.322468951118     1.519203832412     0.031891348000     1.007825032230
         H           -3.552450951118    -1.231357167588     0.005929348000     1.007825032230
         H            3.461385048882    -0.821180167588     1.072549348000     1.007825032230
         H            3.970510048882     0.030681832412    -0.395477652000     1.007825032230
         H            3.164058048882    -1.554956167588    -0.516519652000     1.007825032230

  Basis Set: AUG-CC-PVTZ
    Blend: AUG-CC-PVTZ
  Basis Set: (AUG-CC-PVTZ AUX)
    Blend: AUG-CC-PVTZ-JKFIT
	 Reference Energy          =    -435.5646647877840678 [Eh]
	 Singles Energy            =      -0.0000000000000000 [Eh]
	 Same-Spin Energy          =      -0.4484731877101550 [Eh]
	 Opposite-Spin Energy      =      -1.3742136638646480 [Eh]
	 Correlation Energy        =      -1.8226868515748031 [Eh]
	 Total Energy              =    -437.3873516393588829 [Eh]

	 ================> DF-SCS-MP2 Energies <==================
	-----------------------------------------------------------
	 SCS Same-Spin Scale       =       0.3333333333333333 [-]
	 SCS Opposite-Spin Scale   =       1.2000000000000000 [-]
	 SCS Same-Spin Energy      =      -0.1494910625700517 [Eh]
	 SCS Opposite-Spin Energy  =      -1.6490563966375775 [Eh]
	 SCS Correlation Energy    =      -1.7985474592076292 [Eh]
	 SCS Total Energy          =    -437.3632122469916794 [Eh]
	-----------------------------------------------------------

  Dipole Moment: [D]
     X:     0.8041      Y:    -2.7092      Z:     0.0782     Total:     2.8271

*** Psi4 exiting successfully. Buy a developer a beer!
