                               Psi4 1.3.2 release

  ==> Input File <==

--------------------------------------------------------------------------
#psi4
#
memory 32 gb

molecule  {
0 1
  O       -1.4890520    -1.1699510    -0.0104640
  O        1.7837190     1.3890130    -0.0214620
  N        0.7526660    -0.6498780    -0.0214550
  C       -0.6270454    -0.1115830    -0.0048294
  C       -1.1407710     1.0618160     0.0104930
  C        1.8652240     0.1617960    -0.0202730
  C       -2.5496710     0.8075520     0.0175600
  C       -2.7164660    -0.5449080     0.0047820
  C        3.1811850    -0.5832010     0.0301470
  H        0.8582920    -1.6573840    -0.0213170
  H       -0.6226040     2.0066250     0.0153600
  H       -3.3400310     1.5456830     0.0304840
  H       -3.5700130    -1.2048780     0.0045220
  H        3.4438230    -0.7947010     1.0711420
  H        3.9529480     0.0571610    -0.3968850
  H        3.1464960    -1.5284770    -0.5179270
units angstrom
no_reorient  #important for SAPT in psi4, default
symmetry c1  #important for SAPT in psi4, default
}

set PROPERTIES_ORIGIN ["COM"]
properties('MP2/aug-cc-pvtz', properties = ['dipole'])
--------------------------------------------------------------------------

    Molecular point group: c1
  Charge       = 0
  Multiplicity = 1
  Basis Set: AUG-CC-PVTZ
    Blend: AUG-CC-PVTZ
  Basis Set: (AUG-CC-PVTZ AUX)
    Blend: AUG-CC-PVTZ-JKFIT

    Orbital Energies [Eh]
    ---------------------

    Doubly Occupied:

       1A    -20.631105     2A    -20.527457     3A    -15.610998
       4A    -11.364002     5A    -11.333207     6A    -11.290354
       7A    -11.245781     8A    -11.238059     9A    -11.217238
      10A     -1.471352    11A     -1.381711    12A     -1.229964
      13A     -1.108687    14A     -1.028811    15A     -0.982059
      16A     -0.842069    17A     -0.798618    18A     -0.771278
      19A     -0.741195    20A     -0.680208    21A     -0.659153
      22A     -0.637572    23A     -0.618173    24A     -0.597490
      25A     -0.590498    26A     -0.570855    27A     -0.563406
      28A     -0.552614    29A     -0.535139    30A     -0.445186
      31A     -0.432618    32A     -0.409518    33A     -0.311834

  @DF-RHF Final Energy:  -435.59254949754211

   => Energetics <=

    Nuclear Repulsion Energy =            428.0156395362242847
    One-Electron Energy =               -1442.3799636716341865
    Two-Electron Energy =                 578.7717746378677930
    Total Energy =                       -435.5925494975421088
  Basis Set: (AUG-CC-PVTZ AUX)
    Blend: AUG-CC-PVTZ-RI
    Molecular point group: c1

    Geometry (in Angstrom), charge = 0, multiplicity = 1:

       Center              X                  Y                   Z               Mass
    ------------   -----------------  -----------------  -----------------  -----------------
         O           -1.451478041815    -1.188447538784    -0.009106879241    15.994914619570
         O            1.821292958185     1.370516461216    -0.020104879241    15.994914619570
         N            0.790239958185    -0.668374538784    -0.020097879241    14.003074004430
         C           -0.589471441815    -0.130079538784    -0.003472279241    12.000000000000
         C           -1.103197041815     1.043319461216     0.011850120759    12.000000000000
         C            1.902797958185     0.143299461216    -0.018915879241    12.000000000000
         C           -2.512097041815     0.789055461216     0.018917120759    12.000000000000
         C           -2.678892041815    -0.563404538784     0.006139120759    12.000000000000
         C            3.218758958185    -0.601697538784     0.031504120759    12.000000000000
         H            0.895865958185    -1.675880538784    -0.019959879241     1.007825032230
         H           -0.585030041815     1.988128461216     0.016717120759     1.007825032230
         H           -3.302457041815     1.527186461216     0.031841120759     1.007825032230
         H           -3.532439041815    -1.223374538784     0.005879120759     1.007825032230
         H            3.481396958185    -0.813197538784     1.072499120759     1.007825032230
         H            3.990521958185     0.038664461216    -0.395527879241     1.007825032230
         H            3.184069958185    -1.546973538784    -0.516569879241     1.007825032230

  Basis Set: AUG-CC-PVTZ
    Blend: AUG-CC-PVTZ
  Basis Set: (AUG-CC-PVTZ AUX)
    Blend: AUG-CC-PVTZ-JKFIT
	 Reference Energy          =    -435.5925494975421088 [Eh]
	 Singles Energy            =      -0.0000000000000000 [Eh]
	 Same-Spin Energy          =      -0.4454049305100395 [Eh]
	 Opposite-Spin Energy      =      -1.3679211723898044 [Eh]
	 Correlation Energy        =      -1.8133261028998438 [Eh]
	 Total Energy              =    -437.4058756004419593 [Eh]

	 ================> DF-SCS-MP2 Energies <==================
	-----------------------------------------------------------
	 SCS Same-Spin Scale       =       0.3333333333333333 [-]
	 SCS Opposite-Spin Scale   =       1.2000000000000000 [-]
	 SCS Same-Spin Energy      =      -0.1484683101700132 [Eh]
	 SCS Opposite-Spin Energy  =      -1.6415054068677652 [Eh]
	 SCS Correlation Energy    =      -1.7899737170377783 [Eh]
	 SCS Total Energy          =    -437.3825232145798623 [Eh]
	-----------------------------------------------------------

  Dipole Moment: [D]
     X:    -0.3172      Y:    -2.7350      Z:     0.0837     Total:     2.7546

*** Psi4 exiting successfully. Buy a developer a beer!
