                               Psi4 1.3.2 release

  ==> Input File <==

--------------------------------------------------------------------------
#psi4
#
memory 32 gb

molecule  {
0 1
  O       -1.4890520    -1.1699510    -0.0104640
  O        1.7837190     1.3890130    -0.0214620
  N        0.7526660    -0.6498780    -0.0214550
  C       -0.5553190    -0.1742840    -0.0060060
  C       -1.1407710     1.0618160     0.0104930
  C        1.9191333     0.0822106    -0.0202129
  C       -2.5496710     0.8075520     0.0175600
  C       -2.7164660    -0.5449080     0.0047820
  C        3.1811850    -0.5832010     0.0301470
  H        0.8582920    -1.6573840    -0.0213170
  H       -0.6226040     2.0066250     0.0153600
  H       -3.3400310     1.5456830     0.0304840
  H       -3.5700130    -1.2048780     0.0045220
  H        3.4438230    -0.7947010     1.0711420
  H        3.9529480     0.0571610    -0.3968850
  H        3.1464960    -1.5284770    -0.5179270
units angstrom
no_reorient  #important for SAPT in psi4, default
symmetry c1  #important for SAPT in psi4, default
}

set PROPERTIES_ORIGIN ["COM"]
properties('MP2/aug-cc-pvtz', properties = ['dipole'])
--------------------------------------------------------------------------

    Molecular point group: c1
  Charge       = 0
  Multiplicity = 1
  Basis Set: AUG-CC-PVTZ
    Blend: AUG-CC-PVTZ
  Basis Set: (AUG-CC-PVTZ AUX)
    Blend: AUG-CC-PVTZ-JKFIT

    Orbital Energies [Eh]
    ---------------------

    Doubly Occupied:

       1A    -20.630735     2A    -20.522814     3A    -15.626006
       4A    -11.376432     5A    -11.340226     6A    -11.286039
       7A    -11.254864     8A    -11.234260     9A    -11.221512
      10A     -1.467461    11A     -1.348393    12A     -1.243065
      13A     -1.084934    14A     -1.060444    15A     -0.985203
      16A     -0.850739    17A     -0.808809    18A     -0.768982
      19A     -0.741271    20A     -0.688497    21A     -0.660562
      22A     -0.650709    23A     -0.628373    24A     -0.597978
      25A     -0.574382    26A     -0.568304    27A     -0.562142
      28A     -0.546271    29A     -0.537088    30A     -0.433531
      31A     -0.432992    32A     -0.398499    33A     -0.294526

  @DF-RHF Final Energy:  -435.58235801102785

   => Energetics <=

    Nuclear Repulsion Energy =            426.9961803195307084
    One-Electron Energy =               -1440.3049865080727159
    Two-Electron Energy =                 577.7264481775141576
    Total Energy =                       -435.5823580110278499
  Basis Set: (AUG-CC-PVTZ AUX)
    Blend: AUG-CC-PVTZ-RI
    Molecular point group: c1

    Geometry (in Angstrom), charge = 0, multiplicity = 1:

       Center              X                  Y                   Z               Mass
    ------------   -----------------  -----------------  -----------------  -----------------
         O           -1.463534470359    -1.174793252508    -0.008999736109    15.994914619570
         O            1.809236529641     1.384170747492    -0.019997736109    15.994914619570
         N            0.778183529641    -0.654720252508    -0.019990736109    14.003074004430
         C           -0.529801470359    -0.179126252508    -0.004541736109    12.000000000000
         C           -1.115253470359     1.056973747492     0.011957263891    12.000000000000
         C            1.944650829641     0.077368347492    -0.018748636109    12.000000000000
         C           -2.524153470359     0.802709747492     0.019024263891    12.000000000000
         C           -2.690948470359    -0.549750252508     0.006246263891    12.000000000000
         C            3.206702529641    -0.588043252508     0.031611263891    12.000000000000
         H            0.883809529641    -1.662226252508    -0.019852736109     1.007825032230
         H           -0.597086470359     2.001782747492     0.016824263891     1.007825032230
         H           -3.314513470359     1.540840747492     0.031948263891     1.007825032230
         H           -3.544495470359    -1.209720252508     0.005986263891     1.007825032230
         H            3.469340529641    -0.799543252508     1.072606263891     1.007825032230
         H            3.978465529641     0.052318747492    -0.395420736109     1.007825032230
         H            3.172013529641    -1.533319252508    -0.516462736109     1.007825032230

  Basis Set: AUG-CC-PVTZ
    Blend: AUG-CC-PVTZ
  Basis Set: (AUG-CC-PVTZ AUX)
    Blend: AUG-CC-PVTZ-JKFIT
	 Reference Energy          =    -435.5823580110278499 [Eh]
	 Singles Energy            =      -0.0000000000000000 [Eh]
	 Same-Spin Energy          =      -0.4496435560070081 [Eh]
	 Opposite-Spin Energy      =      -1.3741673445714535 [Eh]
	 Correlation Energy        =      -1.8238109005784615 [Eh]
	 Total Energy              =    -437.4061689116063008 [Eh]

	 ================> DF-SCS-MP2 Energies <==================
	-----------------------------------------------------------
	 SCS Same-Spin Scale       =       0.3333333333333333 [-]
	 SCS Opposite-Spin Scale   =       1.2000000000000000 [-]
	 SCS Same-Spin Energy      =      -0.1498811853356694 [Eh]
	 SCS Opposite-Spin Energy  =      -1.6490008134857441 [Eh]
	 SCS Correlation Energy    =      -1.7988819988214135 [Eh]
	 SCS Total Energy          =    -437.3812400098492503 [Eh]
	-----------------------------------------------------------

  Dipole Moment: [D]
     X:     0.2260      Y:    -3.3440      Z:     0.0958     Total:     3.3530

*** Psi4 exiting successfully. Buy a developer a beer!
