                               Psi4 1.3.2 release

  ==> Input File <==

--------------------------------------------------------------------------
#psi4
#
memory 32 gb

molecule  {
0 1
  O       -1.4890520    -1.1699510    -0.0104640
  O        1.7837190     1.3890130    -0.0214620
  N        0.7526660    -0.6498780    -0.0214550
  C       -0.5379195    -0.1289261    -0.0056028
  C       -1.1407710     1.0618160     0.0104930
  C        1.8652240     0.1617960    -0.0202730
  C       -2.5496710     0.8075520     0.0175600
  C       -2.7164660    -0.5449080     0.0047820
  C        3.1811850    -0.5832010     0.0301470
  H        0.8582920    -1.6573840    -0.0213170
  H       -0.6226040     2.0066250     0.0153600
  H       -3.3400310     1.5456830     0.0304840
  H       -3.5700130    -1.2048780     0.0045220
  H        3.4438230    -0.7947010     1.0711420
  H        3.9529480     0.0571610    -0.3968850
  H        3.1464960    -1.5284770    -0.5179270
units angstrom
no_reorient  #important for SAPT in psi4, default
symmetry c1  #important for SAPT in psi4, default
}

set PROPERTIES_ORIGIN ["COM"]
properties('MP2/aug-cc-pvtz', properties = ['dipole'])
--------------------------------------------------------------------------

    Molecular point group: c1
  Charge       = 0
  Multiplicity = 1
  Basis Set: AUG-CC-PVTZ
    Blend: AUG-CC-PVTZ
  Basis Set: (AUG-CC-PVTZ AUX)
    Blend: AUG-CC-PVTZ-JKFIT

    Orbital Energies [Eh]
    ---------------------

    Doubly Occupied:

       1A    -20.622083     2A    -20.535162     3A    -15.620056
       4A    -11.370705     5A    -11.335732     6A    -11.286788
       7A    -11.250511     8A    -11.232935     9A    -11.220447
      10A     -1.448835    11A     -1.390161    12A     -1.255831
      13A     -1.088039    14A     -1.035461    15A     -0.977857
      16A     -0.849059    17A     -0.804868    18A     -0.769126
      19A     -0.740563    20A     -0.684775    21A     -0.652976
      22A     -0.646081    23A     -0.618541    24A     -0.601663
      25A     -0.577017    26A     -0.570607    27A     -0.558922
      28A     -0.551436    29A     -0.543785    30A     -0.457075
      31A     -0.439828    32A     -0.400082    33A     -0.298293

  @DF-RHF Final Energy:  -435.60116371464170

   => Energetics <=

    Nuclear Repulsion Energy =            427.7303868892705623
    One-Electron Energy =               -1441.7925013479143672
    Two-Electron Energy =                 578.4609507440020479
    Total Energy =                       -435.6011637146417570
  Basis Set: (AUG-CC-PVTZ AUX)
    Blend: AUG-CC-PVTZ-RI
    Molecular point group: c1

    Geometry (in Angstrom), charge = 0, multiplicity = 1:

       Center              X                  Y                   Z               Mass
    ------------   -----------------  -----------------  -----------------  -----------------
         O           -1.460030865931    -1.186783235995    -0.009032661150    15.994914619570
         O            1.812740134069     1.372180764005    -0.020030661150    15.994914619570
         N            0.781687134069    -0.666710235995    -0.020023661150    14.003074004430
         C           -0.508898365931    -0.145758335995    -0.004171461150    12.000000000000
         C           -1.111749865931     1.044983764005     0.011924338850    12.000000000000
         C            1.894245134069     0.144963764005    -0.018841661150    12.000000000000
         C           -2.520649865931     0.790719764005     0.018991338850    12.000000000000
         C           -2.687444865931    -0.561740235995     0.006213338850    12.000000000000
         C            3.210206134069    -0.600033235995     0.031578338850    12.000000000000
         H            0.887313134069    -1.674216235995    -0.019885661150     1.007825032230
         H           -0.593582865931     1.989792764005     0.016791338850     1.007825032230
         H           -3.311009865931     1.528850764005     0.031915338850     1.007825032230
         H           -3.540991865931    -1.221710235995     0.005953338850     1.007825032230
         H            3.472844134069    -0.811533235995     1.072573338850     1.007825032230
         H            3.981969134069     0.040328764005    -0.395453661150     1.007825032230
         H            3.175517134069    -1.545309235995    -0.516495661150     1.007825032230

  Basis Set: AUG-CC-PVTZ
    Blend: AUG-CC-PVTZ
  Basis Set: (AUG-CC-PVTZ AUX)
    Blend: AUG-CC-PVTZ-JKFIT
	 Reference Energy          =    -435.6011637146417002 [Eh]
	 Singles Energy            =      -0.0000000000000000 [Eh]
	 Same-Spin Energy          =      -0.4466683028503464 [Eh]
	 Opposite-Spin Energy      =      -1.3696311988001788 [Eh]
	 Correlation Energy        =      -1.8162995016505252 [Eh]
	 Total Energy              =    -437.4174632162922194 [Eh]

	 ================> DF-SCS-MP2 Energies <==================
	-----------------------------------------------------------
	 SCS Same-Spin Scale       =       0.3333333333333333 [-]
	 SCS Opposite-Spin Scale   =       1.2000000000000000 [-]
	 SCS Same-Spin Energy      =      -0.1488894342834488 [Eh]
	 SCS Opposite-Spin Energy  =      -1.6435574385602145 [Eh]
	 SCS Correlation Energy    =      -1.7924468728436633 [Eh]
	 SCS Total Energy          =    -437.3936105874853411 [Eh]
	-----------------------------------------------------------

  Dipole Moment: [D]
     X:     0.2121      Y:    -2.8475      Z:     0.0793     Total:     2.8565

*** Psi4 exiting successfully. Buy a developer a beer!
