                               Psi4 1.3.2 release

  ==> Input File <==

--------------------------------------------------------------------------
#psi4
#
memory 32 gb

molecule  {
0 1
  O       -1.4890520    -1.1699510    -0.0104640
  O        1.7837190     1.3890130    -0.0214620
  N        0.7526660    -0.6498780    -0.0214550
  C       -0.4869137    -0.1013415    -0.0056794
  C       -1.1407710     1.0618160     0.0104930
  C        1.8652240     0.1617960    -0.0202730
  C       -2.5496710     0.8075520     0.0175600
  C       -2.7164660    -0.5449080     0.0047820
  C        3.1811850    -0.5832010     0.0301470
  H        0.8582920    -1.6573840    -0.0213170
  H       -0.6226040     2.0066250     0.0153600
  H       -3.3400310     1.5456830     0.0304840
  H       -3.5700130    -1.2048780     0.0045220
  H        3.4438230    -0.7947010     1.0711420
  H        3.9529480     0.0571610    -0.3968850
  H        3.1464960    -1.5284770    -0.5179270
units angstrom
no_reorient  #important for SAPT in psi4, default
symmetry c1  #important for SAPT in psi4, default
}

set PROPERTIES_ORIGIN ["COM"]
properties('MP2/aug-cc-pvtz', properties = ['dipole'])
--------------------------------------------------------------------------

    Molecular point group: c1
  Charge       = 0
  Multiplicity = 1
  Basis Set: AUG-CC-PVTZ
    Blend: AUG-CC-PVTZ
  Basis Set: (AUG-CC-PVTZ AUX)
    Blend: AUG-CC-PVTZ-JKFIT

    Orbital Energies [Eh]
    ---------------------

    Doubly Occupied:

       1A    -20.612413     2A    -20.538825     3A    -15.623875
       4A    -11.373168     5A    -11.336113     6A    -11.286663
       7A    -11.252331     8A    -11.230185     9A    -11.221913
      10A     -1.429429    11A     -1.393655    12A     -1.267618
      13A     -1.083724    14A     -1.037858    15A     -0.975835
      16A     -0.853235    17A     -0.809290    18A     -0.767879
      19A     -0.736526    20A     -0.686672    21A     -0.650847
      22A     -0.646555    23A     -0.613705    24A     -0.605293
      25A     -0.574506    26A     -0.571561    27A     -0.556392
      28A     -0.547333    29A     -0.539303    30A     -0.463480
      31A     -0.442913    32A     -0.397624    33A     -0.295341

  @DF-RHF Final Energy:  -435.59197587710969

   => Energetics <=

    Nuclear Repulsion Energy =            427.6066601446421487
    One-Electron Energy =               -1441.5531502202882166
    Two-Electron Energy =                 578.3545141985364353
    Total Energy =                       -435.5919758771096895
  Basis Set: (AUG-CC-PVTZ AUX)
    Blend: AUG-CC-PVTZ-RI
    Molecular point group: c1

    Geometry (in Angstrom), charge = 0, multiplicity = 1:

       Center              X                  Y                   Z               Mass
    ------------   -----------------  -----------------  -----------------  -----------------
         O           -1.464925555760    -1.189430347913    -0.009025310354    15.994914619570
         O            1.807845444240     1.369533652087    -0.020023310354    15.994914619570
         N            0.776792444240    -0.669357347913    -0.020016310354    14.003074004430
         C           -0.462787255760    -0.120820847913    -0.004240710354    12.000000000000
         C           -1.116644555760     1.042336652087     0.011931689646    12.000000000000
         C            1.889350444240     0.142316652087    -0.018834310354    12.000000000000
         C           -2.525544555760     0.788072652087     0.018998689646    12.000000000000
         C           -2.692339555760    -0.564387347913     0.006220689646    12.000000000000
         C            3.205311444240    -0.602680347913     0.031585689646    12.000000000000
         H            0.882418444240    -1.676863347913    -0.019878310354     1.007825032230
         H           -0.598477555760     1.987145652087     0.016798689646     1.007825032230
         H           -3.315904555760     1.526203652087     0.031922689646     1.007825032230
         H           -3.545886555760    -1.224357347913     0.005960689646     1.007825032230
         H            3.467949444240    -0.814180347913     1.072580689646     1.007825032230
         H            3.977074444240     0.037681652087    -0.395446310354     1.007825032230
         H            3.170622444240    -1.547956347913    -0.516488310354     1.007825032230

  Basis Set: AUG-CC-PVTZ
    Blend: AUG-CC-PVTZ
  Basis Set: (AUG-CC-PVTZ AUX)
    Blend: AUG-CC-PVTZ-JKFIT
	 Reference Energy          =    -435.5919758771096895 [Eh]
	 Singles Energy            =      -0.0000000000000000 [Eh]
	 Same-Spin Energy          =      -0.4473867066052477 [Eh]
	 Opposite-Spin Energy      =      -1.3713053957224219 [Eh]
	 Correlation Energy        =      -1.8186921023276696 [Eh]
	 Total Energy              =    -437.4106679794373349 [Eh]

	 ================> DF-SCS-MP2 Energies <==================
	-----------------------------------------------------------
	 SCS Same-Spin Scale       =       0.3333333333333333 [-]
	 SCS Opposite-Spin Scale   =       1.2000000000000000 [-]
	 SCS Same-Spin Energy      =      -0.1491289022017492 [Eh]
	 SCS Opposite-Spin Energy  =      -1.6455664748669063 [Eh]
	 SCS Correlation Energy    =      -1.7946953770686556 [Eh]
	 SCS Total Energy          =    -437.3866712541783386 [Eh]
	-----------------------------------------------------------

  Dipole Moment: [D]
     X:     0.4728      Y:    -2.8224      Z:     0.0783     Total:     2.8628

*** Psi4 exiting successfully. Buy a developer a beer!
