                               Psi4 1.3.2 release

  ==> Input File <==

--------------------------------------------------------------------------
#psi4
#
memory 32 gb

molecule  {
0 1
  O       -1.4715335    -1.1860936    -0.0107415
  O        1.7837190     1.3890130    -0.0214620
  N        0.7526660    -0.6498780    -0.0214550
  C       -0.5553190    -0.1742840    -0.0060060
  C       -1.1407710     1.0618160     0.0104930
  C        1.8652240     0.1617960    -0.0202730
  C       -2.5496710     0.8075520     0.0175600
  C       -2.7164660    -0.5449080     0.0047820
  C        3.1811850    -0.5832010     0.0301470
  H        0.8582920    -1.6573840    -0.0213170
  H       -0.6226040     2.0066250     0.0153600
  H       -3.3400310     1.5456830     0.0304840
  H       -3.5700130    -1.2048780     0.0045220
  H        3.4438230    -0.7947010     1.0711420
  H        3.9529480     0.0571610    -0.3968850
  H        3.1464960    -1.5284770    -0.5179270
units angstrom
no_reorient  #important for SAPT in psi4, default
symmetry c1  #important for SAPT in psi4, default
}

set PROPERTIES_ORIGIN ["COM"]
properties('MP2/aug-cc-pvtz', properties = ['dipole'])
--------------------------------------------------------------------------

    Molecular point group: c1
  Charge       = 0
  Multiplicity = 1
  Basis Set: AUG-CC-PVTZ
    Blend: AUG-CC-PVTZ
  Basis Set: (AUG-CC-PVTZ AUX)
    Blend: AUG-CC-PVTZ-JKFIT

    Orbital Energies [Eh]
    ---------------------

    Doubly Occupied:

       1A    -20.628956     2A    -20.534849     3A    -15.619169
       4A    -11.371033     5A    -11.339576     6A    -11.286034
       7A    -11.250613     8A    -11.236878     9A    -11.220700
      10A     -1.460073    11A     -1.389502    12A     -1.255155
      13A     -1.085995    14A     -1.035692    15A     -0.975452
      16A     -0.850135    17A     -0.805018    18A     -0.769709
      19A     -0.741647    20A     -0.684165    21A     -0.657134
      22A     -0.646122    23A     -0.620073    24A     -0.601950
      25A     -0.576695    26A     -0.569765    27A     -0.566212
      28A     -0.550175    29A     -0.542811    30A     -0.454824
      31A     -0.439623    32A     -0.400939    33A     -0.294093

  @DF-RHF Final Energy:  -435.60290642332694

   => Energetics <=

    Nuclear Repulsion Energy =            427.4651580987136299
    One-Electron Energy =               -1441.2145915633955155
    Two-Electron Energy =                 578.1465270413550570
    Total Energy =                       -435.6029064233268855
  Basis Set: (AUG-CC-PVTZ AUX)
    Blend: AUG-CC-PVTZ-RI
    Molecular point group: c1

    Geometry (in Angstrom), charge = 0, multiplicity = 1:

       Center              X                  Y                   Z               Mass
    ------------   -----------------  -----------------  -----------------  -----------------
         O           -1.443083451397    -1.196508329341    -0.009235973537    15.994914619570
         O            1.812169048603     1.378598270659    -0.019956473537    15.994914619570
         N            0.781116048603    -0.660292729341    -0.019949473537    14.003074004430
         C           -0.526868951397    -0.184698729341    -0.004500473537    12.000000000000
         C           -1.112320951397     1.051401270659     0.011998526463    12.000000000000
         C            1.893674048603     0.151381270659    -0.018767473537    12.000000000000
         C           -2.521220951397     0.797137270659     0.019065526463    12.000000000000
         C           -2.688015951397    -0.555322729341     0.006287526463    12.000000000000
         C            3.209635048603    -0.593615729341     0.031652526463    12.000000000000
         H            0.886742048603    -1.667798729341    -0.019811473537     1.007825032230
         H           -0.594153951397     1.996210270659     0.016865526463     1.007825032230
         H           -3.311580951397     1.535268270659     0.031989526463     1.007825032230
         H           -3.541562951397    -1.215292729341     0.006027526463     1.007825032230
         H            3.472273048603    -0.805115729341     1.072647526463     1.007825032230
         H            3.981398048603     0.046746270659    -0.395379473537     1.007825032230
         H            3.174946048603    -1.538891729341    -0.516421473537     1.007825032230

  Basis Set: AUG-CC-PVTZ
    Blend: AUG-CC-PVTZ
  Basis Set: (AUG-CC-PVTZ AUX)
    Blend: AUG-CC-PVTZ-JKFIT
	 Reference Energy          =    -435.6029064233269423 [Eh]
	 Singles Energy            =      -0.0000000000000000 [Eh]
	 Same-Spin Energy          =      -0.4468916194512850 [Eh]
	 Opposite-Spin Energy      =      -1.3697070565085609 [Eh]
	 Correlation Energy        =      -1.8165986759598458 [Eh]
	 Total Energy              =    -437.4195050992867664 [Eh]

	 ================> DF-SCS-MP2 Energies <==================
	-----------------------------------------------------------
	 SCS Same-Spin Scale       =       0.3333333333333333 [-]
	 SCS Opposite-Spin Scale   =       1.2000000000000000 [-]
	 SCS Same-Spin Energy      =      -0.1489638731504283 [Eh]
	 SCS Opposite-Spin Energy  =      -1.6436484678102732 [Eh]
	 SCS Correlation Energy    =      -1.7926123409607015 [Eh]
	 SCS Total Energy          =    -437.3955187642876581 [Eh]
	-----------------------------------------------------------

  Dipole Moment: [D]
     X:     0.1139      Y:    -2.8774      Z:     0.0791     Total:     2.8807

*** Psi4 exiting successfully. Buy a developer a beer!
