                               Psi4 1.3.2 release

  ==> Input File <==

--------------------------------------------------------------------------
#psi4
#
memory 32 gb

molecule  {
0 1
  O       -1.5232299    -1.1367620    -0.0098195
  O        1.7837190     1.3890130    -0.0214620
  N        0.7526660    -0.6498780    -0.0214550
  C       -0.5553190    -0.1742840    -0.0060060
  C       -1.1407710     1.0618160     0.0104930
  C        1.8652240     0.1617960    -0.0202730
  C       -2.5496710     0.8075520     0.0175600
  C       -2.7164660    -0.5449080     0.0047820
  C        3.1811850    -0.5832010     0.0301470
  H        0.8582920    -1.6573840    -0.0213170
  H       -0.6226040     2.0066250     0.0153600
  H       -3.3400310     1.5456830     0.0304840
  H       -3.5700130    -1.2048780     0.0045220
  H        3.4438230    -0.7947010     1.0711420
  H        3.9529480     0.0571610    -0.3968850
  H        3.1464960    -1.5284770    -0.5179270
units angstrom
no_reorient  #important for SAPT in psi4, default
symmetry c1  #important for SAPT in psi4, default
}

set PROPERTIES_ORIGIN ["COM"]
properties('MP2/aug-cc-pvtz', properties = ['dipole'])
--------------------------------------------------------------------------

    Molecular point group: c1
  Charge       = 0
  Multiplicity = 1
  Basis Set: AUG-CC-PVTZ
    Blend: AUG-CC-PVTZ
  Basis Set: (AUG-CC-PVTZ AUX)
    Blend: AUG-CC-PVTZ-JKFIT

    Orbital Energies [Eh]
    ---------------------

    Doubly Occupied:

       1A    -20.630266     2A    -20.535212     3A    -15.621292
       4A    -11.372063     5A    -11.336819     6A    -11.281871
       7A    -11.251308     8A    -11.228062     9A    -11.220270
      10A     -1.480941    11A     -1.390563    12A     -1.258351
      13A     -1.080444    14A     -1.038854    15A     -0.983038
      16A     -0.850375    17A     -0.808720    18A     -0.773448
      19A     -0.743400    20A     -0.685937    21A     -0.665068
      22A     -0.657483    23A     -0.624184    24A     -0.603220
      25A     -0.575729    26A     -0.569442    27A     -0.562961
      28A     -0.545754    29A     -0.543369    30A     -0.457514
      31A     -0.440341    32A     -0.393653    33A     -0.292854

  @DF-RHF Final Energy:  -435.60405930647613

   => Energetics <=

    Nuclear Repulsion Energy =            428.6176376463361635
    One-Electron Energy =               -1443.4377783706952414
    Two-Electron Energy =                 579.2160814178830606
    Total Energy =                       -435.6040593064760742
  Basis Set: (AUG-CC-PVTZ AUX)
    Blend: AUG-CC-PVTZ-RI
    Molecular point group: c1

    Geometry (in Angstrom), charge = 0, multiplicity = 1:

       Center              X                  Y                   Z               Mass
    ------------   -----------------  -----------------  -----------------  -----------------
         O           -1.488167337560    -1.153486760360    -0.008431907044    15.994914619570
         O            1.818781562440     1.372288239640    -0.020074407044    15.994914619570
         N            0.787728562440    -0.666602760360    -0.020067407044    14.003074004430
         C           -0.520256437560    -0.191008760360    -0.004618407044    12.000000000000
         C           -1.105708437560     1.045091239640     0.011880592956    12.000000000000
         C            1.900286562440     0.145071239640    -0.018885407044    12.000000000000
         C           -2.514608437560     0.790827239640     0.018947592956    12.000000000000
         C           -2.681403437560    -0.561632760360     0.006169592956    12.000000000000
         C            3.216247562440    -0.599925760360     0.031534592956    12.000000000000
         H            0.893354562440    -1.674108760360    -0.019929407044     1.007825032230
         H           -0.587541437560     1.989900239640     0.016747592956     1.007825032230
         H           -3.304968437560     1.528958239640     0.031871592956     1.007825032230
         H           -3.534950437560    -1.221602760360     0.005909592956     1.007825032230
         H            3.478885562440    -0.811425760360     1.072529592956     1.007825032230
         H            3.988010562440     0.040436239640    -0.395497407044     1.007825032230
         H            3.181558562440    -1.545201760360    -0.516539407044     1.007825032230

  Basis Set: AUG-CC-PVTZ
    Blend: AUG-CC-PVTZ
  Basis Set: (AUG-CC-PVTZ AUX)
    Blend: AUG-CC-PVTZ-JKFIT
	 Reference Energy          =    -435.6040593064761310 [Eh]
	 Singles Energy            =      -0.0000000000000000 [Eh]
	 Same-Spin Energy          =      -0.4470055720631502 [Eh]
	 Opposite-Spin Energy      =      -1.3680793939948250 [Eh]
	 Correlation Energy        =      -1.8150849660579753 [Eh]
	 Total Energy              =    -437.4191442725340835 [Eh]

	 ================> DF-SCS-MP2 Energies <==================
	-----------------------------------------------------------
	 SCS Same-Spin Scale       =       0.3333333333333333 [-]
	 SCS Opposite-Spin Scale   =       1.2000000000000000 [-]
	 SCS Same-Spin Energy      =      -0.1490018573543834 [Eh]
	 SCS Opposite-Spin Energy  =      -1.6416952727937899 [Eh]
	 SCS Correlation Energy    =      -1.7906971301481733 [Eh]
	 SCS Total Energy          =    -437.3947564366242773 [Eh]
	-----------------------------------------------------------

  Dipole Moment: [D]
     X:     0.2607      Y:    -3.0890      Z:     0.0759     Total:     3.1009

*** Psi4 exiting successfully. Buy a developer a beer!
