                               Psi4 1.3.2 release

  ==> Input File <==

--------------------------------------------------------------------------
#psi4
#
memory 32 gb

molecule  {
0 1
  O       -1.4890520    -1.1699510    -0.0104640
  O        1.7837190     1.3890130    -0.0214620
  N        0.7526660    -0.6498780    -0.0214550
  C       -0.5553190    -0.1742840    -0.0060060
  C       -1.1407710     1.0618160     0.0104930
  C        1.8362193     0.2001293    -0.0203052
  C       -2.5496710     0.8075520     0.0175600
  C       -2.7164660    -0.5449080     0.0047820
  C        3.1811850    -0.5832010     0.0301470
  H        0.8582920    -1.6573840    -0.0213170
  H       -0.6226040     2.0066250     0.0153600
  H       -3.3400310     1.5456830     0.0304840
  H       -3.5700130    -1.2048780     0.0045220
  H        3.4438230    -0.7947010     1.0711420
  H        3.9529480     0.0571610    -0.3968850
  H        3.1464960    -1.5284770    -0.5179270
units angstrom
no_reorient  #important for SAPT in psi4, default
symmetry c1  #important for SAPT in psi4, default
}

set PROPERTIES_ORIGIN ["COM"]
properties('MP2/aug-cc-pvtz', properties = ['dipole'])
--------------------------------------------------------------------------

    Molecular point group: c1
  Charge       = 0
  Multiplicity = 1
  Basis Set: AUG-CC-PVTZ
    Blend: AUG-CC-PVTZ
  Basis Set: (AUG-CC-PVTZ AUX)
    Blend: AUG-CC-PVTZ-JKFIT

    Orbital Energies [Eh]
    ---------------------

    Doubly Occupied:

       1A    -20.628993     2A    -20.540837     3A    -15.617535
       4A    -11.368948     5A    -11.338134     6A    -11.284099
       7A    -11.247566     8A    -11.234068     9A    -11.220391
      10A     -1.466372    11A     -1.415635    12A     -1.260249
      13A     -1.084022    14A     -1.026547    15A     -0.973260
      16A     -0.850586    17A     -0.804420    18A     -0.772606
      19A     -0.742827    20A     -0.687019    21A     -0.659799
      22A     -0.650361    23A     -0.620384    24A     -0.611263
      25A     -0.576636    26A     -0.565858    27A     -0.564367
      28A     -0.548735    29A     -0.547354    30A     -0.465727
      31A     -0.438102    32A     -0.398711    33A     -0.293553

  @DF-RHF Final Energy:  -435.60459822651671

   => Energetics <=

    Nuclear Repulsion Energy =            428.3235068999209147
    One-Electron Energy =               -1442.8462802464059678
    Two-Electron Energy =                 578.9181751199683958
    Total Energy =                       -435.6045982265167140
  Basis Set: (AUG-CC-PVTZ AUX)
    Blend: AUG-CC-PVTZ-RI
    Molecular point group: c1

    Geometry (in Angstrom), charge = 0, multiplicity = 1:

       Center              X                  Y                   Z               Mass
    ------------   -----------------  -----------------  -----------------  -----------------
         O           -1.455577761268    -1.186109131518    -0.008990878687    15.994914619570
         O            1.817193238732     1.372854868482    -0.019988878687    15.994914619570
         N            0.786140238732    -0.666036131518    -0.019981878687    14.003074004430
         C           -0.521844761268    -0.190442131518    -0.004532878687    12.000000000000
         C           -1.107296761268     1.045657868482     0.011966121313    12.000000000000
         C            1.869693538732     0.183971168482    -0.018832078687    12.000000000000
         C           -2.516196761268     0.791393868482     0.019033121313    12.000000000000
         C           -2.682991761268    -0.561066131518     0.006255121313    12.000000000000
         C            3.214659238732    -0.599359131518     0.031620121313    12.000000000000
         H            0.891766238732    -1.673542131518    -0.019843878687     1.007825032230
         H           -0.589129761268     1.990466868482     0.016833121313     1.007825032230
         H           -3.306556761268     1.529524868482     0.031957121313     1.007825032230
         H           -3.536538761268    -1.221036131518     0.005995121313     1.007825032230
         H            3.477297238732    -0.810859131518     1.072615121313     1.007825032230
         H            3.986422238732     0.041002868482    -0.395411878687     1.007825032230
         H            3.179970238732    -1.544635131518    -0.516453878687     1.007825032230

  Basis Set: AUG-CC-PVTZ
    Blend: AUG-CC-PVTZ
  Basis Set: (AUG-CC-PVTZ AUX)
    Blend: AUG-CC-PVTZ-JKFIT
	 Reference Energy          =    -435.6045982265167140 [Eh]
	 Singles Energy            =      -0.0000000000000000 [Eh]
	 Same-Spin Energy          =      -0.4458568806846168 [Eh]
	 Opposite-Spin Energy      =      -1.3671877993854631 [Eh]
	 Correlation Energy        =      -1.8130446800700799 [Eh]
	 Total Energy              =    -437.4176429065868206 [Eh]

	 ================> DF-SCS-MP2 Energies <==================
	-----------------------------------------------------------
	 SCS Same-Spin Scale       =       0.3333333333333333 [-]
	 SCS Opposite-Spin Scale   =       1.2000000000000000 [-]
	 SCS Same-Spin Energy      =      -0.1486189602282056 [Eh]
	 SCS Opposite-Spin Energy  =      -1.6406253592625557 [Eh]
	 SCS Correlation Energy    =      -1.7892443194907612 [Eh]
	 SCS Total Energy          =    -437.3938425460074768 [Eh]
	-----------------------------------------------------------

  Dipole Moment: [D]
     X:     0.0916      Y:    -2.7233      Z:     0.0695     Total:     2.7257

*** Psi4 exiting successfully. Buy a developer a beer!
