                               Psi4 1.3.2 release

  ==> Input File <==

--------------------------------------------------------------------------
#psi4
#
memory 32 gb

molecule  {
0 1
  O       -1.4890520    -1.1699510    -0.0104640
  O        1.7837190     1.3890130    -0.0214620
  N        0.7526660    -0.6498780    -0.0214550
  C       -0.5380850    -0.1907296    -0.0063038
  C       -1.1407710     1.0618160     0.0104930
  C        1.8652240     0.1617960    -0.0202730
  C       -2.5496710     0.8075520     0.0175600
  C       -2.7164660    -0.5449080     0.0047820
  C        3.1811850    -0.5832010     0.0301470
  H        0.8582920    -1.6573840    -0.0213170
  H       -0.6226040     2.0066250     0.0153600
  H       -3.3400310     1.5456830     0.0304840
  H       -3.5700130    -1.2048780     0.0045220
  H        3.4438230    -0.7947010     1.0711420
  H        3.9529480     0.0571610    -0.3968850
  H        3.1464960    -1.5284770    -0.5179270
units angstrom
no_reorient  #important for SAPT in psi4, default
symmetry c1  #important for SAPT in psi4, default
}

set PROPERTIES_ORIGIN ["COM"]
properties('MP2/aug-cc-pvtz', properties = ['dipole'])
--------------------------------------------------------------------------

    Molecular point group: c1
  Charge       = 0
  Multiplicity = 1
  Basis Set: AUG-CC-PVTZ
    Blend: AUG-CC-PVTZ
  Basis Set: (AUG-CC-PVTZ AUX)
    Blend: AUG-CC-PVTZ-JKFIT

    Orbital Energies [Eh]
    ---------------------

    Doubly Occupied:

       1A    -20.629105     2A    -20.536995     3A    -15.622083
       4A    -11.373309     5A    -11.340287     6A    -11.283003
       7A    -11.252177     8A    -11.233094     9A    -11.221066
      10A     -1.465559    11A     -1.392121    12A     -1.263609
      13A     -1.078957    14A     -1.038948    15A     -0.976513
      16A     -0.853359    17A     -0.808144    18A     -0.771246
      19A     -0.741552    20A     -0.685866    21A     -0.660405
      22A     -0.652493    23A     -0.622115    24A     -0.604540
      25A     -0.575366    26A     -0.569525    27A     -0.562734
      28A     -0.546363    29A     -0.545189    30A     -0.458790
      31A     -0.441754    32A     -0.396055    33A     -0.288828

  @DF-RHF Final Energy:  -435.60252622408376

   => Energetics <=

    Nuclear Repulsion Energy =            427.8165471476591506
    One-Electron Energy =               -1441.8558502094604137
    Two-Electron Energy =                 578.4367768377176162
    Total Energy =                       -435.6025262240837037
  Basis Set: (AUG-CC-PVTZ AUX)
    Blend: AUG-CC-PVTZ-RI
    Molecular point group: c1

    Geometry (in Angstrom), charge = 0, multiplicity = 1:

       Center              X                  Y                   Z               Mass
    ------------   -----------------  -----------------  -----------------  -----------------
         O           -1.460014983989    -1.180852362195    -0.008965390809    15.994914619570
         O            1.812756016011     1.378111637805    -0.019963390809    15.994914619570
         N            0.781703016011    -0.660779362195    -0.019956390809    14.003074004430
         C           -0.509047983989    -0.201630962195    -0.004805190809    12.000000000000
         C           -1.111733983989     1.050914637805     0.011991609191    12.000000000000
         C            1.894261016011     0.150894637805    -0.018774390809    12.000000000000
         C           -2.520633983989     0.796650637805     0.019058609191    12.000000000000
         C           -2.687428983989    -0.555809362195     0.006280609191    12.000000000000
         C            3.210222016011    -0.594102362195     0.031645609191    12.000000000000
         H            0.887329016011    -1.668285362195    -0.019818390809     1.007825032230
         H           -0.593566983989     1.995723637805     0.016858609191     1.007825032230
         H           -3.310993983989     1.534781637805     0.031982609191     1.007825032230
         H           -3.540975983989    -1.215779362195     0.006020609191     1.007825032230
         H            3.472860016011    -0.805602362195     1.072640609191     1.007825032230
         H            3.981985016011     0.046259637805    -0.395386390809     1.007825032230
         H            3.175533016011    -1.539378362195    -0.516428390809     1.007825032230

  Basis Set: AUG-CC-PVTZ
    Blend: AUG-CC-PVTZ
  Basis Set: (AUG-CC-PVTZ AUX)
    Blend: AUG-CC-PVTZ-JKFIT
	 Reference Energy          =    -435.6025262240837606 [Eh]
	 Singles Energy            =      -0.0000000000000000 [Eh]
	 Same-Spin Energy          =      -0.4474074855151407 [Eh]
	 Opposite-Spin Energy      =      -1.3696445389095233 [Eh]
	 Correlation Energy        =      -1.8170520244246640 [Eh]
	 Total Energy              =    -437.4195782485084010 [Eh]

	 ================> DF-SCS-MP2 Energies <==================
	-----------------------------------------------------------
	 SCS Same-Spin Scale       =       0.3333333333333333 [-]
	 SCS Opposite-Spin Scale   =       1.2000000000000000 [-]
	 SCS Same-Spin Energy      =      -0.1491358285050469 [Eh]
	 SCS Opposite-Spin Energy  =      -1.6435734466914280 [Eh]
	 SCS Correlation Energy    =      -1.7927092751964748 [Eh]
	 SCS Total Energy          =    -437.3952354992802611 [Eh]
	-----------------------------------------------------------

  Dipole Moment: [D]
     X:     0.2771      Y:    -2.9959      Z:     0.0767     Total:     3.0097

*** Psi4 exiting successfully. Buy a developer a beer!
