                               Psi4 1.3.2 release

  ==> Input File <==

--------------------------------------------------------------------------
#psi4
#
memory 32 gb

molecule  {
0 1
  O       -1.4890520    -1.1699510    -0.0104640
  O        1.7837190     1.3890130    -0.0214620
  N        0.7526660    -0.6498780    -0.0214550
  C       -0.5728374    -0.1581416    -0.0057096
  C       -1.1407710     1.0618160     0.0104930
  C        1.8652240     0.1617960    -0.0202730
  C       -2.5496710     0.8075520     0.0175600
  C       -2.7164660    -0.5449080     0.0047820
  C        3.1811850    -0.5832010     0.0301470
  H        0.8582920    -1.6573840    -0.0213170
  H       -0.6226040     2.0066250     0.0153600
  H       -3.3400310     1.5456830     0.0304840
  H       -3.5700130    -1.2048780     0.0045220
  H        3.4438230    -0.7947010     1.0711420
  H        3.9529480     0.0571610    -0.3968850
  H        3.1464960    -1.5284770    -0.5179270
units angstrom
no_reorient  #important for SAPT in psi4, default
symmetry c1  #important for SAPT in psi4, default
}

set PROPERTIES_ORIGIN ["COM"]
properties('MP2/aug-cc-pvtz', properties = ['dipole'])
--------------------------------------------------------------------------

    Molecular point group: c1
  Charge       = 0
  Multiplicity = 1
  Basis Set: AUG-CC-PVTZ
    Blend: AUG-CC-PVTZ
  Basis Set: (AUG-CC-PVTZ AUX)
    Blend: AUG-CC-PVTZ-JKFIT

    Orbital Energies [Eh]
    ---------------------

    Doubly Occupied:

       1A    -20.629796     2A    -20.533055     3A    -15.617733
       4A    -11.369530     5A    -11.337130     6A    -11.286089
       7A    -11.249571     8A    -11.234918     9A    -11.219885
      10A     -1.467581    11A     -1.387769    12A     -1.249262
      13A     -1.089584    14A     -1.034552    15A     -0.979080
      16A     -0.847550    17A     -0.803920    18A     -0.771051
      19A     -0.742500    20A     -0.683575    21A     -0.658880
      22A     -0.646922    23A     -0.620812    24A     -0.600407
      25A     -0.579311    26A     -0.568630    27A     -0.567019
      28A     -0.550564    29A     -0.541559    30A     -0.452822
      31A     -0.438058    32A     -0.401087    33A     -0.298474

  @DF-RHF Final Energy:  -435.60420873889632

   => Energetics <=

    Nuclear Repulsion Energy =            427.8602117185340035
    One-Electron Energy =               -1442.0114884261238331
    Two-Electron Energy =                 578.5470679686935682
    Total Energy =                       -435.6042087388963182
  Basis Set: (AUG-CC-PVTZ AUX)
    Blend: AUG-CC-PVTZ-RI
    Molecular point group: c1

    Geometry (in Angstrom), charge = 0, multiplicity = 1:

       Center              X                  Y                   Z               Mass
    ------------   -----------------  -----------------  -----------------  -----------------
         O           -1.456680025634    -1.183979617373    -0.009022412259    15.994914619570
         O            1.816090974366     1.374984382627    -0.020020412259    15.994914619570
         N            0.785037974366    -0.663906617373    -0.020013412259    14.003074004430
         C           -0.540465425634    -0.172170217373    -0.004268012259    12.000000000000
         C           -1.108399025634     1.047787382627     0.011934587741    12.000000000000
         C            1.897595974366     0.147767382627    -0.018831412259    12.000000000000
         C           -2.517299025634     0.793523382627     0.019001587741    12.000000000000
         C           -2.684094025634    -0.558936617373     0.006223587741    12.000000000000
         C            3.213556974366    -0.597229617373     0.031588587741    12.000000000000
         H            0.890663974366    -1.671412617373    -0.019875412259     1.007825032230
         H           -0.590232025634     1.992596382627     0.016801587741     1.007825032230
         H           -3.307659025634     1.531654382627     0.031925587741     1.007825032230
         H           -3.537641025634    -1.218906617373     0.005963587741     1.007825032230
         H            3.476194974366    -0.808729617373     1.072583587741     1.007825032230
         H            3.985319974366     0.043132382627    -0.395443412259     1.007825032230
         H            3.178867974366    -1.542505617373    -0.516485412259     1.007825032230

  Basis Set: AUG-CC-PVTZ
    Blend: AUG-CC-PVTZ
  Basis Set: (AUG-CC-PVTZ AUX)
    Blend: AUG-CC-PVTZ-JKFIT
	 Reference Energy          =    -435.6042087388963182 [Eh]
	 Singles Energy            =      -0.0000000000000000 [Eh]
	 Same-Spin Energy          =      -0.4464508886994792 [Eh]
	 Opposite-Spin Energy      =      -1.3686978983133424 [Eh]
	 Correlation Energy        =      -1.8151487870128218 [Eh]
	 Total Energy              =    -437.4193575259091631 [Eh]

	 ================> DF-SCS-MP2 Energies <==================
	-----------------------------------------------------------
	 SCS Same-Spin Scale       =       0.3333333333333333 [-]
	 SCS Opposite-Spin Scale   =       1.2000000000000000 [-]
	 SCS Same-Spin Energy      =      -0.1488169628998264 [Eh]
	 SCS Opposite-Spin Energy  =      -1.6424374779760109 [Eh]
	 SCS Correlation Energy    =      -1.7912544408758373 [Eh]
	 SCS Total Energy          =    -437.3954631797721504 [Eh]
	-----------------------------------------------------------

  Dipole Moment: [D]
     X:     0.0480      Y:    -2.8939      Z:     0.0795     Total:     2.8954

*** Psi4 exiting successfully. Buy a developer a beer!
