                               Psi4 1.4a3.dev225

  ==> Input File <==

--------------------------------------------------------------------------
#psi4
#
memory 32 gb

molecule  {
0 1
  O       -1.4890520    -1.1699510    -0.0104640
  O        1.7837190     1.3890130    -0.0214620
  N        0.7526660    -0.6498780    -0.0214550
  C       -0.5365241    -0.1811180    -0.0062280
  C       -1.1407710     1.0618160     0.0104930
  C        1.8652240     0.1617960    -0.0202730
  C       -2.5496710     0.8075520     0.0175600
  C       -2.7164660    -0.5449080     0.0047820
  C        3.1811850    -0.5832010     0.0301470
  H        0.8582920    -1.6573840    -0.0213170
  H       -0.6226040     2.0066250     0.0153600
  H       -3.3400310     1.5456830     0.0304840
  H       -3.5700130    -1.2048780     0.0045220
  H        3.4438230    -0.7947010     1.0711420
  H        3.9529480     0.0571610    -0.3968850
  H        3.1464960    -1.5284770    -0.5179270
units angstrom
no_reorient  #important for SAPT in psi4, default
symmetry c1  #important for SAPT in psi4, default
}

set PROPERTIES_ORIGIN ["COM"]
properties('MP2/aug-cc-pvtz', properties = ['dipole'])
--------------------------------------------------------------------------

    Molecular point group: c1
  Charge       = 0
  Multiplicity = 1
  Basis Set: AUG-CC-PVTZ
    Blend: AUG-CC-PVTZ
  Basis Set: (AUG-CC-PVTZ AUX)
    Blend: AUG-CC-PVTZ-JKFIT

    Orbital Energies [Eh]
    ---------------------

    Doubly Occupied:

       1A    -20.627825     2A    -20.536818     3A    -15.621864
       4A    -11.372981     5A    -11.339573     6A    -11.283584
       7A    -11.251977     8A    -11.232998     9A    -11.221081
      10A     -1.462369    11A     -1.391945    12A     -1.262852
      13A     -1.079945    14A     -1.038529    15A     -0.976561
      16A     -0.852910    17A     -0.807678    18A     -0.770832
      19A     -0.741294    20A     -0.685757    21A     -0.659064
      22A     -0.651559    23A     -0.621526    24A     -0.604210
      25A     -0.575142    26A     -0.569836    27A     -0.562288
      28A     -0.546789    29A     -0.545602    30A     -0.458705
      31A     -0.441553    32A     -0.396471    33A     -0.290121

  @DF-RHF Final Energy:  -435.60278987515017

   => Energetics <=

    Nuclear Repulsion Energy =            427.7979900374777458
    One-Electron Energy =               -1441.8370844876342289
    Two-Electron Energy =                 578.4363045750062611
    Total Energy =                       -435.6027898751501652
  Basis Set: (AUG-CC-PVTZ AUX)
    Blend: AUG-CC-PVTZ-RI
    Molecular point group: c1

    Geometry (in Angstrom), charge = 0, multiplicity = 1:

       Center              X                  Y                   Z               Mass
    ------------   -----------------  -----------------  -----------------  -----------------
         O           -1.460164773255    -1.181774723981    -0.008972664835    15.994914619570
         O            1.812606226745     1.377189276019    -0.019970664835    15.994914619570
         N            0.781553226745    -0.661701723981    -0.019963664835    14.003074004430
         C           -0.507636873255    -0.192941723981    -0.004736664835    12.000000000000
         C           -1.111883773255     1.049992276019     0.011984335165    12.000000000000
         C            1.894111226745     0.149972276019    -0.018781664835    12.000000000000
         C           -2.520783773255     0.795728276019     0.019051335165    12.000000000000
         C           -2.687578773255    -0.556731723981     0.006273335165    12.000000000000
         C            3.210072226745    -0.595024723981     0.031638335165    12.000000000000
         H            0.887179226745    -1.669207723981    -0.019825664835     1.007825032230
         H           -0.593716773255     1.994801276019     0.016851335165     1.007825032230
         H           -3.311143773255     1.533859276019     0.031975335165     1.007825032230
         H           -3.541125773255    -1.216701723981     0.006013335165     1.007825032230
         H            3.472710226745    -0.806524723981     1.072633335165     1.007825032230
         H            3.981835226745     0.045337276019    -0.395393664835     1.007825032230
         H            3.175383226745    -1.540300723981    -0.516435664835     1.007825032230

  Basis Set: AUG-CC-PVTZ
    Blend: AUG-CC-PVTZ
  Basis Set: (AUG-CC-PVTZ AUX)
    Blend: AUG-CC-PVTZ-JKFIT
	 Reference Energy          =    -435.6027898751501652 [Eh]
	 Singles Energy            =      -0.0000000000000000 [Eh]
	 Same-Spin Energy          =      -0.4473116684727024 [Eh]
	 Opposite-Spin Energy      =      -1.3696719055370747 [Eh]
	 Correlation Energy        =      -1.8169835740097771 [Eh]
	 Total Energy              =    -437.4197734491599476 [Eh]

	 ================> DF-SCS-MP2 Energies <==================
	-----------------------------------------------------------
	 SCS Same-Spin Scale       =       0.3333333333333333 [-]
	 SCS Opposite-Spin Scale   =       1.2000000000000000 [-]
	 SCS Same-Spin Energy      =      -0.1491038894909008 [Eh]
	 SCS Opposite-Spin Energy  =      -1.6436062866444896 [Eh]
	 SCS Correlation Energy    =      -1.7927101761353903 [Eh]
	 SCS Total Energy          =    -437.3955000512855804 [Eh]
	-----------------------------------------------------------

  Dipole Moment: [D]
     X:     0.2752      Y:    -2.9741      Z:     0.0770     Total:     2.9878

*** Psi4 exiting successfully. Buy a developer a beer!
