                               Psi4 1.3.2 release

  ==> Input File <==

--------------------------------------------------------------------------
#psi4
#
memory 32 gb

molecule  {
0 1
  O       -1.4890520    -1.1699510    -0.0104640
  O        1.7837190     1.3890130    -0.0214620
  N        0.7526660    -0.6498780    -0.0214550
  C       -0.5189612    -0.0841958    -0.0065831
  C       -1.1407710     1.0618160     0.0104930
  C        1.8652240     0.1617960    -0.0202730
  C       -2.5496710     0.8075520     0.0175600
  C       -2.7164660    -0.5449080     0.0047820
  C        3.1811850    -0.5832010     0.0301470
  H        0.8582920    -1.6573840    -0.0213170
  H       -0.6226040     2.0066250     0.0153600
  H       -3.3400310     1.5456830     0.0304840
  H       -3.5700130    -1.2048780     0.0045220
  H        3.4438230    -0.7947010     1.0711420
  H        3.9529480     0.0571610    -0.3968850
  H        3.1464960    -1.5284770    -0.5179270
units angstrom
no_reorient  #important for SAPT in psi4, default
symmetry c1  #important for SAPT in psi4, default
}

set PROPERTIES_ORIGIN ["COM"]
properties('MP2/aug-cc-pvtz', properties = ['dipole'])
--------------------------------------------------------------------------

    Molecular point group: c1
  Charge       = 0
  Multiplicity = 1
  Basis Set: AUG-CC-PVTZ
    Blend: AUG-CC-PVTZ
  Basis Set: (AUG-CC-PVTZ AUX)
    Blend: AUG-CC-PVTZ-JKFIT

    Orbital Energies [Eh]
    ---------------------

    Doubly Occupied:

       1A    -20.614497     2A    -20.535664     3A    -15.620706
       4A    -11.370364     5A    -11.333618     6A    -11.288563
       7A    -11.250376     8A    -11.231738     9A    -11.220154
      10A     -1.432951    11A     -1.390544    12A     -1.255820
      13A     -1.092593    14A     -1.034376    15A     -0.978398
      16A     -0.847655    17A     -0.804840    18A     -0.768072
      19A     -0.738786    20A     -0.684937    21A     -0.648513
      22A     -0.643309    23A     -0.614807    24A     -0.601660
      25A     -0.577587    26A     -0.570331    27A     -0.558423
      28A     -0.545449    29A     -0.543815    30A     -0.458815
      31A     -0.440043    32A     -0.402007    33A     -0.302204

  @DF-RHF Final Energy:  -435.59307015822554

   => Energetics <=

    Nuclear Repulsion Energy =            427.6434189903978904
    One-Electron Energy =               -1441.6697535829441676
    Two-Electron Energy =                 578.4332644343206766
    Total Energy =                       -435.5930701582256006
  Basis Set: (AUG-CC-PVTZ AUX)
    Blend: AUG-CC-PVTZ-RI
    Molecular point group: c1

    Geometry (in Angstrom), charge = 0, multiplicity = 1:

       Center              X                  Y                   Z               Mass
    ------------   -----------------  -----------------  -----------------  -----------------
         O           -1.461850168798    -1.191075707528    -0.008938588232    15.994914619570
         O            1.810920831202     1.367888292472    -0.019936588232    15.994914619570
         N            0.779867831202    -0.671002707528    -0.019929588232    14.003074004430
         C           -0.491759368798    -0.105320507528    -0.005057688232    12.000000000000
         C           -1.113569168798     1.040691292472     0.012018411768    12.000000000000
         C            1.892425831202     0.140671292472    -0.018747588232    12.000000000000
         C           -2.522469168798     0.786427292472     0.019085411768    12.000000000000
         C           -2.689264168798    -0.566032707528     0.006307411768    12.000000000000
         C            3.208386831202    -0.604325707528     0.031672411768    12.000000000000
         H            0.885493831202    -1.678508707528    -0.019791588232     1.007825032230
         H           -0.595402168798     1.985500292472     0.016885411768     1.007825032230
         H           -3.312829168798     1.524558292472     0.032009411768     1.007825032230
         H           -3.542811168798    -1.226002707528     0.006047411768     1.007825032230
         H            3.471024831202    -0.815825707528     1.072667411768     1.007825032230
         H            3.980149831202     0.036036292472    -0.395359588232     1.007825032230
         H            3.173697831202    -1.549601707528    -0.516401588232     1.007825032230

  Basis Set: AUG-CC-PVTZ
    Blend: AUG-CC-PVTZ
  Basis Set: (AUG-CC-PVTZ AUX)
    Blend: AUG-CC-PVTZ-JKFIT
	 Reference Energy          =    -435.5930701582255438 [Eh]
	 Singles Energy            =      -0.0000000000000000 [Eh]
	 Same-Spin Energy          =      -0.4465762216203257 [Eh]
	 Opposite-Spin Energy      =      -1.3703283181271644 [Eh]
	 Correlation Energy        =      -1.8169045397474901 [Eh]
	 Total Energy              =    -437.4099746979730412 [Eh]

	 ================> DF-SCS-MP2 Energies <==================
	-----------------------------------------------------------
	 SCS Same-Spin Scale       =       0.3333333333333333 [-]
	 SCS Opposite-Spin Scale   =       1.2000000000000000 [-]
	 SCS Same-Spin Energy      =      -0.1488587405401086 [Eh]
	 SCS Opposite-Spin Energy  =      -1.6443939817525972 [Eh]
	 SCS Correlation Energy    =      -1.7932527222927057 [Eh]
	 SCS Total Energy          =    -437.3863228805182644 [Eh]
	-----------------------------------------------------------

  Dipole Moment: [D]
     X:     0.2754      Y:    -2.7534      Z:     0.0800     Total:     2.7683

*** Psi4 exiting successfully. Buy a developer a beer!
