                               Psi4 1.3.2 release

  ==> Input File <==

--------------------------------------------------------------------------
#psi4
#
memory 32 gb

molecule  {
0 1
  O       -1.4715338    -1.1860931    -0.0107843
  O        1.7837190     1.3890130    -0.0214620
  N        0.7526660    -0.6498780    -0.0214550
  C       -0.5553190    -0.1742840    -0.0060060
  C       -1.1407710     1.0618160     0.0104930
  C        1.8652240     0.1617960    -0.0202730
  C       -2.5496710     0.8075520     0.0175600
  C       -2.7164660    -0.5449080     0.0047820
  C        3.1811850    -0.5832010     0.0301470
  H        0.8582920    -1.6573840    -0.0213170
  H       -0.6226040     2.0066250     0.0153600
  H       -3.3400310     1.5456830     0.0304840
  H       -3.5700130    -1.2048780     0.0045220
  H        3.4438230    -0.7947010     1.0711420
  H        3.9529480     0.0571610    -0.3968850
  H        3.1464960    -1.5284770    -0.5179270
units angstrom
no_reorient  #important for SAPT in psi4, default
symmetry c1  #important for SAPT in psi4, default
}

set PROPERTIES_ORIGIN ["COM"]
properties('MP2/aug-cc-pvtz', properties = ['dipole'])
--------------------------------------------------------------------------

    Molecular point group: c1
  Charge       = 0
  Multiplicity = 1
  Basis Set: AUG-CC-PVTZ
    Blend: AUG-CC-PVTZ
  Basis Set: (AUG-CC-PVTZ AUX)
    Blend: AUG-CC-PVTZ-JKFIT

    Orbital Energies [Eh]
    ---------------------

    Doubly Occupied:

       1A    -20.628956     2A    -20.534849     3A    -15.619169
       4A    -11.371033     5A    -11.339576     6A    -11.286034
       7A    -11.250613     8A    -11.236878     9A    -11.220700
      10A     -1.460073    11A     -1.389502    12A     -1.255155
      13A     -1.085995    14A     -1.035692    15A     -0.975452
      16A     -0.850135    17A     -0.805018    18A     -0.769709
      19A     -0.741647    20A     -0.684165    21A     -0.657134
      22A     -0.646122    23A     -0.620073    24A     -0.601950
      25A     -0.576695    26A     -0.569765    27A     -0.566212
      28A     -0.550175    29A     -0.542811    30A     -0.454824
      31A     -0.439623    32A     -0.400939    33A     -0.294093

  @DF-RHF Final Energy:  -435.60290641644031

   => Energetics <=

    Nuclear Repulsion Energy =            427.4651585096813733
    One-Electron Energy =               -1441.2145924627802742
    Two-Electron Energy =                 578.1465275366585956
    Total Energy =                       -435.6029064164403053
  Basis Set: (AUG-CC-PVTZ AUX)
    Blend: AUG-CC-PVTZ-RI
    Molecular point group: c1

    Geometry (in Angstrom), charge = 0, multiplicity = 1:

       Center              X                  Y                   Z               Mass
    ------------   -----------------  -----------------  -----------------  -----------------
         O           -1.443083713024    -1.196507893296    -0.009273298966    15.994914619570
         O            1.812169086976     1.378598206704    -0.019950998966    15.994914619570
         N            0.781116086976    -0.660292793296    -0.019943998966    14.003074004430
         C           -0.526868913024    -0.184698793296    -0.004494998966    12.000000000000
         C           -1.112320913024     1.051401206704     0.012004001034    12.000000000000
         C            1.893674086976     0.151381206704    -0.018761998966    12.000000000000
         C           -2.521220913024     0.797137206704     0.019071001034    12.000000000000
         C           -2.688015913024    -0.555322793296     0.006293001034    12.000000000000
         C            3.209635086976    -0.593615793296     0.031658001034    12.000000000000
         H            0.886742086976    -1.667798793296    -0.019805998966     1.007825032230
         H           -0.594153913024     1.996210206704     0.016871001034     1.007825032230
         H           -3.311580913024     1.535268206704     0.031995001034     1.007825032230
         H           -3.541562913024    -1.215292793296     0.006033001034     1.007825032230
         H            3.472273086976    -0.805115793296     1.072653001034     1.007825032230
         H            3.981398086976     0.046746206704    -0.395373998966     1.007825032230
         H            3.174946086976    -1.538891793296    -0.516415998966     1.007825032230

  Basis Set: AUG-CC-PVTZ
    Blend: AUG-CC-PVTZ
  Basis Set: (AUG-CC-PVTZ AUX)
    Blend: AUG-CC-PVTZ-JKFIT
	 Reference Energy          =    -435.6029064164403053 [Eh]
	 Singles Energy            =      -0.0000000000000000 [Eh]
	 Same-Spin Energy          =      -0.4468916218020604 [Eh]
	 Opposite-Spin Energy      =      -1.3697070588556495 [Eh]
	 Correlation Energy        =      -1.8165986806577099 [Eh]
	 Total Energy              =    -437.4195050970980105 [Eh]

	 ================> DF-SCS-MP2 Energies <==================
	-----------------------------------------------------------
	 SCS Same-Spin Scale       =       0.3333333333333333 [-]
	 SCS Opposite-Spin Scale   =       1.2000000000000000 [-]
	 SCS Same-Spin Energy      =      -0.1489638739340201 [Eh]
	 SCS Opposite-Spin Energy  =      -1.6436484706267793 [Eh]
	 SCS Correlation Energy    =      -1.7926123445607995 [Eh]
	 SCS Total Energy          =    -437.3955187610010853 [Eh]
	-----------------------------------------------------------

  Dipole Moment: [D]
     X:     0.1139      Y:    -2.8774      Z:     0.0791     Total:     2.8807

*** Psi4 exiting successfully. Buy a developer a beer!
