                               Psi4 1.3.2 release

  ==> Input File <==

--------------------------------------------------------------------------
#psi4
#
memory 32 gb

molecule  {
0 1
  O       -1.4890520    -1.1699510    -0.0104640
  O        1.7837190     1.3890130    -0.0214620
  N        0.7526660    -0.6498780    -0.0214550
  C       -0.5553190    -0.1742840    -0.0060060
  C       -1.1407710     1.0618160     0.0104930
  C        1.8928733     0.1224738    -0.0202422
  C       -2.5496710     0.8075520     0.0175600
  C       -2.7164660    -0.5449080     0.0047820
  C        3.1811850    -0.5832010     0.0301470
  H        0.8582920    -1.6573840    -0.0213170
  H       -0.6226040     2.0066250     0.0153600
  H       -3.3400310     1.5456830     0.0304840
  H       -3.5700130    -1.2048780     0.0045220
  H        3.4438230    -0.7947010     1.0711420
  H        3.9529480     0.0571610    -0.3968850
  H        3.1464960    -1.5284770    -0.5179270
units angstrom
no_reorient  #important for SAPT in psi4, default
symmetry c1  #important for SAPT in psi4, default
}

set PROPERTIES_ORIGIN ["COM"]
properties('MP2/aug-cc-pvtz', properties = ['dipole'])
--------------------------------------------------------------------------

    Molecular point group: c1
  Charge       = 0
  Multiplicity = 1
  Basis Set: AUG-CC-PVTZ
    Blend: AUG-CC-PVTZ
  Basis Set: (AUG-CC-PVTZ AUX)
    Blend: AUG-CC-PVTZ-JKFIT

    Orbital Energies [Eh]
    ---------------------

    Doubly Occupied:

       1A    -20.630036     2A    -20.529053     3A    -15.622769
       4A    -11.373990     5A    -11.339381     6A    -11.285242
       7A    -11.253220     8A    -11.234067     9A    -11.220941
      10A     -1.466918    11A     -1.367166    12A     -1.250809
      13A     -1.084352    14A     -1.048134    15A     -0.981754
      16A     -0.850331    17A     -0.807394    18A     -0.769980
      19A     -0.741697    20A     -0.685469    21A     -0.659757
      22A     -0.649854    23A     -0.624396    24A     -0.596415
      25A     -0.573834    26A     -0.572844    27A     -0.565424
      28A     -0.547809    29A     -0.540167    30A     -0.444706
      31A     -0.438097    32A     -0.398442    33A     -0.294050

  @DF-RHF Final Energy:  -435.59671179927881

   => Energetics <=

    Nuclear Repulsion Energy =            427.3896025249788408
    One-Electron Energy =               -1441.0756329657683636
    Two-Electron Energy =                 578.0893186415107721
    Total Energy =                       -435.5967117992787507
  Basis Set: (AUG-CC-PVTZ AUX)
    Blend: AUG-CC-PVTZ-RI
    Molecular point group: c1

    Geometry (in Angstrom), charge = 0, multiplicity = 1:

       Center              X                  Y                   Z               Mass
    ------------   -----------------  -----------------  -----------------  -----------------
         O           -1.461014471556    -1.178657045950    -0.008996924381    15.994914619570
         O            1.811756528444     1.380306954050    -0.019994924381    15.994914619570
         N            0.780703528444    -0.658584045950    -0.019987924381    14.003074004430
         C           -0.527281471556    -0.182990045950    -0.004538924381    12.000000000000
         C           -1.112733471556     1.053109954050     0.011960075619    12.000000000000
         C            1.920910828444     0.113767754050    -0.018775124381    12.000000000000
         C           -2.521633471556     0.798845954050     0.019027075619    12.000000000000
         C           -2.688428471556    -0.553614045950     0.006249075619    12.000000000000
         C            3.209222528444    -0.591907045950     0.031614075619    12.000000000000
         H            0.886329528444    -1.666090045950    -0.019849924381     1.007825032230
         H           -0.594566471556     1.997918954050     0.016827075619     1.007825032230
         H           -3.311993471556     1.536976954050     0.031951075619     1.007825032230
         H           -3.541975471556    -1.213584045950     0.005989075619     1.007825032230
         H            3.471860528444    -0.803407045950     1.072609075619     1.007825032230
         H            3.980985528444     0.048454954050    -0.395417924381     1.007825032230
         H            3.174533528444    -1.537183045950    -0.516459924381     1.007825032230

  Basis Set: AUG-CC-PVTZ
    Blend: AUG-CC-PVTZ
  Basis Set: (AUG-CC-PVTZ AUX)
    Blend: AUG-CC-PVTZ-JKFIT
	 Reference Energy          =    -435.5967117992788076 [Eh]
	 Singles Energy            =      -0.0000000000000000 [Eh]
	 Same-Spin Energy          =      -0.4481778628206246 [Eh]
	 Opposite-Spin Energy      =      -1.3714766236053006 [Eh]
	 Correlation Energy        =      -1.8196544864259252 [Eh]
	 Total Energy              =    -437.4163662857047257 [Eh]

	 ================> DF-SCS-MP2 Energies <==================
	-----------------------------------------------------------
	 SCS Same-Spin Scale       =       0.3333333333333333 [-]
	 SCS Opposite-Spin Scale   =       1.2000000000000000 [-]
	 SCS Same-Spin Energy      =      -0.1493926209402082 [Eh]
	 SCS Opposite-Spin Energy  =      -1.6457719483263606 [Eh]
	 SCS Correlation Energy    =      -1.7951645692665688 [Eh]
	 SCS Total Energy          =    -437.3918763685453541 [Eh]
	-----------------------------------------------------------

  Dipole Moment: [D]
     X:     0.2061      Y:    -3.1514      Z:     0.0868     Total:     3.1593

*** Psi4 exiting successfully. Buy a developer a beer!
