                               Psi4 1.3.2 release

  ==> Input File <==

--------------------------------------------------------------------------
#psi4
#
memory 32 gb

molecule  {
0 1
  O       -1.4890520    -1.1699510    -0.0104640
  O        1.7837190     1.3890130    -0.0214620
  N        0.7526660    -0.6498780    -0.0214550
  C       -0.5988171    -0.1939660    -0.0058451
  C       -1.1407710     1.0618160     0.0104930
  C        1.8652240     0.1617960    -0.0202730
  C       -2.5496710     0.8075520     0.0175600
  C       -2.7164660    -0.5449080     0.0047820
  C        3.1811850    -0.5832010     0.0301470
  H        0.8582920    -1.6573840    -0.0213170
  H       -0.6226040     2.0066250     0.0153600
  H       -3.3400310     1.5456830     0.0304840
  H       -3.5700130    -1.2048780     0.0045220
  H        3.4438230    -0.7947010     1.0711420
  H        3.9529480     0.0571610    -0.3968850
  H        3.1464960    -1.5284770    -0.5179270
units angstrom
no_reorient  #important for SAPT in psi4, default
symmetry c1  #important for SAPT in psi4, default
}

set PROPERTIES_ORIGIN ["COM"]
properties('MP2/aug-cc-pvtz', properties = ['dipole'])
--------------------------------------------------------------------------

    Molecular point group: c1
  Charge       = 0
  Multiplicity = 1
  Basis Set: AUG-CC-PVTZ
    Blend: AUG-CC-PVTZ
  Basis Set: (AUG-CC-PVTZ AUX)
    Blend: AUG-CC-PVTZ-JKFIT

    Orbital Energies [Eh]
    ---------------------

    Doubly Occupied:

       1A    -20.637215     2A    -20.531974     3A    -15.616531
       4A    -11.369339     5A    -11.339966     6A    -11.284500
       7A    -11.249287     8A    -11.236448     9A    -11.219685
      10A     -1.487827    11A     -1.386413    12A     -1.246041
      13A     -1.088998    14A     -1.034672    15A     -0.980108
      16A     -0.847459    17A     -0.805183    18A     -0.773689
      19A     -0.743763    20A     -0.682884    21A     -0.667570
      22A     -0.649598    23A     -0.622140    24A     -0.600761
      25A     -0.579979    26A     -0.574327    27A     -0.566386
      28A     -0.546057    29A     -0.540311    30A     -0.449968
      31A     -0.437209    32A     -0.401122    33A     -0.296192

  @DF-RHF Final Energy:  -435.60322972408289

   => Energetics <=

    Nuclear Repulsion Energy =            428.0003534085391834
    One-Electron Energy =               -1442.2199627261509249
    Two-Electron Energy =                 578.6163795935287908
    Total Energy =                       -435.6032297240828939
  Basis Set: (AUG-CC-PVTZ AUX)
    Blend: AUG-CC-PVTZ-RI
    Molecular point group: c1

    Geometry (in Angstrom), charge = 0, multiplicity = 1:

       Center              X                  Y                   Z               Mass
    ------------   -----------------  -----------------  -----------------  -----------------
         O           -1.454186925372    -1.180541786258    -0.009009409219    15.994914619570
         O            1.818584074628     1.378422213742    -0.020007409219    15.994914619570
         N            0.787531074628    -0.660468786258    -0.020000409219    14.003074004430
         C           -0.563952025372    -0.204556786258    -0.004390509219    12.000000000000
         C           -1.105905925372     1.051225213742     0.011947590781    12.000000000000
         C            1.900089074628     0.151205213742    -0.018818409219    12.000000000000
         C           -2.514805925372     0.796961213742     0.019014590781    12.000000000000
         C           -2.681600925372    -0.555498786258     0.006236590781    12.000000000000
         C            3.216050074628    -0.593791786258     0.031601590781    12.000000000000
         H            0.893157074628    -1.667974786258    -0.019862409219     1.007825032230
         H           -0.587738925372     1.996034213742     0.016814590781     1.007825032230
         H           -3.305165925372     1.535092213742     0.031938590781     1.007825032230
         H           -3.535147925372    -1.215468786258     0.005976590781     1.007825032230
         H            3.478688074628    -0.805291786258     1.072596590781     1.007825032230
         H            3.987813074628     0.046570213742    -0.395430409219     1.007825032230
         H            3.181361074628    -1.539067786258    -0.516472409219     1.007825032230

  Basis Set: AUG-CC-PVTZ
    Blend: AUG-CC-PVTZ
  Basis Set: (AUG-CC-PVTZ AUX)
    Blend: AUG-CC-PVTZ-JKFIT
	 Reference Energy          =    -435.6032297240828939 [Eh]
	 Singles Energy            =      -0.0000000000000000 [Eh]
	 Same-Spin Energy          =      -0.4465427665327503 [Eh]
	 Opposite-Spin Energy      =      -1.3681221980270071 [Eh]
	 Correlation Energy        =      -1.8146649645597575 [Eh]
	 Total Energy              =    -437.4178946886426615 [Eh]

	 ================> DF-SCS-MP2 Energies <==================
	-----------------------------------------------------------
	 SCS Same-Spin Scale       =       0.3333333333333333 [-]
	 SCS Opposite-Spin Scale   =       1.2000000000000000 [-]
	 SCS Same-Spin Energy      =      -0.1488475888442501 [Eh]
	 SCS Opposite-Spin Energy  =      -1.6417466376324084 [Eh]
	 SCS Correlation Energy    =      -1.7905942264766583 [Eh]
	 SCS Total Energy          =    -437.3938239505595789 [Eh]
	-----------------------------------------------------------

  Dipole Moment: [D]
     X:    -0.0539      Y:    -2.9672      Z:     0.0790     Total:     2.9688

*** Psi4 exiting successfully. Buy a developer a beer!
