                               Psi4 1.3.2 release

  ==> Input File <==

--------------------------------------------------------------------------
#psi4
#
memory 32 gb

molecule  {
0 1
  O       -1.4890520    -1.1699510    -0.0104640
  O        1.7837190     1.3890130    -0.0214620
  N        0.7352675    -0.6952372    -0.0217336
  C       -0.5553190    -0.1742840    -0.0060060
  C       -1.1407710     1.0618160     0.0104930
  C        1.8652240     0.1617960    -0.0202730
  C       -2.5496710     0.8075520     0.0175600
  C       -2.7164660    -0.5449080     0.0047820
  C        3.1811850    -0.5832010     0.0301470
  H        0.8582920    -1.6573840    -0.0213170
  H       -0.6226040     2.0066250     0.0153600
  H       -3.3400310     1.5456830     0.0304840
  H       -3.5700130    -1.2048780     0.0045220
  H        3.4438230    -0.7947010     1.0711420
  H        3.9529480     0.0571610    -0.3968850
  H        3.1464960    -1.5284770    -0.5179270
units angstrom
no_reorient  #important for SAPT in psi4, default
symmetry c1  #important for SAPT in psi4, default
}

set PROPERTIES_ORIGIN ["COM"]
properties('MP2/aug-cc-pvtz', properties = ['dipole'])
--------------------------------------------------------------------------

    Molecular point group: c1
  Charge       = 0
  Multiplicity = 1
  Basis Set: AUG-CC-PVTZ
    Blend: AUG-CC-PVTZ
  Basis Set: (AUG-CC-PVTZ AUX)
    Blend: AUG-CC-PVTZ-JKFIT

    Orbital Energies [Eh]
    ---------------------

    Doubly Occupied:

       1A    -20.626166     2A    -20.543226     3A    -15.615382
       4A    -11.378006     5A    -11.337941     6A    -11.282665
       7A    -11.252208     8A    -11.232925     9A    -11.219966
      10A     -1.464710    11A     -1.391223    12A     -1.254443
      13A     -1.082967    14A     -1.035776    15A     -0.977044
      16A     -0.844822    17A     -0.803936    18A     -0.777811
      19A     -0.744008    20A     -0.685348    21A     -0.656838
      22A     -0.647260    23A     -0.620719    24A     -0.608053
      25A     -0.575933    26A     -0.569989    27A     -0.563962
      28A     -0.548522    29A     -0.541122    30A     -0.459702
      31A     -0.443235    32A     -0.397612    33A     -0.292012

  @DF-RHF Final Energy:  -435.60052475335721

   => Energetics <=

    Nuclear Repulsion Energy =            427.2779543768369876
    One-Electron Energy =               -1440.8058912115789099
    Two-Electron Energy =                 577.9274120813846594
    Total Energy =                       -435.6005247533572629
  Basis Set: (AUG-CC-PVTZ AUX)
    Blend: AUG-CC-PVTZ-RI
    Molecular point group: c1

    Geometry (in Angstrom), charge = 0, multiplicity = 1:

       Center              X                  Y                   Z               Mass
    ------------   -----------------  -----------------  -----------------  -----------------
         O           -1.456412834084    -1.177351129388    -0.008962770557    15.994914619570
         O            1.816358165916     1.381612870612    -0.019960770557    15.994914619570
         N            0.767906665916    -0.702637329388    -0.020232370557    14.003074004430
         C           -0.522679834084    -0.181684129388    -0.004504770557    12.000000000000
         C           -1.108131834084     1.054415870612     0.011994229443    12.000000000000
         C            1.897863165916     0.154395870612    -0.018771770557    12.000000000000
         C           -2.517031834084     0.800151870612     0.019061229443    12.000000000000
         C           -2.683826834084    -0.552308129388     0.006283229443    12.000000000000
         C            3.213824165916    -0.590601129388     0.031648229443    12.000000000000
         H            0.890931165916    -1.664784129388    -0.019815770557     1.007825032230
         H           -0.589964834084     1.999224870612     0.016861229443     1.007825032230
         H           -3.307391834084     1.538282870612     0.031985229443     1.007825032230
         H           -3.537373834084    -1.212278129388     0.006023229443     1.007825032230
         H            3.476462165916    -0.802101129388     1.072643229443     1.007825032230
         H            3.985587165916     0.049760870612    -0.395383770557     1.007825032230
         H            3.179135165916    -1.535877129388    -0.516425770557     1.007825032230

  Basis Set: AUG-CC-PVTZ
    Blend: AUG-CC-PVTZ
  Basis Set: (AUG-CC-PVTZ AUX)
    Blend: AUG-CC-PVTZ-JKFIT
	 Reference Energy          =    -435.6005247533572060 [Eh]
	 Singles Energy            =      -0.0000000000000000 [Eh]
	 Same-Spin Energy          =      -0.4467612611887209 [Eh]
	 Opposite-Spin Energy      =      -1.3693001093952364 [Eh]
	 Correlation Energy        =      -1.8160613705839572 [Eh]
	 Total Energy              =    -437.4165861239411583 [Eh]

	 ================> DF-SCS-MP2 Energies <==================
	-----------------------------------------------------------
	 SCS Same-Spin Scale       =       0.3333333333333333 [-]
	 SCS Opposite-Spin Scale   =       1.2000000000000000 [-]
	 SCS Same-Spin Energy      =      -0.1489204203962403 [Eh]
	 SCS Opposite-Spin Energy  =      -1.6431601312742836 [Eh]
	 SCS Correlation Energy    =      -1.7920805516705238 [Eh]
	 SCS Total Energy          =    -437.3926053050277574 [Eh]
	-----------------------------------------------------------

  Dipole Moment: [D]
     X:     0.3753      Y:    -2.7968      Z:     0.0803     Total:     2.8230

*** Psi4 exiting successfully. Buy a developer a beer!
