                               Psi4 1.3.2 release

  ==> Input File <==

--------------------------------------------------------------------------
#psi4
#
memory 32 gb

molecule  {
0 1
  O       -1.4890520    -1.1699510    -0.0104640
  O        1.7837190     1.3890130    -0.0214620
  N        0.7526660    -0.6498780    -0.0214550
  C       -0.5468206    -0.1515274    -0.0061433
  C       -1.1407710     1.0618160     0.0104930
  C        1.8652240     0.1617960    -0.0202730
  C       -2.5496710     0.8075520     0.0175600
  C       -2.7164660    -0.5449080     0.0047820
  C        3.1811850    -0.5832010     0.0301470
  H        0.8582920    -1.6573840    -0.0213170
  H       -0.6226040     2.0066250     0.0153600
  H       -3.3400310     1.5456830     0.0304840
  H       -3.5700130    -1.2048780     0.0045220
  H        3.4438230    -0.7947010     1.0711420
  H        3.9529480     0.0571610    -0.3968850
  H        3.1464960    -1.5284770    -0.5179270
units angstrom
no_reorient  #important for SAPT in psi4, default
symmetry c1  #important for SAPT in psi4, default
}

set PROPERTIES_ORIGIN ["COM"]
properties('MP2/aug-cc-pvtz', properties = ['dipole'])
--------------------------------------------------------------------------

    Molecular point group: c1
  Charge       = 0
  Multiplicity = 1
  Basis Set: AUG-CC-PVTZ
    Blend: AUG-CC-PVTZ
  Basis Set: (AUG-CC-PVTZ AUX)
    Blend: AUG-CC-PVTZ-JKFIT

    Orbital Energies [Eh]
    ---------------------

    Doubly Occupied:

       1A    -20.625780     2A    -20.535038     3A    -15.619920
       4A    -11.371010     5A    -11.337102     6A    -11.285738
       7A    -11.250659     8A    -11.233480     9A    -11.220531
      10A     -1.457455    11A     -1.390007    12A     -1.256002
      13A     -1.085964    14A     -1.036064    15A     -0.977777
      16A     -0.849685    17A     -0.805241    18A     -0.770058
      19A     -0.741386    20A     -0.684725    21A     -0.655967
      22A     -0.647841    23A     -0.620117    24A     -0.601980
      25A     -0.576557    26A     -0.570176    27A     -0.562232
      28A     -0.550389    29A     -0.543760    30A     -0.456358
      31A     -0.439826    32A     -0.399241    33A     -0.296081

  @DF-RHF Final Energy:  -435.60337974723677

   => Energetics <=

    Nuclear Repulsion Energy =            427.7793718519168920
    One-Electron Energy =               -1441.8572078143217823
    Two-Electron Energy =                 578.4744562151680611
    Total Energy =                       -435.6033797472367723
  Basis Set: (AUG-CC-PVTZ AUX)
    Blend: AUG-CC-PVTZ-RI
    Molecular point group: c1

    Geometry (in Angstrom), charge = 0, multiplicity = 1:

       Center              X                  Y                   Z               Mass
    ------------   -----------------  -----------------  -----------------  -----------------
         O           -1.459176686139    -1.184614338473    -0.008980792934    15.994914619570
         O            1.813594313861     1.374349661527    -0.019978792934    15.994914619570
         N            0.782541313861    -0.664541338473    -0.019971792934    14.003074004430
         C           -0.516945286139    -0.166190738473    -0.004660092934    12.000000000000
         C           -1.110895686139     1.047152661527     0.011976207066    12.000000000000
         C            1.895099313861     0.147132661527    -0.018789792934    12.000000000000
         C           -2.519795686139     0.792888661527     0.019043207066    12.000000000000
         C           -2.686590686139    -0.559571338473     0.006265207066    12.000000000000
         C            3.211060313861    -0.597864338473     0.031630207066    12.000000000000
         H            0.888167313861    -1.672047338473    -0.019833792934     1.007825032230
         H           -0.592728686139     1.991961661527     0.016843207066     1.007825032230
         H           -3.310155686139     1.531019661527     0.031967207066     1.007825032230
         H           -3.540137686139    -1.219541338473     0.006005207066     1.007825032230
         H            3.473698313861    -0.809364338473     1.072625207066     1.007825032230
         H            3.982823313861     0.042497661527    -0.395401792934     1.007825032230
         H            3.176371313861    -1.543140338473    -0.516443792934     1.007825032230

  Basis Set: AUG-CC-PVTZ
    Blend: AUG-CC-PVTZ
  Basis Set: (AUG-CC-PVTZ AUX)
    Blend: AUG-CC-PVTZ-JKFIT
	 Reference Energy          =    -435.6033797472367723 [Eh]
	 Singles Energy            =      -0.0000000000000000 [Eh]
	 Same-Spin Energy          =      -0.4467714498051426 [Eh]
	 Opposite-Spin Energy      =      -1.3693576452435812 [Eh]
	 Correlation Energy        =      -1.8161290950487237 [Eh]
	 Total Energy              =    -437.4195088422854951 [Eh]

	 ================> DF-SCS-MP2 Energies <==================
	-----------------------------------------------------------
	 SCS Same-Spin Scale       =       0.3333333333333333 [-]
	 SCS Opposite-Spin Scale   =       1.2000000000000000 [-]
	 SCS Same-Spin Energy      =      -0.1489238166017142 [Eh]
	 SCS Opposite-Spin Energy  =      -1.6432291742922973 [Eh]
	 SCS Correlation Energy    =      -1.7921529908940115 [Eh]
	 SCS Total Energy          =    -437.3955327381307825 [Eh]
	-----------------------------------------------------------

  Dipole Moment: [D]
     X:     0.1861      Y:    -2.8959      Z:     0.0786     Total:     2.9029

*** Psi4 exiting successfully. Buy a developer a beer!
