                               Psi4 1.3.2 release

  ==> Input File <==

--------------------------------------------------------------------------
#psi4
#
memory 32 gb

molecule  {
0 1
  O       -1.4890520    -1.1699510    -0.0104640
  O        1.7837190     1.3890130    -0.0214620
  N        0.7526660    -0.6498780    -0.0214550
  C       -0.6921295    -0.3201691    -0.0066592
  C       -1.1407710     1.0618160     0.0104930
  C        1.8652240     0.1617960    -0.0202730
  C       -2.5496710     0.8075520     0.0175600
  C       -2.7164660    -0.5449080     0.0047820
  C        3.1811850    -0.5832010     0.0301470
  H        0.8582920    -1.6573840    -0.0213170
  H       -0.6226040     2.0066250     0.0153600
  H       -3.3400310     1.5456830     0.0304840
  H       -3.5700130    -1.2048780     0.0045220
  H        3.4438230    -0.7947010     1.0711420
  H        3.9529480     0.0571610    -0.3968850
  H        3.1464960    -1.5284770    -0.5179270
units angstrom
no_reorient  #important for SAPT in psi4, default
symmetry c1  #important for SAPT in psi4, default
}

set PROPERTIES_ORIGIN ["COM"]
properties('MP2/aug-cc-pvtz', properties = ['dipole'])
--------------------------------------------------------------------------

    Molecular point group: c1
  Charge       = 0
  Multiplicity = 1
  Basis Set: AUG-CC-PVTZ
    Blend: AUG-CC-PVTZ
  Basis Set: (AUG-CC-PVTZ AUX)
    Blend: AUG-CC-PVTZ-JKFIT

    Orbital Energies [Eh]
    ---------------------

    Doubly Occupied:

       1A    -20.665950     2A    -20.528512     3A    -15.612280
       4A    -11.369073     5A    -11.354921     6A    -11.277068
       7A    -11.248425     8A    -11.242081     9A    -11.217336
      10A     -1.581996    11A     -1.381938    12A     -1.233970
      13A     -1.094706    14A     -1.034643    15A     -0.987745
      16A     -0.848222    17A     -0.819020    18A     -0.786841
      19A     -0.744940    20A     -0.717243    21A     -0.680573
      22A     -0.660334    23A     -0.622540    24A     -0.604179
      25A     -0.597054    26A     -0.575645    27A     -0.556892
      28A     -0.535714    29A     -0.517810    30A     -0.440142
      31A     -0.434090    32A     -0.404814    33A     -0.285915

  @DF-RHF Final Energy:  -435.55231394977091

   => Energetics <=

    Nuclear Repulsion Energy =            428.7986740454746837
    One-Electron Energy =               -1443.3767549985857386
    Two-Electron Energy =                 579.0257670033402064
    Total Energy =                       -435.5523139497709053
  Basis Set: (AUG-CC-PVTZ AUX)
    Blend: AUG-CC-PVTZ-RI
    Molecular point group: c1

    Geometry (in Angstrom), charge = 0, multiplicity = 1:

       Center              X                  Y                   Z               Mass
    ------------   -----------------  -----------------  -----------------  -----------------
         O           -1.445232350495    -1.168430908083    -0.008931285418    15.994914619570
         O            1.827538649505     1.390533091917    -0.019929285418    15.994914619570
         N            0.796485649505    -0.648357908083    -0.019922285418    14.003074004430
         C           -0.648309850495    -0.318649008083    -0.005126485418    12.000000000000
         C           -1.096951350495     1.063336091917     0.012025714582    12.000000000000
         C            1.909043649505     0.163316091917    -0.018740285418    12.000000000000
         C           -2.505851350495     0.809072091917     0.019092714582    12.000000000000
         C           -2.672646350495    -0.543387908083     0.006314714582    12.000000000000
         C            3.225004649505    -0.581680908083     0.031679714582    12.000000000000
         H            0.902111649505    -1.655863908083    -0.019784285418     1.007825032230
         H           -0.578784350495     2.008145091917     0.016892714582     1.007825032230
         H           -3.296211350495     1.547203091917     0.032016714582     1.007825032230
         H           -3.526193350495    -1.203357908083     0.006054714582     1.007825032230
         H            3.487642649505    -0.793180908083     1.072674714582     1.007825032230
         H            3.996767649505     0.058681091917    -0.395352285418     1.007825032230
         H            3.190315649505    -1.526956908083    -0.516394285418     1.007825032230

  Basis Set: AUG-CC-PVTZ
    Blend: AUG-CC-PVTZ
  Basis Set: (AUG-CC-PVTZ AUX)
    Blend: AUG-CC-PVTZ-JKFIT
	 Reference Energy          =    -435.5523139497709053 [Eh]
	 Singles Energy            =      -0.0000000000000000 [Eh]
	 Same-Spin Energy          =      -0.4469950966430234 [Eh]
	 Opposite-Spin Energy      =      -1.3664954646551388 [Eh]
	 Correlation Energy        =      -1.8134905612981622 [Eh]
	 Total Energy              =    -437.3658045110690864 [Eh]

	 ================> DF-SCS-MP2 Energies <==================
	-----------------------------------------------------------
	 SCS Same-Spin Scale       =       0.3333333333333333 [-]
	 SCS Opposite-Spin Scale   =       1.2000000000000000 [-]
	 SCS Same-Spin Energy      =      -0.1489983655476745 [Eh]
	 SCS Opposite-Spin Energy  =      -1.6397945575861665 [Eh]
	 SCS Correlation Energy    =      -1.7887929231338411 [Eh]
	 SCS Total Energy          =    -437.3411068729047315 [Eh]
	-----------------------------------------------------------

  Dipole Moment: [D]
     X:    -0.3662      Y:    -3.2792      Z:     0.0764     Total:     3.3004

*** Psi4 exiting successfully. Buy a developer a beer!
