                               Psi4 1.4a3.dev225

  ==> Input File <==

--------------------------------------------------------------------------
#psi4
#
memory 32 gb

molecule  {
0 1
  O       -1.4890520    -1.1699510    -0.0104640
  O        1.7837190     1.3890130    -0.0214620
  N        0.7526660    -0.6498780    -0.0214550
  C       -0.6023062    -0.1571991    -0.0054510
  C       -1.1407710     1.0618160     0.0104930
  C        1.8652240     0.1617960    -0.0202730
  C       -2.5496710     0.8075520     0.0175600
  C       -2.7164660    -0.5449080     0.0047820
  C        3.1811850    -0.5832010     0.0301470
  H        0.8582920    -1.6573840    -0.0213170
  H       -0.6226040     2.0066250     0.0153600
  H       -3.3400310     1.5456830     0.0304840
  H       -3.5700130    -1.2048780     0.0045220
  H        3.4438230    -0.7947010     1.0711420
  H        3.9529480     0.0571610    -0.3968850
  H        3.1464960    -1.5284770    -0.5179270
units angstrom
no_reorient  #important for SAPT in psi4, default
symmetry c1  #important for SAPT in psi4, default
}

set PROPERTIES_ORIGIN ["COM"]
properties('MP2/aug-cc-pvtz', properties = ['dipole'])
--------------------------------------------------------------------------

    Molecular point group: c1
  Charge       = 0
  Multiplicity = 1
  Basis Set: AUG-CC-PVTZ
    Blend: AUG-CC-PVTZ
  Basis Set: (AUG-CC-PVTZ AUX)
    Blend: AUG-CC-PVTZ-JKFIT

    Orbital Energies [Eh]
    ---------------------

    Doubly Occupied:

       1A    -20.633365     2A    -20.530611     3A    -15.614877
       4A    -11.367499     5A    -11.336846     6A    -11.286972
       7A    -11.248115     8A    -11.236607     9A    -11.219113
      10A     -1.477235    11A     -1.385042    12A     -1.241019
      13A     -1.095239    14A     -1.032556    15A     -0.980521
      16A     -0.845418    17A     -0.802387    18A     -0.772182
      19A     -0.742775    20A     -0.682110    21A     -0.662286
      22A     -0.644847    23A     -0.620510    24A     -0.598859
      25A     -0.583740    26A     -0.571780    27A     -0.565956
      28A     -0.550352    29A     -0.538771    30A     -0.448664
      31A     -0.435796    32A     -0.403800    33A     -0.302305

  @DF-RHF Final Energy:  -435.60252957195127

   => Energetics <=

    Nuclear Repulsion Energy =            427.9598557030811889
    One-Electron Energy =               -1442.2084553944780509
    Two-Electron Energy =                 578.6460701194455396
    Total Energy =                       -435.6025295719513224
  Basis Set: (AUG-CC-PVTZ AUX)
    Blend: AUG-CC-PVTZ-RI
    Molecular point group: c1

    Geometry (in Angstrom), charge = 0, multiplicity = 1:

       Center              X                  Y                   Z               Mass
    ------------   -----------------  -----------------  -----------------  -----------------
         O           -1.453852099484    -1.184070062875    -0.009047228394    15.994914619570
         O            1.818918900516     1.374893937125    -0.020045228394    15.994914619570
         N            0.787865900516    -0.663997062875    -0.020038228394    14.003074004430
         C           -0.567106299484    -0.171318162875    -0.004034228394    12.000000000000
         C           -1.105571099484     1.047696937125     0.011909771606    12.000000000000
         C            1.900423900516     0.147676937125    -0.018856228394    12.000000000000
         C           -2.514471099484     0.793432937125     0.018976771606    12.000000000000
         C           -2.681266099484    -0.559027062875     0.006198771606    12.000000000000
         C            3.216384900516    -0.597320062875     0.031563771606    12.000000000000
         H            0.893491900516    -1.671503062875    -0.019900228394     1.007825032230
         H           -0.587404099484     1.992505937125     0.016776771606     1.007825032230
         H           -3.304831099484     1.531563937125     0.031900771606     1.007825032230
         H           -3.534813099484    -1.218997062875     0.005938771606     1.007825032230
         H            3.479022900516    -0.808820062875     1.072558771606     1.007825032230
         H            3.988147900516     0.043041937125    -0.395468228394     1.007825032230
         H            3.181695900516    -1.542596062875    -0.516510228394     1.007825032230

  Basis Set: AUG-CC-PVTZ
    Blend: AUG-CC-PVTZ
  Basis Set: (AUG-CC-PVTZ AUX)
    Blend: AUG-CC-PVTZ-JKFIT
	 Reference Energy          =    -435.6025295719512656 [Eh]
	 Singles Energy            =      -0.0000000000000000 [Eh]
	 Same-Spin Energy          =      -0.4460744896284060 [Eh]
	 Opposite-Spin Energy      =      -1.3680945904742625 [Eh]
	 Correlation Energy        =      -1.8141690801026686 [Eh]
	 Total Energy              =    -437.4166986520539240 [Eh]

	 ================> DF-SCS-MP2 Energies <==================
	-----------------------------------------------------------
	 SCS Same-Spin Scale       =       0.3333333333333333 [-]
	 SCS Opposite-Spin Scale   =       1.2000000000000000 [-]
	 SCS Same-Spin Energy      =      -0.1486914965428020 [Eh]
	 SCS Opposite-Spin Energy  =      -1.6417135085691150 [Eh]
	 SCS Correlation Energy    =      -1.7904050051119169 [Eh]
	 SCS Total Energy          =    -437.3929345770631585 [Eh]
	-----------------------------------------------------------

  Dipole Moment: [D]
     X:    -0.1193      Y:    -2.8716      Z:     0.0808     Total:     2.8753

*** Psi4 exiting successfully. Buy a developer a beer!
