                               Psi4 1.3.2 release

  ==> Input File <==

--------------------------------------------------------------------------
#psi4
#
memory 32 gb

molecule  {
0 1
  O       -1.4890520    -1.1699510    -0.0104640
  O        1.7837190     1.3890130    -0.0214620
  N        0.7526660    -0.6498780    -0.0214550
  C       -0.5853045    -0.2666892    -0.0055041
  C       -1.1407710     1.0618160     0.0104930
  C        1.8652240     0.1617960    -0.0202730
  C       -2.5496710     0.8075520     0.0175600
  C       -2.7164660    -0.5449080     0.0047820
  C        3.1811850    -0.5832010     0.0301470
  H        0.8582920    -1.6573840    -0.0213170
  H       -0.6226040     2.0066250     0.0153600
  H       -3.3400310     1.5456830     0.0304840
  H       -3.5700130    -1.2048780     0.0045220
  H        3.4438230    -0.7947010     1.0711420
  H        3.9529480     0.0571610    -0.3968850
  H        3.1464960    -1.5284770    -0.5179270
units angstrom
no_reorient  #important for SAPT in psi4, default
symmetry c1  #important for SAPT in psi4, default
}

set PROPERTIES_ORIGIN ["COM"]
properties('MP2/aug-cc-pvtz', properties = ['dipole'])
--------------------------------------------------------------------------

    Molecular point group: c1
  Charge       = 0
  Multiplicity = 1
  Basis Set: AUG-CC-PVTZ
    Blend: AUG-CC-PVTZ
  Basis Set: (AUG-CC-PVTZ AUX)
    Blend: AUG-CC-PVTZ-JKFIT

    Orbital Energies [Eh]
    ---------------------

    Doubly Occupied:

       1A    -20.644003     2A    -20.535596     3A    -15.620973
       4A    -11.373808     5A    -11.346504     6A    -11.278867
       7A    -11.252167     8A    -11.235636     9A    -11.219608
      10A     -1.507312    11A     -1.390118    12A     -1.258475
      13A     -1.078856    14A     -1.039133    15A     -0.979699
      16A     -0.852083    17A     -0.812532    18A     -0.775805
      19A     -0.745801    20A     -0.685100    21A     -0.678177
      22A     -0.658279    23A     -0.625719    24A     -0.604668
      25A     -0.579710    26A     -0.576366    27A     -0.559902
      28A     -0.544361    29A     -0.534733    30A     -0.454390
      31A     -0.440782    32A     -0.396574    33A     -0.282905

  @DF-RHF Final Energy:  -435.59381058897503

   => Energetics <=

    Nuclear Repulsion Energy =            428.0920859801412348
    One-Electron Energy =               -1442.2345093318247109
    Two-Electron Energy =                 578.5486127627083306
    Total Energy =                       -435.5938105889750886
  Basis Set: (AUG-CC-PVTZ AUX)
    Blend: AUG-CC-PVTZ-RI
    Molecular point group: c1

    Geometry (in Angstrom), charge = 0, multiplicity = 1:

       Center              X                  Y                   Z               Mass
    ------------   -----------------  -----------------  -----------------  -----------------
         O           -1.455483640369    -1.173563020952    -0.009042132738    15.994914619570
         O            1.817287359631     1.385400979048    -0.020040132738    15.994914619570
         N            0.786234359631    -0.653490020952    -0.020033132738    14.003074004430
         C           -0.551736140369    -0.270301220952    -0.004082232738    12.000000000000
         C           -1.107202640369     1.058203979048     0.011914867262    12.000000000000
         C            1.898792359631     0.158183979048    -0.018851132738    12.000000000000
         C           -2.516102640369     0.803939979048     0.018981867262    12.000000000000
         C           -2.682897640369    -0.548520020952     0.006203867262    12.000000000000
         C            3.214753359631    -0.586813020952     0.031568867262    12.000000000000
         H            0.891860359631    -1.660996020952    -0.019895132738     1.007825032230
         H           -0.589035640369     2.003012979048     0.016781867262     1.007825032230
         H           -3.306462640369     1.542070979048     0.031905867262     1.007825032230
         H           -3.536444640369    -1.208490020952     0.005943867262     1.007825032230
         H            3.477391359631    -0.798313020952     1.072563867262     1.007825032230
         H            3.986516359631     0.053548979048    -0.395463132738     1.007825032230
         H            3.180064359631    -1.532089020952    -0.516505132738     1.007825032230

  Basis Set: AUG-CC-PVTZ
    Blend: AUG-CC-PVTZ
  Basis Set: (AUG-CC-PVTZ AUX)
    Blend: AUG-CC-PVTZ-JKFIT
	 Reference Energy          =    -435.5938105889750318 [Eh]
	 Singles Energy            =      -0.0000000000000000 [Eh]
	 Same-Spin Energy          =      -0.4476385032327526 [Eh]
	 Opposite-Spin Energy      =      -1.3685692405069236 [Eh]
	 Correlation Energy        =      -1.8162077437396762 [Eh]
	 Total Energy              =    -437.4100183327146851 [Eh]

	 ================> DF-SCS-MP2 Energies <==================
	-----------------------------------------------------------
	 SCS Same-Spin Scale       =       0.3333333333333333 [-]
	 SCS Opposite-Spin Scale   =       1.2000000000000000 [-]
	 SCS Same-Spin Energy      =      -0.1492128344109175 [Eh]
	 SCS Opposite-Spin Energy  =      -1.6422830886083084 [Eh]
	 SCS Correlation Energy    =      -1.7914959230192260 [Eh]
	 SCS Total Energy          =    -437.3853065119942585 [Eh]
	-----------------------------------------------------------

  Dipole Moment: [D]
     X:     0.1164      Y:    -3.1560      Z:     0.0756     Total:     3.1590

*** Psi4 exiting successfully. Buy a developer a beer!
