                               Psi4 1.3.2 release

  ==> Input File <==

--------------------------------------------------------------------------
#psi4
#
memory 32 gb

molecule  {
0 1
  O       -1.4890520    -1.1699510    -0.0104640
  O        1.7837190     1.3890130    -0.0214620
  N        0.7526660    -0.6498780    -0.0214550
  C       -0.5468172    -0.1515291    -0.0058020
  C       -1.1407710     1.0618160     0.0104930
  C        1.8652240     0.1617960    -0.0202730
  C       -2.5496710     0.8075520     0.0175600
  C       -2.7164660    -0.5449080     0.0047820
  C        3.1811850    -0.5832010     0.0301470
  H        0.8582920    -1.6573840    -0.0213170
  H       -0.6226040     2.0066250     0.0153600
  H       -3.3400310     1.5456830     0.0304840
  H       -3.5700130    -1.2048780     0.0045220
  H        3.4438230    -0.7947010     1.0711420
  H        3.9529480     0.0571610    -0.3968850
  H        3.1464960    -1.5284770    -0.5179270
units angstrom
no_reorient  #important for SAPT in psi4, default
symmetry c1  #important for SAPT in psi4, default
}

set PROPERTIES_ORIGIN ["COM"]
properties('MP2/aug-cc-pvtz', properties = ['dipole'])
--------------------------------------------------------------------------

    Molecular point group: c1
  Charge       = 0
  Multiplicity = 1
  Basis Set: AUG-CC-PVTZ
    Blend: AUG-CC-PVTZ
  Basis Set: (AUG-CC-PVTZ AUX)
    Blend: AUG-CC-PVTZ-JKFIT

    Orbital Energies [Eh]
    ---------------------

    Doubly Occupied:

       1A    -20.625780     2A    -20.535038     3A    -15.619920
       4A    -11.371010     5A    -11.337102     6A    -11.285738
       7A    -11.250659     8A    -11.233480     9A    -11.220532
      10A     -1.457454    11A     -1.390007    12A     -1.256002
      13A     -1.085964    14A     -1.036064    15A     -0.977777
      16A     -0.849685    17A     -0.805240    18A     -0.770058
      19A     -0.741386    20A     -0.684725    21A     -0.655966
      22A     -0.647842    23A     -0.620117    24A     -0.601980
      25A     -0.576557    26A     -0.570176    27A     -0.562231
      28A     -0.550389    29A     -0.543759    30A     -0.456358
      31A     -0.439826    32A     -0.399242    33A     -0.296081

  @DF-RHF Final Energy:  -435.60337948582753

   => Energetics <=

    Nuclear Repulsion Energy =            427.7793676567681018
    One-Electron Energy =               -1441.8571990230261690
    Two-Electron Energy =                 578.4744518804305926
    Total Energy =                       -435.6033794858275314
  Basis Set: (AUG-CC-PVTZ AUX)
    Blend: AUG-CC-PVTZ-RI
    Molecular point group: c1

    Geometry (in Angstrom), charge = 0, multiplicity = 1:

       Center              X                  Y                   Z               Mass
    ------------   -----------------  -----------------  -----------------  -----------------
         O           -1.459177012414    -1.184614175335    -0.009013545242    15.994914619570
         O            1.813593987586     1.374349824665    -0.020011545242    15.994914619570
         N            0.782540987586    -0.664541175335    -0.020004545242    14.003074004430
         C           -0.516942212414    -0.166192275335    -0.004351545242    12.000000000000
         C           -1.110896012414     1.047152824665     0.011943454758    12.000000000000
         C            1.895098987586     0.147132824665    -0.018822545242    12.000000000000
         C           -2.519796012414     0.792888824665     0.019010454758    12.000000000000
         C           -2.686591012414    -0.559571175335     0.006232454758    12.000000000000
         C            3.211059987586    -0.597864175335     0.031597454758    12.000000000000
         H            0.888166987586    -1.672047175335    -0.019866545242     1.007825032230
         H           -0.592729012414     1.991961824665     0.016810454758     1.007825032230
         H           -3.310156012414     1.531019824665     0.031934454758     1.007825032230
         H           -3.540138012414    -1.219541175335     0.005972454758     1.007825032230
         H            3.473697987586    -0.809364175335     1.072592454758     1.007825032230
         H            3.982822987586     0.042497824665    -0.395434545242     1.007825032230
         H            3.176370987586    -1.543140175335    -0.516476545242     1.007825032230

  Basis Set: AUG-CC-PVTZ
    Blend: AUG-CC-PVTZ
  Basis Set: (AUG-CC-PVTZ AUX)
    Blend: AUG-CC-PVTZ-JKFIT
	 Reference Energy          =    -435.6033794858275314 [Eh]
	 Singles Energy            =      -0.0000000000000000 [Eh]
	 Same-Spin Energy          =      -0.4467714780439218 [Eh]
	 Opposite-Spin Energy      =      -1.3693577142373636 [Eh]
	 Correlation Energy        =      -1.8161291922812854 [Eh]
	 Total Energy              =    -437.4195086781087980 [Eh]

	 ================> DF-SCS-MP2 Energies <==================
	-----------------------------------------------------------
	 SCS Same-Spin Scale       =       0.3333333333333333 [-]
	 SCS Opposite-Spin Scale   =       1.2000000000000000 [-]
	 SCS Same-Spin Energy      =      -0.1489238260146406 [Eh]
	 SCS Opposite-Spin Energy  =      -1.6432292570848364 [Eh]
	 SCS Correlation Energy    =      -1.7921530830994770 [Eh]
	 SCS Total Energy          =    -437.3955325689270239 [Eh]
	-----------------------------------------------------------

  Dipole Moment: [D]
     X:     0.1861      Y:    -2.8958      Z:     0.0787     Total:     2.9029

*** Psi4 exiting successfully. Buy a developer a beer!
