                               Psi4 1.3.2 release

  ==> Input File <==

--------------------------------------------------------------------------
#psi4
#
memory 32 gb

molecule  {
0 1
  O       -1.5062861    -1.1535052    -0.0101851
  O        1.7837190     1.3890130    -0.0214620
  N        0.7526660    -0.6498780    -0.0214550
  C       -0.5553190    -0.1742840    -0.0060060
  C       -1.1407710     1.0618160     0.0104930
  C        1.8652240     0.1617960    -0.0202730
  C       -2.5496710     0.8075520     0.0175600
  C       -2.7164660    -0.5449080     0.0047820
  C        3.1811850    -0.5832010     0.0301470
  H        0.8582920    -1.6573840    -0.0213170
  H       -0.6226040     2.0066250     0.0153600
  H       -3.3400310     1.5456830     0.0304840
  H       -3.5700130    -1.2048780     0.0045220
  H        3.4438230    -0.7947010     1.0711420
  H        3.9529480     0.0571610    -0.3968850
  H        3.1464960    -1.5284770    -0.5179270
units angstrom
no_reorient  #important for SAPT in psi4, default
symmetry c1  #important for SAPT in psi4, default
}

set PROPERTIES_ORIGIN ["COM"]
properties('MP2/aug-cc-pvtz', properties = ['dipole'])
--------------------------------------------------------------------------

    Molecular point group: c1
  Charge       = 0
  Multiplicity = 1
  Basis Set: AUG-CC-PVTZ
    Blend: AUG-CC-PVTZ
  Basis Set: (AUG-CC-PVTZ AUX)
    Blend: AUG-CC-PVTZ-JKFIT

    Orbital Energies [Eh]
    ---------------------

    Doubly Occupied:

       1A    -20.629873     2A    -20.535117     3A    -15.620612
       4A    -11.371746     5A    -11.337744     6A    -11.283190
       7A    -11.251092     8A    -11.231049     9A    -11.220405
      10A     -1.473473    11A     -1.390257    12A     -1.257349
      13A     -1.082201    14A     -1.037747    15A     -0.980379
      16A     -0.850334    17A     -0.807155    18A     -0.772426
      19A     -0.742771    20A     -0.685289    21A     -0.662099
      22A     -0.653621    23A     -0.622881    24A     -0.602858
      25A     -0.575906    26A     -0.569346    27A     -0.564504
      28A     -0.546179    29A     -0.544612    30A     -0.456646
      31A     -0.440131    32A     -0.396064    33A     -0.293299

  @DF-RHF Final Energy:  -435.60470889676105

   => Energetics <=

    Nuclear Repulsion Energy =            428.2166441506715273
    One-Electron Energy =               -1442.6659948000310578
    Two-Electron Energy =                 578.8446417525984771
    Total Energy =                       -435.6047088967610534
  Basis Set: (AUG-CC-PVTZ AUX)
    Blend: AUG-CC-PVTZ-RI
    Molecular point group: c1

    Geometry (in Angstrom), charge = 0, multiplicity = 1:

       Center              X                  Y                   Z               Mass
    ------------   -----------------  -----------------  -----------------  -----------------
         O           -1.473390827970    -1.168088328802    -0.008750742955    15.994914619570
         O            1.816614272030     1.374429871198    -0.020027642955    15.994914619570
         N            0.785561272030    -0.664461128802    -0.020020642955    14.003074004430
         C           -0.522423727970    -0.188867128802    -0.004571642955    12.000000000000
         C           -1.107875727970     1.047232871198     0.011927357045    12.000000000000
         C            1.898119272030     0.147212871198    -0.018838642955    12.000000000000
         C           -2.516775727970     0.792968871198     0.018994357045    12.000000000000
         C           -2.683570727970    -0.559491128802     0.006216357045    12.000000000000
         C            3.214080272030    -0.597784128802     0.031581357045    12.000000000000
         H            0.891187272030    -1.671967128802    -0.019882642955     1.007825032230
         H           -0.589708727970     1.992041871198     0.016794357045     1.007825032230
         H           -3.307135727970     1.531099871198     0.031918357045     1.007825032230
         H           -3.537117727970    -1.219461128802     0.005956357045     1.007825032230
         H            3.476718272030    -0.809284128802     1.072576357045     1.007825032230
         H            3.985843272030     0.042577871198    -0.395450642955     1.007825032230
         H            3.179391272030    -1.543060128802    -0.516492642955     1.007825032230

  Basis Set: AUG-CC-PVTZ
    Blend: AUG-CC-PVTZ
  Basis Set: (AUG-CC-PVTZ AUX)
    Blend: AUG-CC-PVTZ-JKFIT
	 Reference Energy          =    -435.6047088967610534 [Eh]
	 Singles Energy            =      -0.0000000000000000 [Eh]
	 Same-Spin Energy          =      -0.4469449693114160 [Eh]
	 Opposite-Spin Energy      =      -1.3685877248330898 [Eh]
	 Correlation Energy        =      -1.8155326941445058 [Eh]
	 Total Energy              =    -437.4202415909055617 [Eh]

	 ================> DF-SCS-MP2 Energies <==================
	-----------------------------------------------------------
	 SCS Same-Spin Scale       =       0.3333333333333333 [-]
	 SCS Opposite-Spin Scale   =       1.2000000000000000 [-]
	 SCS Same-Spin Energy      =      -0.1489816564371387 [Eh]
	 SCS Opposite-Spin Energy  =      -1.6423052697997076 [Eh]
	 SCS Correlation Energy    =      -1.7912869262368463 [Eh]
	 SCS Total Energy          =    -437.3959958229979179 [Eh]
	-----------------------------------------------------------

  Dipole Moment: [D]
     X:     0.2129      Y:    -3.0158      Z:     0.0770     Total:     3.0243

*** Psi4 exiting successfully. Buy a developer a beer!
