                               Psi4 1.4a3.dev225

  ==> Input File <==

--------------------------------------------------------------------------
#psi4
#
memory 32 gb

molecule  {
0 1
  O       -1.4890520    -1.1699510    -0.0104640
  O        1.7837190     1.3890130    -0.0214620
  N        0.7526660    -0.6498780    -0.0214550
  C       -0.5416379    -0.1596955    -0.0059407
  C       -1.1407710     1.0618160     0.0104930
  C        1.8652240     0.1617960    -0.0202730
  C       -2.5496710     0.8075520     0.0175600
  C       -2.7164660    -0.5449080     0.0047820
  C        3.1811850    -0.5832010     0.0301470
  H        0.8582920    -1.6573840    -0.0213170
  H       -0.6226040     2.0066250     0.0153600
  H       -3.3400310     1.5456830     0.0304840
  H       -3.5700130    -1.2048780     0.0045220
  H        3.4438230    -0.7947010     1.0711420
  H        3.9529480     0.0571610    -0.3968850
  H        3.1464960    -1.5284770    -0.5179270
units angstrom
no_reorient  #important for SAPT in psi4, default
symmetry c1  #important for SAPT in psi4, default
}

set PROPERTIES_ORIGIN ["COM"]
properties('MP2/aug-cc-pvtz', properties = ['dipole'])
--------------------------------------------------------------------------

    Molecular point group: c1
  Charge       = 0
  Multiplicity = 1
  Basis Set: AUG-CC-PVTZ
    Blend: AUG-CC-PVTZ
  Basis Set: (AUG-CC-PVTZ AUX)
    Blend: AUG-CC-PVTZ-JKFIT

    Orbital Energies [Eh]
    ---------------------

    Doubly Occupied:

       1A    -20.626055     2A    -20.535716     3A    -15.620653
       4A    -11.371702     5A    -11.337831     6A    -11.285089
       7A    -11.251130     8A    -11.233225     9A    -11.220785
      10A     -1.458088    11A     -1.390750    12A     -1.258562
      13A     -1.083821    14A     -1.036914    15A     -0.977293
      16A     -0.850828    17A     -0.806065    18A     -0.770213
      19A     -0.741248    20A     -0.685115    21A     -0.656670
      22A     -0.649015    23A     -0.620437    24A     -0.602784
      25A     -0.575599    26A     -0.570427    27A     -0.562038
      28A     -0.549249    29A     -0.544527    30A     -0.457317
      31A     -0.440472    32A     -0.398240    33A     -0.294138

  @DF-RHF Final Energy:  -435.60334375308031

   => Energetics <=

    Nuclear Repulsion Energy =            427.7779237674321848
    One-Electron Energy =               -1441.8385426890988583
    Two-Electron Energy =                 578.4572751685864205
    Total Energy =                       -435.6033437530802530
  Basis Set: (AUG-CC-PVTZ AUX)
    Blend: AUG-CC-PVTZ-RI
    Molecular point group: c1

    Geometry (in Angstrom), charge = 0, multiplicity = 1:

       Center              X                  Y                   Z               Mass
    ------------   -----------------  -----------------  -----------------  -----------------
         O           -1.459674035636    -1.183830499851    -0.009000235118    15.994914619570
         O            1.813096964364     1.375133500149    -0.019998235118    15.994914619570
         N            0.782043964364    -0.663757499851    -0.019991235118    14.003074004430
         C           -0.512259935636    -0.173574999851    -0.004476935118    12.000000000000
         C           -1.111393035636     1.047936500149     0.011956764882    12.000000000000
         C            1.894601964364     0.147916500149    -0.018809235118    12.000000000000
         C           -2.520293035636     0.793672500149     0.019023764882    12.000000000000
         C           -2.687088035636    -0.558787499851     0.006245764882    12.000000000000
         C            3.210562964364    -0.597080499851     0.031610764882    12.000000000000
         H            0.887669964364    -1.671263499851    -0.019853235118     1.007825032230
         H           -0.593226035636     1.992745500149     0.016823764882     1.007825032230
         H           -3.310653035636     1.531803500149     0.031947764882     1.007825032230
         H           -3.540635035636    -1.218757499851     0.005985764882     1.007825032230
         H            3.473200964364    -0.808580499851     1.072605764882     1.007825032230
         H            3.982325964364     0.043281500149    -0.395421235118     1.007825032230
         H            3.175873964364    -1.542356499851    -0.516463235118     1.007825032230

  Basis Set: AUG-CC-PVTZ
    Blend: AUG-CC-PVTZ
  Basis Set: (AUG-CC-PVTZ AUX)
    Blend: AUG-CC-PVTZ-JKFIT
	 Reference Energy          =    -435.6033437530803099 [Eh]
	 Singles Energy            =      -0.0000000000000000 [Eh]
	 Same-Spin Energy          =      -0.4469557241619351 [Eh]
	 Opposite-Spin Energy      =      -1.3695005338349748 [Eh]
	 Correlation Energy        =      -1.8164562579969099 [Eh]
	 Total Energy              =    -437.4198000110772000 [Eh]

	 ================> DF-SCS-MP2 Energies <==================
	-----------------------------------------------------------
	 SCS Same-Spin Scale       =       0.3333333333333333 [-]
	 SCS Opposite-Spin Scale   =       1.2000000000000000 [-]
	 SCS Same-Spin Energy      =      -0.1489852413873117 [Eh]
	 SCS Opposite-Spin Energy  =      -1.6434006406019697 [Eh]
	 SCS Correlation Energy    =      -1.7923858819892813 [Eh]
	 SCS Total Energy          =    -437.3957296350695856 [Eh]
	-----------------------------------------------------------

  Dipole Moment: [D]
     X:     0.2238      Y:    -2.9193      Z:     0.0781     Total:     2.9289

*** Psi4 exiting successfully. Buy a developer a beer!
