                               Psi4 1.3.2 release

  ==> Input File <==

--------------------------------------------------------------------------
#psi4
#
memory 32 gb

molecule  {
0 1
  O       -1.4890520    -1.1699510    -0.0104640
  O        1.7837190     1.3890130    -0.0214620
  N        0.7526660    -0.6498780    -0.0214550
  C       -0.5634190    -0.1971855    -0.0058734
  C       -1.1407710     1.0618160     0.0104930
  C        1.8652240     0.1617960    -0.0202730
  C       -2.5496710     0.8075520     0.0175600
  C       -2.7164660    -0.5449080     0.0047820
  C        3.1811850    -0.5832010     0.0301470
  H        0.8582920    -1.6573840    -0.0213170
  H       -0.6226040     2.0066250     0.0153600
  H       -3.3400310     1.5456830     0.0304840
  H       -3.5700130    -1.2048780     0.0045220
  H        3.4438230    -0.7947010     1.0711420
  H        3.9529480     0.0571610    -0.3968850
  H        3.1464960    -1.5284770    -0.5179270
units angstrom
no_reorient  #important for SAPT in psi4, default
symmetry c1  #important for SAPT in psi4, default
}

set PROPERTIES_ORIGIN ["COM"]
properties('MP2/aug-cc-pvtz', properties = ['dipole'])
--------------------------------------------------------------------------

    Molecular point group: c1
  Charge       = 0
  Multiplicity = 1
  Basis Set: AUG-CC-PVTZ
    Blend: AUG-CC-PVTZ
  Basis Set: (AUG-CC-PVTZ AUX)
    Blend: AUG-CC-PVTZ-JKFIT

    Orbital Energies [Eh]
    ---------------------

    Doubly Occupied:

       1A    -20.633077     2A    -20.535034     3A    -15.620008
       4A    -11.371883     5A    -11.340402     6A    -11.283312
       7A    -11.251113     8A    -11.234461     9A    -11.220478
      10A     -1.476040    11A     -1.389861    12A     -1.256675
      13A     -1.082364    14A     -1.037333    15A     -0.978064
      16A     -0.850769    17A     -0.806958    18A     -0.772381
      19A     -0.743024    20A     -0.684721    21A     -0.663457
      22A     -0.651913    23A     -0.622732    24A     -0.602971
      25A     -0.576147    26A     -0.570209    27A     -0.566720
      28A     -0.545746    29A     -0.543765    30A     -0.455249
      31A     -0.440023    32A     -0.397852    33A     -0.291191

  @DF-RHF Final Energy:  -435.60384142511487

   => Energetics <=

    Nuclear Repulsion Energy =            427.8901827455560465
    One-Electron Energy =               -1441.9961832373237485
    Two-Electron Energy =                 578.5021590666527800
    Total Energy =                       -435.6038414251148652
  Basis Set: (AUG-CC-PVTZ AUX)
    Blend: AUG-CC-PVTZ-RI
    Molecular point group: c1

    Geometry (in Angstrom), charge = 0, multiplicity = 1:

       Center              X                  Y                   Z               Mass
    ------------   -----------------  -----------------  -----------------  -----------------
         O           -1.457583847292    -1.180232832101    -0.009006693455    15.994914619570
         O            1.815187152708     1.378731167899    -0.020004693455    15.994914619570
         N            0.784134152708    -0.660159832101    -0.019997693455    14.003074004430
         C           -0.531950847292    -0.207467332101    -0.004416093455    12.000000000000
         C           -1.109302847292     1.051534167899     0.011950306545    12.000000000000
         C            1.896692152708     0.151514167899    -0.018815693455    12.000000000000
         C           -2.518202847292     0.797270167899     0.019017306545    12.000000000000
         C           -2.684997847292    -0.555189832101     0.006239306545    12.000000000000
         C            3.212653152708    -0.593482832101     0.031604306545    12.000000000000
         H            0.889760152708    -1.667665832101    -0.019859693455     1.007825032230
         H           -0.591135847292     1.996343167899     0.016817306545     1.007825032230
         H           -3.308562847292     1.535401167899     0.031941306545     1.007825032230
         H           -3.538544847292    -1.215159832101     0.005979306545     1.007825032230
         H            3.475291152708    -0.804982832101     1.072599306545     1.007825032230
         H            3.984416152708     0.046879167899    -0.395427693455     1.007825032230
         H            3.177964152708    -1.538758832101    -0.516469693455     1.007825032230

  Basis Set: AUG-CC-PVTZ
    Blend: AUG-CC-PVTZ
  Basis Set: (AUG-CC-PVTZ AUX)
    Blend: AUG-CC-PVTZ-JKFIT
	 Reference Energy          =    -435.6038414251148652 [Eh]
	 Singles Energy            =      -0.0000000000000000 [Eh]
	 Same-Spin Energy          =      -0.4470678609161489 [Eh]
	 Opposite-Spin Energy      =      -1.3689438539902898 [Eh]
	 Correlation Energy        =      -1.8160117149064388 [Eh]
	 Total Energy              =    -437.4198531400213028 [Eh]

	 ================> DF-SCS-MP2 Energies <==================
	-----------------------------------------------------------
	 SCS Same-Spin Scale       =       0.3333333333333333 [-]
	 SCS Opposite-Spin Scale   =       1.2000000000000000 [-]
	 SCS Same-Spin Energy      =      -0.1490226203053830 [Eh]
	 SCS Opposite-Spin Energy  =      -1.6427326247883478 [Eh]
	 SCS Correlation Energy    =      -1.7917552450937309 [Eh]
	 SCS Total Energy          =    -437.3955966702085902 [Eh]
	-----------------------------------------------------------

  Dipole Moment: [D]
     X:     0.1456      Y:    -2.9958      Z:     0.0775     Total:     3.0004

*** Psi4 exiting successfully. Buy a developer a beer!
