                               Psi4 1.3.2 release

  ==> Input File <==

--------------------------------------------------------------------------
#psi4
#
memory 32 gb

molecule  {
0 1
  O       -1.4890520    -1.1699510    -0.0104640
  O        1.7837190     1.3890130    -0.0214620
  N        0.7526660    -0.6498780    -0.0214550
  C       -0.4293107    -0.1063089    -0.0061808
  C       -1.1407710     1.0618160     0.0104930
  C        1.8652240     0.1617960    -0.0202730
  C       -2.5496710     0.8075520     0.0175600
  C       -2.7164660    -0.5449080     0.0047820
  C        3.1811850    -0.5832010     0.0301470
  H        0.8582920    -1.6573840    -0.0213170
  H       -0.6226040     2.0066250     0.0153600
  H       -3.3400310     1.5456830     0.0304840
  H       -3.5700130    -1.2048780     0.0045220
  H        3.4438230    -0.7947010     1.0711420
  H        3.9529480     0.0571610    -0.3968850
  H        3.1464960    -1.5284770    -0.5179270
units angstrom
no_reorient  #important for SAPT in psi4, default
symmetry c1  #important for SAPT in psi4, default
}

set PROPERTIES_ORIGIN ["COM"]
properties('MP2/aug-cc-pvtz', properties = ['dipole'])
--------------------------------------------------------------------------

    Molecular point group: c1
  Charge       = 0
  Multiplicity = 1
  Basis Set: AUG-CC-PVTZ
    Blend: AUG-CC-PVTZ
  Basis Set: (AUG-CC-PVTZ AUX)
    Blend: AUG-CC-PVTZ-JKFIT

    Orbital Energies [Eh]
    ---------------------

    Doubly Occupied:

       1A    -20.605340     2A    -20.544240     3A    -15.629067
       4A    -11.377532     5A    -11.339763     6A    -11.284231
       7A    -11.255431     8A    -11.227390     9A    -11.224321
      10A     -1.421535    11A     -1.396199    12A     -1.286856
      13A     -1.073453    14A     -1.043186    15A     -0.971662
      16A     -0.862555    17A     -0.818896    18A     -0.765858
      19A     -0.731075    20A     -0.689416    21A     -0.655654
      22A     -0.649207    23A     -0.611176    24A     -0.609637
      25A     -0.578470    26A     -0.565666    27A     -0.553304
      28A     -0.551956    29A     -0.524345    30A     -0.471727
      31A     -0.447527    32A     -0.392056    33A     -0.286046

  @DF-RHF Final Energy:  -435.57709359903589

   => Energetics <=

    Nuclear Repulsion Energy =            427.5866265451065829
    One-Electron Energy =               -1441.4378910426626135
    Two-Electron Energy =                 578.2741708985200830
    Total Energy =                       -435.5770935990359476
  Basis Set: (AUG-CC-PVTZ AUX)
    Blend: AUG-CC-PVTZ-RI
    Molecular point group: c1

    Geometry (in Angstrom), charge = 0, multiplicity = 1:

       Center              X                  Y                   Z               Mass
    ------------   -----------------  -----------------  -----------------  -----------------
         O           -1.470453335312    -1.188953659336    -0.008977194307    15.994914619570
         O            1.802317664688     1.370010340664    -0.019975194307    15.994914619570
         N            0.771264664688    -0.668880659336    -0.019968194307    14.003074004430
         C           -0.410712035312    -0.125311559336    -0.004693994307    12.000000000000
         C           -1.122172335312     1.042813340664     0.011979805693    12.000000000000
         C            1.883822664688     0.142793340664    -0.018786194307    12.000000000000
         C           -2.531072335312     0.788549340664     0.019046805693    12.000000000000
         C           -2.697867335312    -0.563910659336     0.006268805693    12.000000000000
         C            3.199783664688    -0.602203659336     0.031633805693    12.000000000000
         H            0.876890664688    -1.676386659336    -0.019830194307     1.007825032230
         H           -0.604005335312     1.987622340664     0.016846805693     1.007825032230
         H           -3.321432335312     1.526680340664     0.031970805693     1.007825032230
         H           -3.551414335312    -1.223880659336     0.006008805693     1.007825032230
         H            3.462421664688    -0.813703659336     1.072628805693     1.007825032230
         H            3.971546664688     0.038158340664    -0.395398194307     1.007825032230
         H            3.165094664688    -1.547479659336    -0.516440194307     1.007825032230

  Basis Set: AUG-CC-PVTZ
    Blend: AUG-CC-PVTZ
  Basis Set: (AUG-CC-PVTZ AUX)
    Blend: AUG-CC-PVTZ-JKFIT
	 Reference Energy          =    -435.5770935990358907 [Eh]
	 Singles Energy            =      -0.0000000000000000 [Eh]
	 Same-Spin Energy          =      -0.4488810273652540 [Eh]
	 Opposite-Spin Energy      =      -1.3736188493633514 [Eh]
	 Correlation Energy        =      -1.8224998767286054 [Eh]
	 Total Energy              =    -437.3995934757645045 [Eh]

	 ================> DF-SCS-MP2 Energies <==================
	-----------------------------------------------------------
	 SCS Same-Spin Scale       =       0.3333333333333333 [-]
	 SCS Opposite-Spin Scale   =       1.2000000000000000 [-]
	 SCS Same-Spin Energy      =      -0.1496270091217513 [Eh]
	 SCS Opposite-Spin Energy  =      -1.6483426192360218 [Eh]
	 SCS Correlation Energy    =      -1.7979696283577731 [Eh]
	 SCS Total Energy          =    -437.3750632273936390 [Eh]
	-----------------------------------------------------------

  Dipole Moment: [D]
     X:     0.8054      Y:    -2.8842      Z:     0.0753     Total:     2.9955

*** Psi4 exiting successfully. Buy a developer a beer!
