                               Psi4 1.3.2 release

  ==> Input File <==

--------------------------------------------------------------------------
#psi4
#
memory 32 gb

molecule  {
0 1
  O       -1.4890520    -1.1699510    -0.0104640
  O        1.7837190     1.3890130    -0.0214620
  N        0.7526660    -0.6498780    -0.0214550
  C       -0.5553190    -0.1742840    -0.0060060
  C       -1.1407710     1.0618160     0.0104930
  C        1.8058944     0.2374270    -0.0203389
  C       -2.5496710     0.8075520     0.0175600
  C       -2.7164660    -0.5449080     0.0047820
  C        3.1811850    -0.5832010     0.0301470
  H        0.8582920    -1.6573840    -0.0213170
  H       -0.6226040     2.0066250     0.0153600
  H       -3.3400310     1.5456830     0.0304840
  H       -3.5700130    -1.2048780     0.0045220
  H        3.4438230    -0.7947010     1.0711420
  H        3.9529480     0.0571610    -0.3968850
  H        3.1464960    -1.5284770    -0.5179270
units angstrom
no_reorient  #important for SAPT in psi4, default
symmetry c1  #important for SAPT in psi4, default
}

set PROPERTIES_ORIGIN ["COM"]
properties('MP2/aug-cc-pvtz', properties = ['dipole'])
--------------------------------------------------------------------------

    Molecular point group: c1
  Charge       = 0
  Multiplicity = 1
  Basis Set: AUG-CC-PVTZ
    Blend: AUG-CC-PVTZ
  Basis Set: (AUG-CC-PVTZ AUX)
    Blend: AUG-CC-PVTZ-JKFIT

    Orbital Energies [Eh]
    ---------------------

    Doubly Occupied:

       1A    -20.628756     2A    -20.546819     3A    -15.615800
       4A    -11.366947     5A    -11.337862     6A    -11.283855
       7A    -11.243112     8A    -11.234349     9A    -11.220538
      10A     -1.466839    11A     -1.443181    12A     -1.263396
      13A     -1.084258    14A     -1.018029    15A     -0.967748
      16A     -0.851420    17A     -0.802946    18A     -0.774346
      19A     -0.743654    20A     -0.692813    21A     -0.661030
      22A     -0.651175    23A     -0.622001    24A     -0.619865
      25A     -0.576913    26A     -0.566065    27A     -0.559557
      28A     -0.550352    29A     -0.548875    30A     -0.474414
      31A     -0.432186    32A     -0.399142    33A     -0.293641

  @DF-RHF Final Energy:  -435.59716593029822

   => Energetics <=

    Nuclear Repulsion Energy =            428.8593873685548488
    One-Electron Energy =               -1443.8293406568907358
    Two-Electron Energy =                 579.3727873580377263
    Total Energy =                       -435.5971659302981607
  Basis Set: (AUG-CC-PVTZ AUX)
    Blend: AUG-CC-PVTZ-RI
    Molecular point group: c1

    Geometry (in Angstrom), charge = 0, multiplicity = 1:

       Center              X                  Y                   Z               Mass
    ------------   -----------------  -----------------  -----------------  -----------------
         O           -1.452667680854    -1.189688345506    -0.008987644721    15.994914619570
         O            1.820103319146     1.369275654494    -0.019985644721    15.994914619570
         N            0.789050319146    -0.669615345506    -0.019978644721    14.003074004430
         C           -0.518934680854    -0.194021345506    -0.004529644721    12.000000000000
         C           -1.104386680854     1.042078654494     0.011969355279    12.000000000000
         C            1.842278719146     0.217689654494    -0.018862544721    12.000000000000
         C           -2.513286680854     0.787814654494     0.019036355279    12.000000000000
         C           -2.680081680854    -0.564645345506     0.006258355279    12.000000000000
         C            3.217569319146    -0.602938345506     0.031623355279    12.000000000000
         H            0.894676319146    -1.677121345506    -0.019840644721     1.007825032230
         H           -0.586219680854     1.986887654494     0.016836355279     1.007825032230
         H           -3.303646680854     1.525945654494     0.031960355279     1.007825032230
         H           -3.533628680854    -1.224615345506     0.005998355279     1.007825032230
         H            3.480207319146    -0.814438345506     1.072618355279     1.007825032230
         H            3.989332319146     0.037423654494    -0.395408644721     1.007825032230
         H            3.182880319146    -1.548214345506    -0.516450644721     1.007825032230

  Basis Set: AUG-CC-PVTZ
    Blend: AUG-CC-PVTZ
  Basis Set: (AUG-CC-PVTZ AUX)
    Blend: AUG-CC-PVTZ-JKFIT
	 Reference Energy          =    -435.5971659302982175 [Eh]
	 Singles Energy            =      -0.0000000000000000 [Eh]
	 Same-Spin Energy          =      -0.4450427908076964 [Eh]
	 Opposite-Spin Energy      =      -1.3656840854886965 [Eh]
	 Correlation Energy        =      -1.8107268762963928 [Eh]
	 Total Energy              =    -437.4078928065945888 [Eh]

	 ================> DF-SCS-MP2 Energies <==================
	-----------------------------------------------------------
	 SCS Same-Spin Scale       =       0.3333333333333333 [-]
	 SCS Opposite-Spin Scale   =       1.2000000000000000 [-]
	 SCS Same-Spin Energy      =      -0.1483475969358988 [Eh]
	 SCS Opposite-Spin Energy  =      -1.6388209025864358 [Eh]
	 SCS Correlation Energy    =      -1.7871684995223345 [Eh]
	 SCS Total Energy          =    -437.3843344298205693 [Eh]
	-----------------------------------------------------------

  Dipole Moment: [D]
     X:    -0.0194      Y:    -2.4842      Z:     0.0608     Total:     2.4850

*** Psi4 exiting successfully. Buy a developer a beer!
