                               Psi4 1.3.2 release

  ==> Input File <==

--------------------------------------------------------------------------
#psi4
#
memory 32 gb

molecule  {
0 1
  O       -1.4890520    -1.1699510    -0.0104640
  O        1.7837190     1.3890130    -0.0214620
  N        0.7526660    -0.6498780    -0.0214550
  C       -0.5978810    -0.3136098    -0.0073263
  C       -1.1407710     1.0618160     0.0104930
  C        1.8652240     0.1617960    -0.0202730
  C       -2.5496710     0.8075520     0.0175600
  C       -2.7164660    -0.5449080     0.0047820
  C        3.1811850    -0.5832010     0.0301470
  H        0.8582920    -1.6573840    -0.0213170
  H       -0.6226040     2.0066250     0.0153600
  H       -3.3400310     1.5456830     0.0304840
  H       -3.5700130    -1.2048780     0.0045220
  H        3.4438230    -0.7947010     1.0711420
  H        3.9529480     0.0571610    -0.3968850
  H        3.1464960    -1.5284770    -0.5179270
units angstrom
no_reorient  #important for SAPT in psi4, default
symmetry c1  #important for SAPT in psi4, default
}

set PROPERTIES_ORIGIN ["COM"]
properties('MP2/aug-cc-pvtz', properties = ['dipole'])
--------------------------------------------------------------------------

    Molecular point group: c1
  Charge       = 0
  Multiplicity = 1
  Basis Set: AUG-CC-PVTZ
    Blend: AUG-CC-PVTZ
  Basis Set: (AUG-CC-PVTZ AUX)
    Blend: AUG-CC-PVTZ-JKFIT

    Orbital Energies [Eh]
    ---------------------

    Doubly Occupied:

       1A    -20.651376     2A    -20.536310     3A    -15.622098
       4A    -11.375462     5A    -11.351117     6A    -11.275417
       7A    -11.253088     8A    -11.236197     9A    -11.218385
      10A     -1.530333    11A     -1.390603    12A     -1.260151
      13A     -1.078222    14A     -1.040004    15A     -0.981548
      16A     -0.853081    17A     -0.817968    18A     -0.777597
      19A     -0.747940    20A     -0.690122    21A     -0.685699
      22A     -0.661827    23A     -0.627386    24A     -0.605731
      25A     -0.584855    26A     -0.577432    27A     -0.554670
      28A     -0.544927    29A     -0.524573    30A     -0.454306
      31A     -0.441551    32A     -0.396272    33A     -0.276959

  @DF-RHF Final Energy:  -435.57940487980625

   => Energetics <=

    Nuclear Repulsion Energy =            428.2515471608853659
    One-Electron Energy =               -1442.4154901708923262
    Two-Electron Energy =                 578.5845381302007127
    Total Energy =                       -435.5794048798062477
  Basis Set: (AUG-CC-PVTZ AUX)
    Blend: AUG-CC-PVTZ-RI
    Molecular point group: c1

    Geometry (in Angstrom), charge = 0, multiplicity = 1:

       Center              X                  Y                   Z               Mass
    ------------   -----------------  -----------------  -----------------  -----------------
         O           -1.454276756708    -1.169060360792    -0.008867268236    15.994914619570
         O            1.818494243292     1.389903639208    -0.019865268236    15.994914619570
         N            0.787441243292    -0.648987360792    -0.019858268236    14.003074004430
         C           -0.563105756708    -0.312719160792    -0.005729568236    12.000000000000
         C           -1.105995756708     1.062706639208     0.012089731764    12.000000000000
         C            1.899999243292     0.162686639208    -0.018676268236    12.000000000000
         C           -2.514895756708     0.808442639208     0.019156731764    12.000000000000
         C           -2.681690756708    -0.544017360792     0.006378731764    12.000000000000
         C            3.215960243292    -0.582310360792     0.031743731764    12.000000000000
         H            0.893067243292    -1.656493360792    -0.019720268236     1.007825032230
         H           -0.587828756708     2.007515639208     0.016956731764     1.007825032230
         H           -3.305255756708     1.546573639208     0.032080731764     1.007825032230
         H           -3.535237756708    -1.203987360792     0.006118731764     1.007825032230
         H            3.478598243292    -0.793810360792     1.072738731764     1.007825032230
         H            3.987723243292     0.058051639208    -0.395288268236     1.007825032230
         H            3.181271243292    -1.527586360792    -0.516330268236     1.007825032230

  Basis Set: AUG-CC-PVTZ
    Blend: AUG-CC-PVTZ
  Basis Set: (AUG-CC-PVTZ AUX)
    Blend: AUG-CC-PVTZ-JKFIT
	 Reference Energy          =    -435.5794048798062477 [Eh]
	 Singles Energy            =      -0.0000000000000000 [Eh]
	 Same-Spin Energy          =      -0.4480190412676333 [Eh]
	 Opposite-Spin Energy      =      -1.3684093446541392 [Eh]
	 Correlation Energy        =      -1.8164283859217725 [Eh]
	 Total Energy              =    -437.3958332657280152 [Eh]

	 ================> DF-SCS-MP2 Energies <==================
	-----------------------------------------------------------
	 SCS Same-Spin Scale       =       0.3333333333333333 [-]
	 SCS Opposite-Spin Scale   =       1.2000000000000000 [-]
	 SCS Same-Spin Energy      =      -0.1493396804225444 [Eh]
	 SCS Opposite-Spin Energy  =      -1.6420912135849670 [Eh]
	 SCS Correlation Energy    =      -1.7914308940075114 [Eh]
	 SCS Total Energy          =    -437.3708357738137806 [Eh]
	-----------------------------------------------------------

  Dipole Moment: [D]
     X:     0.1228      Y:    -3.2720      Z:     0.0735     Total:     3.2751

*** Psi4 exiting successfully. Buy a developer a beer!
