                               Psi4 1.3.2 release

  ==> Input File <==

--------------------------------------------------------------------------
#psi4
#
memory 32 gb

molecule  {
0 1
  O       -1.5562286    -1.1024003    -0.0091704
  O        1.7837190     1.3890130    -0.0214620
  N        0.7526660    -0.6498780    -0.0214550
  C       -0.5553190    -0.1742840    -0.0060060
  C       -1.1407710     1.0618160     0.0104930
  C        1.8652240     0.1617960    -0.0202730
  C       -2.5496710     0.8075520     0.0175600
  C       -2.7164660    -0.5449080     0.0047820
  C        3.1811850    -0.5832010     0.0301470
  H        0.8582920    -1.6573840    -0.0213170
  H       -0.6226040     2.0066250     0.0153600
  H       -3.3400310     1.5456830     0.0304840
  H       -3.5700130    -1.2048780     0.0045220
  H        3.4438230    -0.7947010     1.0711420
  H        3.9529480     0.0571610    -0.3968850
  H        3.1464960    -1.5284770    -0.5179270
units angstrom
no_reorient  #important for SAPT in psi4, default
symmetry c1  #important for SAPT in psi4, default
}

set PROPERTIES_ORIGIN ["COM"]
properties('MP2/aug-cc-pvtz', properties = ['dipole'])
--------------------------------------------------------------------------

    Molecular point group: c1
  Charge       = 0
  Multiplicity = 1
  Basis Set: AUG-CC-PVTZ
    Blend: AUG-CC-PVTZ
  Basis Set: (AUG-CC-PVTZ AUX)
    Blend: AUG-CC-PVTZ-JKFIT

    Orbital Energies [Eh]
    ---------------------

    Doubly Occupied:

       1A    -20.630950     2A    -20.535329     3A    -15.622573
       4A    -11.372620     5A    -11.334965     6A    -11.279467
       7A    -11.251697     8A    -11.222018     9A    -11.219956
      10A     -1.497456    11A     -1.391050    12A     -1.260177
      13A     -1.077437    14A     -1.041191    15A     -0.988599
      16A     -0.850342    17A     -0.812726    18A     -0.774810
      19A     -0.744987    20A     -0.687521    21A     -0.672119
      22A     -0.664977    23A     -0.626534    24A     -0.603785
      25A     -0.575698    26A     -0.569597    27A     -0.559425
      28A     -0.547438    29A     -0.537190    30A     -0.459169
      31A     -0.440680    32A     -0.388946    33A     -0.291832

  @DF-RHF Final Energy:  -435.59911404470006

   => Energetics <=

    Nuclear Repulsion Energy =            429.4707204963717118
    One-Electron Energy =               -1445.0731459004139197
    Two-Electron Energy =                 580.0033113593420921
    Total Energy =                       -435.5991140447000589
  Basis Set: (AUG-CC-PVTZ AUX)
    Blend: AUG-CC-PVTZ-RI
    Molecular point group: c1

    Geometry (in Angstrom), charge = 0, multiplicity = 1:

       Center              X                  Y                   Z               Mass
    ------------   -----------------  -----------------  -----------------  -----------------
         O           -1.516945156409    -1.123520283561    -0.007865833768    15.994914619570
         O            1.823002443591     1.367893016439    -0.020157433768    15.994914619570
         N            0.791949443591    -0.670997983561    -0.020150433768    14.003074004430
         C           -0.516035556409    -0.195403983561    -0.004701433768    12.000000000000
         C           -1.101487556409     1.040696016439     0.011797566232    12.000000000000
         C            1.904507443591     0.140676016439    -0.018968433768    12.000000000000
         C           -2.510387556409     0.786432016439     0.018864566232    12.000000000000
         C           -2.677182556409    -0.566027983561     0.006086566232    12.000000000000
         C            3.220468443591    -0.604320983561     0.031451566232    12.000000000000
         H            0.897575443591    -1.678503983561    -0.020012433768     1.007825032230
         H           -0.583320556409     1.985505016439     0.016664566232     1.007825032230
         H           -3.300747556409     1.524563016439     0.031788566232     1.007825032230
         H           -3.530729556409    -1.225997983561     0.005826566232     1.007825032230
         H            3.483106443591    -0.815820983561     1.072446566232     1.007825032230
         H            3.992231443591     0.036041016439    -0.395580433768     1.007825032230
         H            3.185779443591    -1.549596983561    -0.516622433768     1.007825032230

  Basis Set: AUG-CC-PVTZ
    Blend: AUG-CC-PVTZ
  Basis Set: (AUG-CC-PVTZ AUX)
    Blend: AUG-CC-PVTZ-JKFIT
	 Reference Energy          =    -435.5991140447000589 [Eh]
	 Singles Energy            =      -0.0000000000000000 [Eh]
	 Same-Spin Energy          =      -0.4471876200961360 [Eh]
	 Opposite-Spin Energy      =      -1.3671632109893190 [Eh]
	 Correlation Energy        =      -1.8143508310854550 [Eh]
	 Total Energy              =    -437.4134648757855075 [Eh]

	 ================> DF-SCS-MP2 Energies <==================
	-----------------------------------------------------------
	 SCS Same-Spin Scale       =       0.3333333333333333 [-]
	 SCS Opposite-Spin Scale   =       1.2000000000000000 [-]
	 SCS Same-Spin Energy      =      -0.1490625400320453 [Eh]
	 SCS Opposite-Spin Energy  =      -1.6405958531871827 [Eh]
	 SCS Correlation Energy    =      -1.7896583932192280 [Eh]
	 SCS Total Energy          =    -437.3887724379192719 [Eh]
	-----------------------------------------------------------

  Dipole Moment: [D]
     X:     0.3535      Y:    -3.2437      Z:     0.0737     Total:     3.2637

*** Psi4 exiting successfully. Buy a developer a beer!
