                               Psi4 1.3.2 release

  ==> Input File <==

--------------------------------------------------------------------------
#psi4
#
memory 32 gb

molecule  {
0 1
  O       -1.4890520    -1.1699510    -0.0104640
  O        1.7837190     1.3890130    -0.0214620
  N        0.7526660    -0.6498780    -0.0214550
  C       -0.5125342    -0.1530960    -0.0061468
  C       -1.1407710     1.0618160     0.0104930
  C        1.8652240     0.1617960    -0.0202730
  C       -2.5496710     0.8075520     0.0175600
  C       -2.7164660    -0.5449080     0.0047820
  C        3.1811850    -0.5832010     0.0301470
  H        0.8582920    -1.6573840    -0.0213170
  H       -0.6226040     2.0066250     0.0153600
  H       -3.3400310     1.5456830     0.0304840
  H       -3.5700130    -1.2048780     0.0045220
  H        3.4438230    -0.7947010     1.0711420
  H        3.9529480     0.0571610    -0.3968850
  H        3.1464960    -1.5284770    -0.5179270
units angstrom
no_reorient  #important for SAPT in psi4, default
symmetry c1  #important for SAPT in psi4, default
}

set PROPERTIES_ORIGIN ["COM"]
properties('MP2/aug-cc-pvtz', properties = ['dipole'])
--------------------------------------------------------------------------

    Molecular point group: c1
  Charge       = 0
  Multiplicity = 1
  Basis Set: AUG-CC-PVTZ
    Blend: AUG-CC-PVTZ
  Basis Set: (AUG-CC-PVTZ AUX)
    Blend: AUG-CC-PVTZ-JKFIT

    Orbital Energies [Eh]
    ---------------------

    Doubly Occupied:

       1A    -20.621615     2A    -20.538029     3A    -15.623051
       4A    -11.373413     5A    -11.338222     6A    -11.284586
       7A    -11.252387     8A    -11.231689     9A    -11.221599
      10A     -1.447814    11A     -1.393299    12A     -1.266642
      13A     -1.079870    14A     -1.038845    15A     -0.975629
      16A     -0.854021    17A     -0.808437    18A     -0.769159
      19A     -0.739222    20A     -0.686404    21A     -0.655086
      22A     -0.649927    23A     -0.618863    24A     -0.604948
      25A     -0.574168    26A     -0.571383    27A     -0.557074
      28A     -0.547404    29A     -0.546216    30A     -0.461325
      31A     -0.442490    32A     -0.396152    33A     -0.291149

  @DF-RHF Final Energy:  -435.59988015795312

   => Energetics <=

    Nuclear Repulsion Energy =            427.7115876697370140
    One-Electron Energy =               -1441.7027044971794112
    Two-Electron Energy =                 578.3912366694892171
    Total Energy =                       -435.5998801579531801
  Basis Set: (AUG-CC-PVTZ AUX)
    Blend: AUG-CC-PVTZ-RI
    Molecular point group: c1

    Geometry (in Angstrom), charge = 0, multiplicity = 1:

       Center              X                  Y                   Z               Mass
    ------------   -----------------  -----------------  -----------------  -----------------
         O           -1.462466925550    -1.184463810289    -0.008980457062    15.994914619570
         O            1.810304074450     1.374500189711    -0.019978457062    15.994914619570
         N            0.779251074450    -0.664390810289    -0.019971457062    14.003074004430
         C           -0.485949125550    -0.167608810289    -0.004663257062    12.000000000000
         C           -1.114185925550     1.047303189711     0.011976542938    12.000000000000
         C            1.891809074450     0.147283189711    -0.018789457062    12.000000000000
         C           -2.523085925550     0.793039189711     0.019043542938    12.000000000000
         C           -2.689880925550    -0.559420810289     0.006265542938    12.000000000000
         C            3.207770074450    -0.597713810289     0.031630542938    12.000000000000
         H            0.884877074450    -1.671896810289    -0.019833457062     1.007825032230
         H           -0.596018925550     1.992112189711     0.016843542938     1.007825032230
         H           -3.313445925550     1.531170189711     0.031967542938     1.007825032230
         H           -3.543427925550    -1.219390810289     0.006005542938     1.007825032230
         H            3.470408074450    -0.809213810289     1.072625542938     1.007825032230
         H            3.979533074450     0.042648189711    -0.395401457062     1.007825032230
         H            3.173081074450    -1.542989810289    -0.516443457062     1.007825032230

  Basis Set: AUG-CC-PVTZ
    Blend: AUG-CC-PVTZ
  Basis Set: (AUG-CC-PVTZ AUX)
    Blend: AUG-CC-PVTZ-JKFIT
	 Reference Energy          =    -435.5998801579531232 [Eh]
	 Singles Energy            =      -0.0000000000000000 [Eh]
	 Same-Spin Energy          =      -0.4474190469233084 [Eh]
	 Opposite-Spin Energy      =      -1.3703933196073661 [Eh]
	 Correlation Energy        =      -1.8178123665306745 [Eh]
	 Total Energy              =    -437.4176925244838117 [Eh]

	 ================> DF-SCS-MP2 Energies <==================
	-----------------------------------------------------------
	 SCS Same-Spin Scale       =       0.3333333333333333 [-]
	 SCS Opposite-Spin Scale   =       1.2000000000000000 [-]
	 SCS Same-Spin Energy      =      -0.1491396823077694 [Eh]
	 SCS Opposite-Spin Energy  =      -1.6444719835288393 [Eh]
	 SCS Correlation Energy    =      -1.7936116658366088 [Eh]
	 SCS Total Energy          =    -437.3934918237897591 [Eh]
	-----------------------------------------------------------

  Dipole Moment: [D]
     X:     0.3787      Y:    -2.9246      Z:     0.0772     Total:     2.9500

*** Psi4 exiting successfully. Buy a developer a beer!
