                               Psi4 1.3.2 release

  ==> Input File <==

--------------------------------------------------------------------------
#psi4
#
memory 32 gb

molecule  {
0 1
  O       -1.4890520    -1.1699510    -0.0104640
  O        1.7837190     1.3890130    -0.0214620
  N        0.7526660    -0.6498780    -0.0214550
  C       -0.5553190    -0.1742840    -0.0060060
  C       -1.1407710     1.0618160     0.0104930
  C        1.9439723     0.0410555    -0.0201851
  C       -2.5496710     0.8075520     0.0175600
  C       -2.7164660    -0.5449080     0.0047820
  C        3.1811850    -0.5832010     0.0301470
  H        0.8582920    -1.6573840    -0.0213170
  H       -0.6226040     2.0066250     0.0153600
  H       -3.3400310     1.5456830     0.0304840
  H       -3.5700130    -1.2048780     0.0045220
  H        3.4438230    -0.7947010     1.0711420
  H        3.9529480     0.0571610    -0.3968850
  H        3.1464960    -1.5284770    -0.5179270
units angstrom
no_reorient  #important for SAPT in psi4, default
symmetry c1  #important for SAPT in psi4, default
}

set PROPERTIES_ORIGIN ["COM"]
properties('MP2/aug-cc-pvtz', properties = ['dipole'])
--------------------------------------------------------------------------

    Molecular point group: c1
  Charge       = 0
  Multiplicity = 1
  Basis Set: AUG-CC-PVTZ
    Blend: AUG-CC-PVTZ
  Basis Set: (AUG-CC-PVTZ AUX)
    Blend: AUG-CC-PVTZ-JKFIT

    Orbital Energies [Eh]
    ---------------------

    Doubly Occupied:

       1A    -20.631496     2A    -20.516157     3A    -15.629516
       4A    -11.378502     5A    -11.341151     6A    -11.286927
       7A    -11.255999     8A    -11.234532     9A    -11.222208
      10A     -1.468090    11A     -1.334228    12A     -1.232608
      13A     -1.086210    14A     -1.072806    15A     -0.988333
      16A     -0.851414    17A     -0.810138    18A     -0.768142
      19A     -0.740885    20A     -0.693029    21A     -0.661885
      22A     -0.652268    23A     -0.632962    24A     -0.604081
      25A     -0.574935    26A     -0.567397    27A     -0.554580
      28A     -0.539067    29A     -0.534605    30A     -0.426991
      31A     -0.421068    32A     -0.398608    33A     -0.295098

  @DF-RHF Final Energy:  -435.56170933911977

   => Energetics <=

    Nuclear Repulsion Energy =            426.6522150217043645
    One-Electron Energy =               -1439.6160142157730206
    Two-Electron Energy =                 577.4020898549488265
    Total Energy =                       -435.5617093391198296
  Basis Set: (AUG-CC-PVTZ AUX)
    Blend: AUG-CC-PVTZ-RI
    Molecular point group: c1

    Geometry (in Angstrom), charge = 0, multiplicity = 1:

       Center              X                  Y                   Z               Mass
    ------------   -----------------  -----------------  -----------------  -----------------
         O           -1.465918105174    -1.170843869312    -0.009002403891    15.994914619570
         O            1.806852894826     1.388120130688    -0.020000403891    15.994914619570
         N            0.775799894826    -0.650770869312    -0.019993403891    14.003074004430
         C           -0.532185105174    -0.175176869312    -0.004544403891    12.000000000000
         C           -1.117637105174     1.060923130688     0.011954596109    12.000000000000
         C            1.967106194826     0.040162630688    -0.018723503891    12.000000000000
         C           -2.526537105174     0.806659130688     0.019021596109    12.000000000000
         C           -2.693332105174    -0.545800869312     0.006243596109    12.000000000000
         C            3.204318894826    -0.584093869312     0.031608596109    12.000000000000
         H            0.881425894826    -1.658276869312    -0.019855403891     1.007825032230
         H           -0.599470105174     2.005732130688     0.016821596109     1.007825032230
         H           -3.316897105174     1.544790130688     0.031945596109     1.007825032230
         H           -3.546879105174    -1.205770869312     0.005983596109     1.007825032230
         H            3.466956894826    -0.795593869312     1.072603596109     1.007825032230
         H            3.976081894826     0.056268130688    -0.395423403891     1.007825032230
         H            3.169629894826    -1.529369869312    -0.516465403891     1.007825032230

  Basis Set: AUG-CC-PVTZ
    Blend: AUG-CC-PVTZ
  Basis Set: (AUG-CC-PVTZ AUX)
    Blend: AUG-CC-PVTZ-JKFIT
	 Reference Energy          =    -435.5617093391197727 [Eh]
	 Singles Energy            =      -0.0000000000000000 [Eh]
	 Same-Spin Energy          =      -0.4512633451065313 [Eh]
	 Opposite-Spin Energy      =      -1.3771217054939238 [Eh]
	 Correlation Energy        =      -1.8283850506004551 [Eh]
	 Total Energy              =    -437.3900943897202183 [Eh]

	 ================> DF-SCS-MP2 Energies <==================
	-----------------------------------------------------------
	 SCS Same-Spin Scale       =       0.3333333333333333 [-]
	 SCS Opposite-Spin Scale   =       1.2000000000000000 [-]
	 SCS Same-Spin Energy      =      -0.1504211150355104 [Eh]
	 SCS Opposite-Spin Energy  =      -1.6525460465927084 [Eh]
	 SCS Correlation Energy    =      -1.8029671616282188 [Eh]
	 SCS Total Energy          =    -437.3646765007479758 [Eh]
	-----------------------------------------------------------

  Dipole Moment: [D]
     X:     0.2298      Y:    -3.5270      Z:     0.1052     Total:     3.5361

*** Psi4 exiting successfully. Buy a developer a beer!
