                               Psi4 1.3.2 release

  ==> Input File <==

--------------------------------------------------------------------------
#psi4
#
memory 32 gb

molecule  {
0 1
  O       -1.4890520    -1.1699510    -0.0104640
  O        1.7837190     1.3890130    -0.0214620
  N        0.7162966    -0.7399617    -0.0219931
  C       -0.5553190    -0.1742840    -0.0060060
  C       -1.1407710     1.0618160     0.0104930
  C        1.8652240     0.1617960    -0.0202730
  C       -2.5496710     0.8075520     0.0175600
  C       -2.7164660    -0.5449080     0.0047820
  C        3.1811850    -0.5832010     0.0301470
  H        0.8582920    -1.6573840    -0.0213170
  H       -0.6226040     2.0066250     0.0153600
  H       -3.3400310     1.5456830     0.0304840
  H       -3.5700130    -1.2048780     0.0045220
  H        3.4438230    -0.7947010     1.0711420
  H        3.9529480     0.0571610    -0.3968850
  H        3.1464960    -1.5284770    -0.5179270
units angstrom
no_reorient  #important for SAPT in psi4, default
symmetry c1  #important for SAPT in psi4, default
}

set PROPERTIES_ORIGIN ["COM"]
properties('MP2/aug-cc-pvtz', properties = ['dipole'])
--------------------------------------------------------------------------

    Molecular point group: c1
  Charge       = 0
  Multiplicity = 1
  Basis Set: AUG-CC-PVTZ
    Blend: AUG-CC-PVTZ
  Basis Set: (AUG-CC-PVTZ AUX)
    Blend: AUG-CC-PVTZ-JKFIT

    Orbital Energies [Eh]
    ---------------------

    Doubly Occupied:

       1A    -20.622963     2A    -20.551081     3A    -15.610520
       4A    -11.384188     5A    -11.337634     6A    -11.280910
       7A    -11.253616     8A    -11.231955     9A    -11.219625
      10A     -1.463066    11A     -1.393357    12A     -1.252757
      13A     -1.082054    14A     -1.035173    15A     -0.977116
      16A     -0.839909    17A     -0.805727    18A     -0.781651
      19A     -0.744490    20A     -0.685633    21A     -0.654468
      22A     -0.644820    23A     -0.620298    24A     -0.613330
      25A     -0.575925    26A     -0.569835    27A     -0.562263
      28A     -0.548144    29A     -0.538759    30A     -0.463154
      31A     -0.445729    32A     -0.396841    33A     -0.290466

  @DF-RHF Final Energy:  -435.58922852982334

   => Energetics <=

    Nuclear Repulsion Energy =            426.7610719026563970
    One-Electron Energy =               -1439.7456844810619714
    Two-Electron Energy =                 577.3953840485822866
    Total Energy =                       -435.5892285298233446
  Basis Set: (AUG-CC-PVTZ AUX)
    Blend: AUG-CC-PVTZ-RI
    Molecular point group: c1

    Geometry (in Angstrom), charge = 0, multiplicity = 1:

       Center              X                  Y                   Z               Mass
    ------------   -----------------  -----------------  -----------------  -----------------
         O           -1.454288437055    -1.172342795839    -0.008933711260    15.994914619570
         O            1.818482562945     1.386621204161    -0.019931711260    15.994914619570
         N            0.751060162945    -0.742353495839    -0.020462811260    14.003074004430
         C           -0.520555437055    -0.176675795839    -0.004475711260    12.000000000000
         C           -1.106007437055     1.059424204161     0.012023288740    12.000000000000
         C            1.899987562945     0.159404204161    -0.018742711260    12.000000000000
         C           -2.514907437055     0.805160204161     0.019090288740    12.000000000000
         C           -2.681702437055    -0.547299795839     0.006312288740    12.000000000000
         C            3.215948562945    -0.585592795839     0.031677288740    12.000000000000
         H            0.893055562945    -1.659775795839    -0.019786711260     1.007825032230
         H           -0.587840437055     2.004233204161     0.016890288740     1.007825032230
         H           -3.305267437055     1.543291204161     0.032014288740     1.007825032230
         H           -3.535249437055    -1.207269795839     0.006052288740     1.007825032230
         H            3.478586562945    -0.797092795839     1.072672288740     1.007825032230
         H            3.987711562945     0.054769204161    -0.395354711260     1.007825032230
         H            3.181259562945    -1.530868795839    -0.516396711260     1.007825032230

  Basis Set: AUG-CC-PVTZ
    Blend: AUG-CC-PVTZ
  Basis Set: (AUG-CC-PVTZ AUX)
    Blend: AUG-CC-PVTZ-JKFIT
	 Reference Energy          =    -435.5892285298233446 [Eh]
	 Singles Energy            =      -0.0000000000000000 [Eh]
	 Same-Spin Energy          =      -0.4467756495737640 [Eh]
	 Opposite-Spin Energy      =      -1.3698963206682584 [Eh]
	 Correlation Energy        =      -1.8166719702420224 [Eh]
	 Total Energy              =    -437.4059005000653428 [Eh]

	 ================> DF-SCS-MP2 Energies <==================
	-----------------------------------------------------------
	 SCS Same-Spin Scale       =       0.3333333333333333 [-]
	 SCS Opposite-Spin Scale   =       1.2000000000000000 [-]
	 SCS Same-Spin Energy      =      -0.1489252165245880 [Eh]
	 SCS Opposite-Spin Energy  =      -1.6438755848019100 [Eh]
	 SCS Correlation Energy    =      -1.7928008013264980 [Eh]
	 SCS Total Energy          =    -437.3820293311498517 [Eh]
	-----------------------------------------------------------

  Dipole Moment: [D]
     X:     0.5862      Y:    -2.6423      Z:     0.0828     Total:     2.7078

*** Psi4 exiting successfully. Buy a developer a beer!
