                               Psi4 1.3.2 release

  ==> Input File <==

--------------------------------------------------------------------------
#psi4
#
memory 32 gb

molecule  {
0 1
  O       -1.4890520    -1.1699510    -0.0104640
  O        1.7837190     1.3890130    -0.0214620
  N        0.7526660    -0.6498780    -0.0214550
  C       -0.5211407    -0.2074736    -0.0066028
  C       -1.1407710     1.0618160     0.0104930
  C        1.8652240     0.1617960    -0.0202730
  C       -2.5496710     0.8075520     0.0175600
  C       -2.7164660    -0.5449080     0.0047820
  C        3.1811850    -0.5832010     0.0301470
  H        0.8582920    -1.6573840    -0.0213170
  H       -0.6226040     2.0066250     0.0153600
  H       -3.3400310     1.5456830     0.0304840
  H       -3.5700130    -1.2048780     0.0045220
  H        3.4438230    -0.7947010     1.0711420
  H        3.9529480     0.0571610    -0.3968850
  H        3.1464960    -1.5284770    -0.5179270
units angstrom
no_reorient  #important for SAPT in psi4, default
symmetry c1  #important for SAPT in psi4, default
}

set PROPERTIES_ORIGIN ["COM"]
properties('MP2/aug-cc-pvtz', properties = ['dipole'])
--------------------------------------------------------------------------

    Molecular point group: c1
  Charge       = 0
  Multiplicity = 1
  Basis Set: AUG-CC-PVTZ
    Blend: AUG-CC-PVTZ
  Basis Set: (AUG-CC-PVTZ AUX)
    Blend: AUG-CC-PVTZ-JKFIT

    Orbital Energies [Eh]
    ---------------------

    Doubly Occupied:

       1A    -20.628784     2A    -20.539062     3A    -15.624288
       4A    -11.375254     5A    -11.341987     6A    -11.281346
       7A    -11.253529     8A    -11.232220     9A    -11.221422
      10A     -1.464699    11A     -1.394433    12A     -1.271231
      13A     -1.074258    14A     -1.041318    15A     -0.975115
      16A     -0.856817    17A     -0.810643    18A     -0.771198
      19A     -0.740600    20A     -0.687082    21A     -0.661707
      22A     -0.654935    23A     -0.622648    24A     -0.606684
      25A     -0.576351    26A     -0.568798    27A     -0.558994
      28A     -0.548472    29A     -0.541984    30A     -0.461921
      31A     -0.443652    32A     -0.393762    33A     -0.283856

  @DF-RHF Final Energy:  -435.59894020006243

   => Energetics <=

    Nuclear Repulsion Energy =            427.8119527420136023
    One-Electron Energy =               -1441.8036923351373844
    Two-Electron Energy =                 578.3927993930614093
    Total Energy =                       -435.5989402000624295
  Basis Set: (AUG-CC-PVTZ AUX)
    Blend: AUG-CC-PVTZ-RI
    Molecular point group: c1

    Geometry (in Angstrom), charge = 0, multiplicity = 1:

       Center              X                  Y                   Z               Mass
    ------------   -----------------  -----------------  -----------------  -----------------
         O           -1.461641016575    -1.179245551078    -0.008936697753    15.994914619570
         O            1.811129983425     1.379718448922    -0.019934697753    15.994914619570
         N            0.780076983425    -0.659172551078    -0.019927697753    14.003074004430
         C           -0.493729716575    -0.216768151078    -0.005075497753    12.000000000000
         C           -1.113360016575     1.052521448922     0.012020302247    12.000000000000
         C            1.892634983425     0.152501448922    -0.018745697753    12.000000000000
         C           -2.522260016575     0.798257448922     0.019087302247    12.000000000000
         C           -2.689055016575    -0.554202551078     0.006309302247    12.000000000000
         C            3.208595983425    -0.592495551078     0.031674302247    12.000000000000
         H            0.885702983425    -1.666678551078    -0.019789697753     1.007825032230
         H           -0.595193016575     1.997330448922     0.016887302247     1.007825032230
         H           -3.312620016575     1.536388448922     0.032011302247     1.007825032230
         H           -3.542602016575    -1.214172551078     0.006049302247     1.007825032230
         H            3.471233983425    -0.803995551078     1.072669302247     1.007825032230
         H            3.980358983425     0.047866448922    -0.395357697753     1.007825032230
         H            3.173906983425    -1.537771551078    -0.516399697753     1.007825032230

  Basis Set: AUG-CC-PVTZ
    Blend: AUG-CC-PVTZ
  Basis Set: (AUG-CC-PVTZ AUX)
    Blend: AUG-CC-PVTZ-JKFIT
	 Reference Energy          =    -435.5989402000624295 [Eh]
	 Singles Energy            =      -0.0000000000000000 [Eh]
	 Same-Spin Energy          =      -0.4479475607127945 [Eh]
	 Opposite-Spin Energy      =      -1.3702354975283459 [Eh]
	 Correlation Energy        =      -1.8181830582411405 [Eh]
	 Total Energy              =    -437.4171232583035476 [Eh]

	 ================> DF-SCS-MP2 Energies <==================
	-----------------------------------------------------------
	 SCS Same-Spin Scale       =       0.3333333333333333 [-]
	 SCS Opposite-Spin Scale   =       1.2000000000000000 [-]
	 SCS Same-Spin Energy      =      -0.1493158535709315 [Eh]
	 SCS Opposite-Spin Energy  =      -1.6442825970340151 [Eh]
	 SCS Correlation Energy    =      -1.7935984506049467 [Eh]
	 SCS Total Energy          =    -437.3925386506674045 [Eh]
	-----------------------------------------------------------

  Dipole Moment: [D]
     X:     0.3874      Y:    -3.0459      Z:     0.0752     Total:     3.0714

*** Psi4 exiting successfully. Buy a developer a beer!
