                               Psi4 1.3.2 release

  ==> Input File <==

--------------------------------------------------------------------------
#psi4
#
memory 32 gb

molecule  {
0 1
  O       -1.4537365    -1.2019270    -0.0111031
  O        1.7837190     1.3890130    -0.0214620
  N        0.7526660    -0.6498780    -0.0214550
  C       -0.5553190    -0.1742840    -0.0060060
  C       -1.1407710     1.0618160     0.0104930
  C        1.8652240     0.1617960    -0.0202730
  C       -2.5496710     0.8075520     0.0175600
  C       -2.7164660    -0.5449080     0.0047820
  C        3.1811850    -0.5832010     0.0301470
  H        0.8582920    -1.6573840    -0.0213170
  H       -0.6226040     2.0066250     0.0153600
  H       -3.3400310     1.5456830     0.0304840
  H       -3.5700130    -1.2048780     0.0045220
  H        3.4438230    -0.7947010     1.0711420
  H        3.9529480     0.0571610    -0.3968850
  H        3.1464960    -1.5284770    -0.5179270
units angstrom
no_reorient  #important for SAPT in psi4, default
symmetry c1  #important for SAPT in psi4, default
}

set PROPERTIES_ORIGIN ["COM"]
properties('MP2/aug-cc-pvtz', properties = ['dipole'])
--------------------------------------------------------------------------

    Molecular point group: c1
  Charge       = 0
  Multiplicity = 1
  Basis Set: AUG-CC-PVTZ
    Blend: AUG-CC-PVTZ
  Basis Set: (AUG-CC-PVTZ AUX)
    Blend: AUG-CC-PVTZ-JKFIT

    Orbital Energies [Eh]
    ---------------------

    Doubly Occupied:

       1A    -20.628420     2A    -20.534675     3A    -15.618404
       4A    -11.370635     5A    -11.340479     6A    -11.287548
       7A    -11.250349     8A    -11.239715     9A    -11.220864
      10A     -1.454115    11A     -1.389046    12A     -1.253962
      13A     -1.087977    14A     -1.034741    15A     -0.973220
      16A     -0.849975    17A     -0.804437    18A     -0.768079
      19A     -0.741092    20A     -0.683659    21A     -0.655073
      22A     -0.642644    23A     -0.618598    24A     -0.601403
      25A     -0.577312    26A     -0.570593    27A     -0.565991
      28A     -0.551685    29A     -0.541826    30A     -0.453870
      31A     -0.439322    32A     -0.403384    33A     -0.294457

  @DF-RHF Final Energy:  -435.60064825144315

   => Energetics <=

    Nuclear Repulsion Energy =            427.1143700502706224
    One-Electron Energy =               -1440.5349403873615302
    Two-Electron Energy =                 577.8199220856478178
    Total Energy =                       -435.6006482514430900
  Basis Set: (AUG-CC-PVTZ AUX)
    Blend: AUG-CC-PVTZ-RI
    Molecular point group: c1

    Geometry (in Angstrom), charge = 0, multiplicity = 1:

       Center              X                  Y                   Z               Mass
    ------------   -----------------  -----------------  -----------------  -----------------
         O           -1.427562875070    -1.210316470781    -0.009551321090    15.994914619570
         O            1.809892624930     1.380623529219    -0.019910221090    15.994914619570
         N            0.778839624930    -0.658267470781    -0.019903221090    14.003074004430
         C           -0.529145375070    -0.182673470781    -0.004454221090    12.000000000000
         C           -1.114597375070     1.053426529219     0.012044778910    12.000000000000
         C            1.891397624930     0.153406529219    -0.018721221090    12.000000000000
         C           -2.523497375070     0.799162529219     0.019111778910    12.000000000000
         C           -2.690292375070    -0.553297470781     0.006333778910    12.000000000000
         C            3.207358624930    -0.591590470781     0.031698778910    12.000000000000
         H            0.884465624930    -1.665773470781    -0.019765221090     1.007825032230
         H           -0.596430375070     1.998235529219     0.016911778910     1.007825032230
         H           -3.313857375070     1.537293529219     0.032035778910     1.007825032230
         H           -3.543839375070    -1.213267470781     0.006073778910     1.007825032230
         H            3.469996624930    -0.803090470781     1.072693778910     1.007825032230
         H            3.979121624930     0.048771529219    -0.395333221090     1.007825032230
         H            3.172669624930    -1.536866470781    -0.516375221090     1.007825032230

  Basis Set: AUG-CC-PVTZ
    Blend: AUG-CC-PVTZ
  Basis Set: (AUG-CC-PVTZ AUX)
    Blend: AUG-CC-PVTZ-JKFIT
	 Reference Energy          =    -435.6006482514431468 [Eh]
	 Singles Energy            =      -0.0000000000000000 [Eh]
	 Same-Spin Energy          =      -0.4469007120763266 [Eh]
	 Opposite-Spin Energy      =      -1.3703182161461815 [Eh]
	 Correlation Energy        =      -1.8172189282225082 [Eh]
	 Total Energy              =    -437.4178671796656772 [Eh]

	 ================> DF-SCS-MP2 Energies <==================
	-----------------------------------------------------------
	 SCS Same-Spin Scale       =       0.3333333333333333 [-]
	 SCS Opposite-Spin Scale   =       1.2000000000000000 [-]
	 SCS Same-Spin Energy      =      -0.1489669040254422 [Eh]
	 SCS Opposite-Spin Energy  =      -1.6443818593754178 [Eh]
	 SCS Correlation Energy    =      -1.7933487634008600 [Eh]
	 SCS Total Energy          =    -437.3939970148439897 [Eh]
	-----------------------------------------------------------

  Dipole Moment: [D]
     X:     0.0629      Y:    -2.8120      Z:     0.0801     Total:     2.8139

*** Psi4 exiting successfully. Buy a developer a beer!
