                               Psi4 1.3.2 release

  ==> Input File <==

--------------------------------------------------------------------------
#psi4
#
memory 32 gb

molecule  {
0 1
  O       -1.4890520    -1.1699510    -0.0104640
  O        1.7837190     1.3890130    -0.0214620
  N        0.7526660    -0.6498780    -0.0214550
  C       -0.5769824    -0.1843145    -0.0059592
  C       -1.1407710     1.0618160     0.0104930
  C        1.8652240     0.1617960    -0.0202730
  C       -2.5496710     0.8075520     0.0175600
  C       -2.7164660    -0.5449080     0.0047820
  C        3.1811850    -0.5832010     0.0301470
  H        0.8582920    -1.6573840    -0.0213170
  H       -0.6226040     2.0066250     0.0153600
  H       -3.3400310     1.5456830     0.0304840
  H       -3.5700130    -1.2048780     0.0045220
  H        3.4438230    -0.7947010     1.0711420
  H        3.9529480     0.0571610    -0.3968850
  H        3.1464960    -1.5284770    -0.5179270
units angstrom
no_reorient  #important for SAPT in psi4, default
symmetry c1  #important for SAPT in psi4, default
}

set PROPERTIES_ORIGIN ["COM"]
properties('MP2/aug-cc-pvtz', properties = ['dipole'])
--------------------------------------------------------------------------

    Molecular point group: c1
  Charge       = 0
  Multiplicity = 1
  Basis Set: AUG-CC-PVTZ
    Blend: AUG-CC-PVTZ
  Basis Set: (AUG-CC-PVTZ AUX)
    Blend: AUG-CC-PVTZ-JKFIT

    Orbital Energies [Eh]
    ---------------------

    Doubly Occupied:

       1A    -20.633325     2A    -20.533487     3A    -15.618254
       4A    -11.370383     5A    -11.339204     6A    -11.284545
       7A    -11.250082     8A    -11.235195     9A    -11.220093
      10A     -1.476858    11A     -1.388160    12A     -1.251139
      13A     -1.086431    14A     -1.035660    15A     -0.978976
      16A     -0.848695    17A     -0.805372    18A     -0.772328
      19A     -0.743187    20A     -0.683810    21A     -0.663077
      22A     -0.649696    23A     -0.622051    24A     -0.601460
      25A     -0.577769    26A     -0.570581    27A     -0.567768
      28A     -0.547505    29A     -0.542061    30A     -0.452882
      31A     -0.438564    32A     -0.399769    33A     -0.294964

  @DF-RHF Final Energy:  -435.60448159209767

   => Energetics <=

    Nuclear Repulsion Energy =            427.9102735696793047
    One-Electron Energy =               -1442.0628477882617062
    Two-Electron Energy =                 578.5480926264847312
    Total Energy =                       -435.6044815920977271
  Basis Set: (AUG-CC-PVTZ AUX)
    Blend: AUG-CC-PVTZ-RI
    Molecular point group: c1

    Geometry (in Angstrom), charge = 0, multiplicity = 1:

       Center              X                  Y                   Z               Mass
    ------------   -----------------  -----------------  -----------------  -----------------
         O           -1.456282257354    -1.181467976983    -0.008998459796    15.994914619570
         O            1.816488742646     1.377496023017    -0.019996459796    15.994914619570
         N            0.785435742646    -0.661394976983    -0.019989459796    14.003074004430
         C           -0.544212657354    -0.195831476983    -0.004493659796    12.000000000000
         C           -1.108001257354     1.050299023017     0.011958540204    12.000000000000
         C            1.897993742646     0.150279023017    -0.018807459796    12.000000000000
         C           -2.516901257354     0.796035023017     0.019025540204    12.000000000000
         C           -2.683696257354    -0.556424976983     0.006247540204    12.000000000000
         C            3.213954742646    -0.594717976983     0.031612540204    12.000000000000
         H            0.891061742646    -1.668900976983    -0.019851459796     1.007825032230
         H           -0.589834257354     1.995108023017     0.016825540204     1.007825032230
         H           -3.307261257354     1.534166023017     0.031949540204     1.007825032230
         H           -3.537243257354    -1.216394976983     0.005987540204     1.007825032230
         H            3.476592742646    -0.806217976983     1.072607540204     1.007825032230
         H            3.985717742646     0.045644023017    -0.395419459796     1.007825032230
         H            3.179265742646    -1.539993976983    -0.516461459796     1.007825032230

  Basis Set: AUG-CC-PVTZ
    Blend: AUG-CC-PVTZ
  Basis Set: (AUG-CC-PVTZ AUX)
    Blend: AUG-CC-PVTZ-JKFIT
	 Reference Energy          =    -435.6044815920976703 [Eh]
	 Singles Energy            =      -0.0000000000000000 [Eh]
	 Same-Spin Energy          =      -0.4467063518487251 [Eh]
	 Opposite-Spin Energy      =      -1.3685940594876476 [Eh]
	 Correlation Energy        =      -1.8153004113363727 [Eh]
	 Total Energy              =    -437.4197820034340225 [Eh]

	 ================> DF-SCS-MP2 Energies <==================
	-----------------------------------------------------------
	 SCS Same-Spin Scale       =       0.3333333333333333 [-]
	 SCS Opposite-Spin Scale   =       1.2000000000000000 [-]
	 SCS Same-Spin Energy      =      -0.1489021172829084 [Eh]
	 SCS Opposite-Spin Energy  =      -1.6423128713851771 [Eh]
	 SCS Correlation Energy    =      -1.7912149886680855 [Eh]
	 SCS Total Energy          =    -437.3956965807657298 [Eh]
	-----------------------------------------------------------

  Dipole Moment: [D]
     X:     0.0556      Y:    -2.9561      Z:     0.0785     Total:     2.9576

*** Psi4 exiting successfully. Buy a developer a beer!
