                               Psi4 1.3.2 release

  ==> Input File <==

--------------------------------------------------------------------------
#psi4
#
memory 32 gb

molecule  {
0 1
  O       -1.4890520    -1.1699510    -0.0104640
  O        1.7837190     1.3890130    -0.0214620
  N        0.7526660    -0.6498780    -0.0214550
  C       -0.7432678    -0.1059443    -0.0037861
  C       -1.1407710     1.0618160     0.0104930
  C        1.8652240     0.1617960    -0.0202730
  C       -2.5496710     0.8075520     0.0175600
  C       -2.7164660    -0.5449080     0.0047820
  C        3.1811850    -0.5832010     0.0301470
  H        0.8582920    -1.6573840    -0.0213170
  H       -0.6226040     2.0066250     0.0153600
  H       -3.3400310     1.5456830     0.0304840
  H       -3.5700130    -1.2048780     0.0045220
  H        3.4438230    -0.7947010     1.0711420
  H        3.9529480     0.0571610    -0.3968850
  H        3.1464960    -1.5284770    -0.5179270
units angstrom
no_reorient  #important for SAPT in psi4, default
symmetry c1  #important for SAPT in psi4, default
}

set PROPERTIES_ORIGIN ["COM"]
properties('MP2/aug-cc-pvtz', properties = ['dipole'])
--------------------------------------------------------------------------

    Molecular point group: c1
  Charge       = 0
  Multiplicity = 1
  Basis Set: AUG-CC-PVTZ
    Blend: AUG-CC-PVTZ
  Basis Set: (AUG-CC-PVTZ AUX)
    Blend: AUG-CC-PVTZ-JKFIT

    Orbital Energies [Eh]
    ---------------------

    Doubly Occupied:

       1A    -20.645178     2A    -20.517732     3A    -15.596343
       4A    -11.354978     5A    -11.336734     6A    -11.294972
       7A    -11.247009     8A    -11.239332     9A    -11.215869
      10A     -1.510749    11A     -1.371319    12A     -1.203134
      13A     -1.137093    14A     -1.023857    15A     -0.983382
      16A     -0.846791    17A     -0.790576    18A     -0.782488
      19A     -0.734353    20A     -0.680750    21A     -0.673521
      22A     -0.633012    23A     -0.618047    24A     -0.612246
      25A     -0.588925    26A     -0.578610    27A     -0.563132
      28A     -0.530175    29A     -0.524189    30A     -0.436201
      31A     -0.422863    32A     -0.416286    33A     -0.324941

  @DF-RHF Final Energy:  -435.55355774711370

   => Energetics <=

    Nuclear Repulsion Energy =            428.6345958872693700
    One-Electron Energy =               -1443.5067279358995620
    Two-Electron Energy =                 579.3185743015164917
    Total Energy =                       -435.5535577471137003
  Basis Set: (AUG-CC-PVTZ AUX)
    Blend: AUG-CC-PVTZ-RI
    Molecular point group: c1

    Geometry (in Angstrom), charge = 0, multiplicity = 1:

       Center              X                  Y                   Z               Mass
    ------------   -----------------  -----------------  -----------------  -----------------
         O           -1.440324945516    -1.188988647590    -0.009206997853    15.994914619570
         O            1.832446054484     1.369975352410    -0.020204997853    15.994914619570
         N            0.801393054484    -0.668915647590    -0.020197997853    14.003074004430
         C           -0.694540745516    -0.124981947590    -0.002529097853    12.000000000000
         C           -1.092043945516     1.042778352410     0.011750002147    12.000000000000
         C            1.913951054484     0.142758352410    -0.019015997853    12.000000000000
         C           -2.500943945516     0.788514352410     0.018817002147    12.000000000000
         C           -2.667738945516    -0.563945647590     0.006039002147    12.000000000000
         C            3.229912054484    -0.602238647590     0.031404002147    12.000000000000
         H            0.907019054484    -1.676421647590    -0.020059997853     1.007825032230
         H           -0.573876945516     1.987587352410     0.016617002147     1.007825032230
         H           -3.291303945516     1.526645352410     0.031741002147     1.007825032230
         H           -3.521285945516    -1.223915647590     0.005779002147     1.007825032230
         H            3.492550054484    -0.813738647590     1.072399002147     1.007825032230
         H            4.001675054484     0.038123352410    -0.395627997853     1.007825032230
         H            3.195223054484    -1.547514647590    -0.516669997853     1.007825032230

  Basis Set: AUG-CC-PVTZ
    Blend: AUG-CC-PVTZ
  Basis Set: (AUG-CC-PVTZ AUX)
    Blend: AUG-CC-PVTZ-JKFIT
	 Reference Energy          =    -435.5535577471137003 [Eh]
	 Singles Energy            =      -0.0000000000000000 [Eh]
	 Same-Spin Energy          =      -0.4452457607273239 [Eh]
	 Opposite-Spin Energy      =      -1.3676390079271012 [Eh]
	 Correlation Energy        =      -1.8128847686544252 [Eh]
	 Total Energy              =    -437.3664425157681421 [Eh]

	 ================> DF-SCS-MP2 Energies <==================
	-----------------------------------------------------------
	 SCS Same-Spin Scale       =       0.3333333333333333 [-]
	 SCS Opposite-Spin Scale   =       1.2000000000000000 [-]
	 SCS Same-Spin Energy      =      -0.1484152535757746 [Eh]
	 SCS Opposite-Spin Energy  =      -1.6411668095125214 [Eh]
	 SCS Correlation Energy    =      -1.7895820630882959 [Eh]
	 SCS Total Energy          =    -437.3431398102019898 [Eh]
	-----------------------------------------------------------

  Dipole Moment: [D]
     X:    -1.0678      Y:    -2.6235      Z:     0.0889     Total:     2.8339

*** Psi4 exiting successfully. Buy a developer a beer!
