                               Psi4 1.3.2 release

  ==> Input File <==

--------------------------------------------------------------------------
#psi4
#
memory 32 gb

molecule  {
0 1
  O       -1.4890520    -1.1699510    -0.0104640
  O        1.7837190     1.3890130    -0.0214620
  N        0.7526660    -0.6498780    -0.0214550
  C       -0.5853180    -0.2666821    -0.0068683
  C       -1.1407710     1.0618160     0.0104930
  C        1.8652240     0.1617960    -0.0202730
  C       -2.5496710     0.8075520     0.0175600
  C       -2.7164660    -0.5449080     0.0047820
  C        3.1811850    -0.5832010     0.0301470
  H        0.8582920    -1.6573840    -0.0213170
  H       -0.6226040     2.0066250     0.0153600
  H       -3.3400310     1.5456830     0.0304840
  H       -3.5700130    -1.2048780     0.0045220
  H        3.4438230    -0.7947010     1.0711420
  H        3.9529480     0.0571610    -0.3968850
  H        3.1464960    -1.5284770    -0.5179270
units angstrom
no_reorient  #important for SAPT in psi4, default
symmetry c1  #important for SAPT in psi4, default
}

set PROPERTIES_ORIGIN ["COM"]
properties('MP2/aug-cc-pvtz', properties = ['dipole'])
--------------------------------------------------------------------------

    Molecular point group: c1
  Charge       = 0
  Multiplicity = 1
  Basis Set: AUG-CC-PVTZ
    Blend: AUG-CC-PVTZ
  Basis Set: (AUG-CC-PVTZ AUX)
    Blend: AUG-CC-PVTZ-JKFIT

    Orbital Energies [Eh]
    ---------------------

    Doubly Occupied:

       1A    -20.644005     2A    -20.535596     3A    -15.620973
       4A    -11.373808     5A    -11.346505     6A    -11.278866
       7A    -11.252166     8A    -11.235636     9A    -11.219606
      10A     -1.507317    11A     -1.390118    12A     -1.258475
      13A     -1.078856    14A     -1.039133    15A     -0.979700
      16A     -0.852083    17A     -0.812534    18A     -0.775806
      19A     -0.745802    20A     -0.685098    21A     -0.678181
      22A     -0.658279    23A     -0.625719    24A     -0.604668
      25A     -0.579711    26A     -0.576366    27A     -0.559901
      28A     -0.544364    29A     -0.534731    30A     -0.454388
      31A     -0.440782    32A     -0.396574    33A     -0.282904

  @DF-RHF Final Energy:  -435.59381018859864

   => Energetics <=

    Nuclear Repulsion Energy =            428.0921454186511710
    One-Electron Energy =               -1442.2346166611398530
    Two-Electron Energy =                 578.5486610538899868
    Total Energy =                       -435.5938101885986953
  Basis Set: (AUG-CC-PVTZ AUX)
    Blend: AUG-CC-PVTZ-RI
    Molecular point group: c1

    Geometry (in Angstrom), charge = 0, multiplicity = 1:

       Center              X                  Y                   Z               Mass
    ------------   -----------------  -----------------  -----------------  -----------------
         O           -1.455482344863    -1.173563702292    -0.008911219472    15.994914619570
         O            1.817288655137     1.385400297708    -0.019909219472    15.994914619570
         N            0.786235655137    -0.653490702292    -0.019902219472    14.003074004430
         C           -0.551748344863    -0.270294802292    -0.005315519472    12.000000000000
         C           -1.107201344863     1.058203297708     0.012045780528    12.000000000000
         C            1.898793655137     0.158183297708    -0.018720219472    12.000000000000
         C           -2.516101344863     0.803939297708     0.019112780528    12.000000000000
         C           -2.682896344863    -0.548520702292     0.006334780528    12.000000000000
         C            3.214754655137    -0.586813702292     0.031699780528    12.000000000000
         H            0.891861655137    -1.660996702292    -0.019764219472     1.007825032230
         H           -0.589034344863     2.003012297708     0.016912780528     1.007825032230
         H           -3.306461344863     1.542070297708     0.032036780528     1.007825032230
         H           -3.536443344863    -1.208490702292     0.006074780528     1.007825032230
         H            3.477392655137    -0.798313702292     1.072694780528     1.007825032230
         H            3.986517655137     0.053548297708    -0.395332219472     1.007825032230
         H            3.180065655137    -1.532089702292    -0.516374219472     1.007825032230

  Basis Set: AUG-CC-PVTZ
    Blend: AUG-CC-PVTZ
  Basis Set: (AUG-CC-PVTZ AUX)
    Blend: AUG-CC-PVTZ-JKFIT
	 Reference Energy          =    -435.5938101885986384 [Eh]
	 Singles Energy            =      -0.0000000000000000 [Eh]
	 Same-Spin Energy          =      -0.4476382869969944 [Eh]
	 Opposite-Spin Energy      =      -1.3685686794972569 [Eh]
	 Correlation Energy        =      -1.8162069664942513 [Eh]
	 Total Energy              =    -437.4100171550928735 [Eh]

	 ================> DF-SCS-MP2 Energies <==================
	-----------------------------------------------------------
	 SCS Same-Spin Scale       =       0.3333333333333333 [-]
	 SCS Opposite-Spin Scale   =       1.2000000000000000 [-]
	 SCS Same-Spin Energy      =      -0.1492127623323314 [Eh]
	 SCS Opposite-Spin Energy  =      -1.6422824153967082 [Eh]
	 SCS Correlation Energy    =      -1.7914951777290395 [Eh]
	 SCS Total Energy          =    -437.3853053663276569 [Eh]
	-----------------------------------------------------------

  Dipole Moment: [D]
     X:     0.1165      Y:    -3.1560      Z:     0.0752     Total:     3.1591

*** Psi4 exiting successfully. Buy a developer a beer!
