                               Psi4 1.3.2 release

  ==> Input File <==

--------------------------------------------------------------------------
#psi4
#
memory 32 gb

molecule  {
0 1
  O       -1.4890520    -1.1699510    -0.0104640
  O        1.7837190     1.3890130    -0.0214620
  N        0.7526660    -0.6498780    -0.0214550
  C       -0.4293121    -0.1063070    -0.0063674
  C       -1.1407710     1.0618160     0.0104930
  C        1.8652240     0.1617960    -0.0202730
  C       -2.5496710     0.8075520     0.0175600
  C       -2.7164660    -0.5449080     0.0047820
  C        3.1811850    -0.5832010     0.0301470
  H        0.8582920    -1.6573840    -0.0213170
  H       -0.6226040     2.0066250     0.0153600
  H       -3.3400310     1.5456830     0.0304840
  H       -3.5700130    -1.2048780     0.0045220
  H        3.4438230    -0.7947010     1.0711420
  H        3.9529480     0.0571610    -0.3968850
  H        3.1464960    -1.5284770    -0.5179270
units angstrom
no_reorient  #important for SAPT in psi4, default
symmetry c1  #important for SAPT in psi4, default
}

set PROPERTIES_ORIGIN ["COM"]
properties('MP2/aug-cc-pvtz', properties = ['dipole'])
--------------------------------------------------------------------------

    Molecular point group: c1
  Charge       = 0
  Multiplicity = 1
  Basis Set: AUG-CC-PVTZ
    Blend: AUG-CC-PVTZ
  Basis Set: (AUG-CC-PVTZ AUX)
    Blend: AUG-CC-PVTZ-JKFIT

    Orbital Energies [Eh]
    ---------------------

    Doubly Occupied:

       1A    -20.605340     2A    -20.544240     3A    -15.629067
       4A    -11.377532     5A    -11.339763     6A    -11.284231
       7A    -11.255430     8A    -11.227390     9A    -11.224320
      10A     -1.421535    11A     -1.396199    12A     -1.286856
      13A     -1.073453    14A     -1.043186    15A     -0.971662
      16A     -0.862555    17A     -0.818896    18A     -0.765858
      19A     -0.731075    20A     -0.689415    21A     -0.655654
      22A     -0.649207    23A     -0.611176    24A     -0.609637
      25A     -0.578469    26A     -0.565666    27A     -0.553303
      28A     -0.551957    29A     -0.524345    30A     -0.471727
      31A     -0.447527    32A     -0.392056    33A     -0.286046

  @DF-RHF Final Energy:  -435.57709365312741

   => Energetics <=

    Nuclear Repulsion Energy =            427.5866265356438589
    One-Electron Energy =               -1441.4378928621338218
    Two-Electron Energy =                 578.2741726733626138
    Total Energy =                       -435.5770936531273492
  Basis Set: (AUG-CC-PVTZ AUX)
    Blend: AUG-CC-PVTZ-RI
    Molecular point group: c1

    Geometry (in Angstrom), charge = 0, multiplicity = 1:

       Center              X                  Y                   Z               Mass
    ------------   -----------------  -----------------  -----------------  -----------------
         O           -1.470453200963    -1.188953841666    -0.008959287537    15.994914619570
         O            1.802317799037     1.370010158334    -0.019957287537    15.994914619570
         N            0.771264799037    -0.668880841666    -0.019950287537    14.003074004430
         C           -0.410713300963    -0.125309841666    -0.004862687537    12.000000000000
         C           -1.122172200963     1.042813158334     0.011997712463    12.000000000000
         C            1.883822799037     0.142793158334    -0.018768287537    12.000000000000
         C           -2.531072200963     0.788549158334     0.019064712463    12.000000000000
         C           -2.697867200963    -0.563910841666     0.006286712463    12.000000000000
         C            3.199783799037    -0.602203841666     0.031651712463    12.000000000000
         H            0.876890799037    -1.676386841666    -0.019812287537     1.007825032230
         H           -0.604005200963     1.987622158334     0.016864712463     1.007825032230
         H           -3.321432200963     1.526680158334     0.031988712463     1.007825032230
         H           -3.551414200963    -1.223880841666     0.006026712463     1.007825032230
         H            3.462421799037    -0.813703841666     1.072646712463     1.007825032230
         H            3.971546799037     0.038158158334    -0.395380287537     1.007825032230
         H            3.165094799037    -1.547479841666    -0.516422287537     1.007825032230

  Basis Set: AUG-CC-PVTZ
    Blend: AUG-CC-PVTZ
  Basis Set: (AUG-CC-PVTZ AUX)
    Blend: AUG-CC-PVTZ-JKFIT
	 Reference Energy          =    -435.5770936531274060 [Eh]
	 Singles Energy            =      -0.0000000000000000 [Eh]
	 Same-Spin Energy          =      -0.4488810053590538 [Eh]
	 Opposite-Spin Energy      =      -1.3736188330428074 [Eh]
	 Correlation Energy        =      -1.8224998384018614 [Eh]
	 Total Energy              =    -437.3995934915292878 [Eh]

	 ================> DF-SCS-MP2 Energies <==================
	-----------------------------------------------------------
	 SCS Same-Spin Scale       =       0.3333333333333333 [-]
	 SCS Opposite-Spin Scale   =       1.2000000000000000 [-]
	 SCS Same-Spin Energy      =      -0.1496270017863513 [Eh]
	 SCS Opposite-Spin Energy  =      -1.6483425996513688 [Eh]
	 SCS Correlation Energy    =      -1.7979696014377200 [Eh]
	 SCS Total Energy          =    -437.3750632545651342 [Eh]
	-----------------------------------------------------------

  Dipole Moment: [D]
     X:     0.8055      Y:    -2.8842      Z:     0.0753     Total:     2.9955

*** Psi4 exiting successfully. Buy a developer a beer!
