                               Psi4 1.3.2 release

  ==> Input File <==

--------------------------------------------------------------------------
#psi4
#
memory 32 gb

molecule  {
0 1
  O       -1.5880096    -1.0669051    -0.0087734
  O        1.7837190     1.3890130    -0.0214620
  N        0.7526660    -0.6498780    -0.0214550
  C       -0.5553190    -0.1742840    -0.0060060
  C       -1.1407710     1.0618160     0.0104930
  C        1.8652240     0.1617960    -0.0202730
  C       -2.5496710     0.8075520     0.0175600
  C       -2.7164660    -0.5449080     0.0047820
  C        3.1811850    -0.5832010     0.0301470
  H        0.8582920    -1.6573840    -0.0213170
  H       -0.6226040     2.0066250     0.0153600
  H       -3.3400310     1.5456830     0.0304840
  H       -3.5700130    -1.2048780     0.0045220
  H        3.4438230    -0.7947010     1.0711420
  H        3.9529480     0.0571610    -0.3968850
  H        3.1464960    -1.5284770    -0.5179270
units angstrom
no_reorient  #important for SAPT in psi4, default
symmetry c1  #important for SAPT in psi4, default
}

set PROPERTIES_ORIGIN ["COM"]
properties('MP2/aug-cc-pvtz', properties = ['dipole'])
--------------------------------------------------------------------------

    Molecular point group: c1
  Charge       = 0
  Multiplicity = 1
  Basis Set: AUG-CC-PVTZ
    Blend: AUG-CC-PVTZ
  Basis Set: (AUG-CC-PVTZ AUX)
    Blend: AUG-CC-PVTZ-JKFIT

    Orbital Energies [Eh]
    ---------------------

    Doubly Occupied:

       1A    -20.631548     2A    -20.535354     3A    -15.623758
       4A    -11.373086     5A    -11.333127     6A    -11.277418
       7A    -11.252033     8A    -11.219964     9A    -11.215534
      10A     -1.516093    11A     -1.391393    12A     -1.261781
      13A     -1.075620    14A     -1.043471    15A     -0.994214
      16A     -0.850167    17A     -0.817583    18A     -0.775426
      19A     -0.747353    20A     -0.689721    21A     -0.680790
      22A     -0.671464    23A     -0.628516    24A     -0.604180
      25A     -0.575910    26A     -0.569653    27A     -0.555666
      28A     -0.549062    29A     -0.529527    30A     -0.460720
      31A     -0.440920    32A     -0.384481    33A     -0.290588

  @DF-RHF Final Energy:  -435.58849004402259

   => Energetics <=

    Nuclear Repulsion Energy =            430.3924235816814416
    One-Electron Energy =               -1446.8295848782197481
    Two-Electron Energy =                 580.8486712525157145
    Total Energy =                       -435.5884900440225920
  Basis Set: (AUG-CC-PVTZ AUX)
    Blend: AUG-CC-PVTZ-RI
    Molecular point group: c1

    Geometry (in Angstrom), charge = 0, multiplicity = 1:

       Center              X                  Y                   Z               Mass
    ------------   -----------------  -----------------  -----------------  -----------------
         O           -1.544661031908    -1.092565293347    -0.007519614248    15.994914619570
         O            1.827067568092     1.363352806653    -0.020208214248    15.994914619570
         N            0.796014568092    -0.675538193347    -0.020201214248    14.003074004430
         C           -0.511970431908    -0.199944193347    -0.004752214248    12.000000000000
         C           -1.097422431908     1.036155806653     0.011746785752    12.000000000000
         C            1.908572568092     0.136135806653    -0.019019214248    12.000000000000
         C           -2.506322431908     0.781891806653     0.018813785752    12.000000000000
         C           -2.673117431908    -0.570568193347     0.006035785752    12.000000000000
         C            3.224533568092    -0.608861193347     0.031400785752    12.000000000000
         H            0.901640568092    -1.683044193347    -0.020063214248     1.007825032230
         H           -0.579255431908     1.980964806653     0.016613785752     1.007825032230
         H           -3.296682431908     1.520022806653     0.031737785752     1.007825032230
         H           -3.526664431908    -1.230538193347     0.005775785752     1.007825032230
         H            3.487171568092    -0.820361193347     1.072395785752     1.007825032230
         H            3.996296568092     0.031500806653    -0.395631214248     1.007825032230
         H            3.189844568092    -1.554137193347    -0.516673214248     1.007825032230

  Basis Set: AUG-CC-PVTZ
    Blend: AUG-CC-PVTZ
  Basis Set: (AUG-CC-PVTZ AUX)
    Blend: AUG-CC-PVTZ-JKFIT
	 Reference Energy          =    -435.5884900440225920 [Eh]
	 Singles Energy            =      -0.0000000000000000 [Eh]
	 Same-Spin Energy          =      -0.4474379162020430 [Eh]
	 Opposite-Spin Energy      =      -1.3663760265747478 [Eh]
	 Correlation Energy        =      -1.8138139427767908 [Eh]
	 Total Energy              =    -437.4023039867993816 [Eh]

	 ================> DF-SCS-MP2 Energies <==================
	-----------------------------------------------------------
	 SCS Same-Spin Scale       =       0.3333333333333333 [-]
	 SCS Opposite-Spin Scale   =       1.2000000000000000 [-]
	 SCS Same-Spin Energy      =      -0.1491459720673476 [Eh]
	 SCS Opposite-Spin Energy  =      -1.6396512318896972 [Eh]
	 SCS Correlation Energy    =      -1.7887972039570448 [Eh]
	 SCS Total Energy          =    -437.3772872479796092 [Eh]
	-----------------------------------------------------------

  Dipole Moment: [D]
     X:     0.4427      Y:    -3.4097      Z:     0.0713     Total:     3.4390

*** Psi4 exiting successfully. Buy a developer a beer!
