                               Psi4 1.3.2 release

  ==> Input File <==

--------------------------------------------------------------------------
#psi4
#
memory 32 gb

molecule  {
0 1
  O       -1.4890520    -1.1699510    -0.0104640
  O        1.7837190     1.3890130    -0.0214620
  N        0.7607689    -0.6269776    -0.0213086
  C       -0.5553190    -0.1742840    -0.0060060
  C       -1.1407710     1.0618160     0.0104930
  C        1.8652240     0.1617960    -0.0202730
  C       -2.5496710     0.8075520     0.0175600
  C       -2.7164660    -0.5449080     0.0047820
  C        3.1811850    -0.5832010     0.0301470
  H        0.8582920    -1.6573840    -0.0213170
  H       -0.6226040     2.0066250     0.0153600
  H       -3.3400310     1.5456830     0.0304840
  H       -3.5700130    -1.2048780     0.0045220
  H        3.4438230    -0.7947010     1.0711420
  H        3.9529480     0.0571610    -0.3968850
  H        3.1464960    -1.5284770    -0.5179270
units angstrom
no_reorient  #important for SAPT in psi4, default
symmetry c1  #important for SAPT in psi4, default
}

set PROPERTIES_ORIGIN ["COM"]
properties('MP2/aug-cc-pvtz', properties = ['dipole'])
--------------------------------------------------------------------------

    Molecular point group: c1
  Charge       = 0
  Multiplicity = 1
  Basis Set: AUG-CC-PVTZ
    Blend: AUG-CC-PVTZ
  Basis Set: (AUG-CC-PVTZ AUX)
    Blend: AUG-CC-PVTZ-JKFIT

    Orbital Energies [Eh]
    ---------------------

    Doubly Occupied:

       1A    -20.631091     2A    -20.530776     3A    -15.622022
       4A    -11.367990     5A    -11.339175     6A    -11.285591
       7A    -11.250217     8A    -11.234553     9A    -11.220924
      10A     -1.467479    11A     -1.389660    12A     -1.257160
      13A     -1.084679    14A     -1.037282    15A     -0.978517
      16A     -0.853102    17A     -0.807500    18A     -0.768093
      19A     -0.740406    20A     -0.684313    21A     -0.660875
      22A     -0.651084    23A     -0.622057    24A     -0.599668
      25A     -0.576294    26A     -0.568886    27A     -0.566565
      28A     -0.547880    29A     -0.545141    30A     -0.453627
      31A     -0.437960    32A     -0.398973    33A     -0.294608

  @DF-RHF Final Energy:  -435.60343072048812

   => Energetics <=

    Nuclear Repulsion Energy =            428.1230827656602287
    One-Electron Energy =               -1442.5047296233281031
    Two-Electron Energy =                 578.7782161371796974
    Total Energy =                       -435.6034307204881770
  Basis Set: (AUG-CC-PVTZ AUX)
    Blend: AUG-CC-PVTZ-RI
    Molecular point group: c1

    Geometry (in Angstrom), charge = 0, multiplicity = 1:

       Center              X                  Y                   Z               Mass
    ------------   -----------------  -----------------  -----------------  -----------------
         O           -1.459268528774    -1.184994967658    -0.009010362856    15.994914619570
         O            1.813502471226     1.373969032342    -0.020008362856    15.994914619570
         N            0.790552371226    -0.642021567658    -0.019854962856    14.003074004430
         C           -0.525535528774    -0.189327967658    -0.004552362856    12.000000000000
         C           -1.110987528774     1.046772032342     0.011946637144    12.000000000000
         C            1.895007471226     0.146752032342    -0.018819362856    12.000000000000
         C           -2.519887528774     0.792508032342     0.019013637144    12.000000000000
         C           -2.686682528774    -0.559951967658     0.006235637144    12.000000000000
         C            3.210968471226    -0.598244967658     0.031600637144    12.000000000000
         H            0.888075471226    -1.672427967658    -0.019863362856     1.007825032230
         H           -0.592820528774     1.991581032342     0.016813637144     1.007825032230
         H           -3.310247528774     1.530639032342     0.031937637144     1.007825032230
         H           -3.540229528774    -1.219921967658     0.005975637144     1.007825032230
         H            3.473606471226    -0.809744967658     1.072595637144     1.007825032230
         H            3.982731471226     0.042117032342    -0.395431362856     1.007825032230
         H            3.176279471226    -1.543520967658    -0.516473362856     1.007825032230

  Basis Set: AUG-CC-PVTZ
    Blend: AUG-CC-PVTZ
  Basis Set: (AUG-CC-PVTZ AUX)
    Blend: AUG-CC-PVTZ-JKFIT
	 Reference Energy          =    -435.6034307204881202 [Eh]
	 Singles Energy            =      -0.0000000000000000 [Eh]
	 Same-Spin Energy          =      -0.4470364603382023 [Eh]
	 Opposite-Spin Energy      =      -1.3692013252666353 [Eh]
	 Correlation Energy        =      -1.8162377856048377 [Eh]
	 Total Energy              =    -437.4196685060929326 [Eh]

	 ================> DF-SCS-MP2 Energies <==================
	-----------------------------------------------------------
	 SCS Same-Spin Scale       =       0.3333333333333333 [-]
	 SCS Opposite-Spin Scale   =       1.2000000000000000 [-]
	 SCS Same-Spin Energy      =      -0.1490121534460674 [Eh]
	 SCS Opposite-Spin Energy  =      -1.6430415903199622 [Eh]
	 SCS Correlation Energy    =      -1.7920537437660298 [Eh]
	 SCS Total Energy          =    -437.3954844642541389 [Eh]
	-----------------------------------------------------------

  Dipole Moment: [D]
     X:     0.0588      Y:    -3.0163      Z:     0.0771     Total:     3.0179

*** Psi4 exiting successfully. Buy a developer a beer!
