                               Psi4 1.3.2 release

  ==> Input File <==

--------------------------------------------------------------------------
#psi4
#
memory 32 gb

molecule  {
0 1
  O       -1.4890520    -1.1699510    -0.0104640
  O        1.7837190     1.3890130    -0.0214620
  N        0.7952250    -0.5105482    -0.0205077
  C       -0.5553190    -0.1742840    -0.0060060
  C       -1.1407710     1.0618160     0.0104930
  C        1.8652240     0.1617960    -0.0202730
  C       -2.5496710     0.8075520     0.0175600
  C       -2.7164660    -0.5449080     0.0047820
  C        3.1811850    -0.5832010     0.0301470
  H        0.8582920    -1.6573840    -0.0213170
  H       -0.6226040     2.0066250     0.0153600
  H       -3.3400310     1.5456830     0.0304840
  H       -3.5700130    -1.2048780     0.0045220
  H        3.4438230    -0.7947010     1.0711420
  H        3.9529480     0.0571610    -0.3968850
  H        3.1464960    -1.5284770    -0.5179270
units angstrom
no_reorient  #important for SAPT in psi4, default
symmetry c1  #important for SAPT in psi4, default
}

set PROPERTIES_ORIGIN ["COM"]
properties('MP2/aug-cc-pvtz', properties = ['dipole'])
--------------------------------------------------------------------------

    Molecular point group: c1
  Charge       = 0
  Multiplicity = 1
  Basis Set: AUG-CC-PVTZ
    Blend: AUG-CC-PVTZ
  Basis Set: (AUG-CC-PVTZ AUX)
    Blend: AUG-CC-PVTZ-JKFIT

    Orbital Energies [Eh]
    ---------------------

    Doubly Occupied:

       1A    -20.639324     2A    -20.509347     3A    -15.631180
       4A    -11.350660     5A    -11.343193     6A    -11.291075
       7A    -11.247423     8A    -11.237603     9A    -11.223578
      10A     -1.472622    11A     -1.394236    12A     -1.259427
      13A     -1.088487    14A     -1.041616    15A     -0.983688
      16A     -0.867647    17A     -0.816107    18A     -0.762292
      19A     -0.722070    20A     -0.682550    21A     -0.668917
      22A     -0.657000    23A     -0.626619    24A     -0.590270
      25A     -0.574202    26A     -0.570476    27A     -0.566674
      28A     -0.552331    29A     -0.538454    30A     -0.442394
      31A     -0.426491    32A     -0.401579    33A     -0.299463

  @DF-RHF Final Energy:  -435.57306720867609

   => Energetics <=

    Nuclear Repulsion Energy =            429.6879440776213528
    One-Electron Energy =               -1445.5640355285099758
    Two-Electron Energy =                 580.3030242422125866
    Total Energy =                       -435.5730672086760933
  Basis Set: (AUG-CC-PVTZ AUX)
    Blend: AUG-CC-PVTZ-RI
    Molecular point group: c1

    Geometry (in Angstrom), charge = 0, multiplicity = 1:

       Center              X                  Y                   Z               Mass
    ------------   -----------------  -----------------  -----------------  -----------------
         O           -1.463126987596    -1.198032950645    -0.009100049143    15.994914619570
         O            1.809644012404     1.360931049355    -0.020098049143    15.994914619570
         N            0.821150012404    -0.538630150645    -0.019143749143    14.003074004430
         C           -0.529393987596    -0.202365950645    -0.004642049143    12.000000000000
         C           -1.114845987596     1.033734049355     0.011856950857    12.000000000000
         C            1.891149012404     0.133714049355    -0.018909049143    12.000000000000
         C           -2.523745987596     0.779470049355     0.018923950857    12.000000000000
         C           -2.690540987596    -0.572989950645     0.006145950857    12.000000000000
         C            3.207110012404    -0.611282950645     0.031510950857    12.000000000000
         H            0.884217012404    -1.685465950645    -0.019953049143     1.007825032230
         H           -0.596678987596     1.978543049355     0.016723950857     1.007825032230
         H           -3.314105987596     1.517601049355     0.031847950857     1.007825032230
         H           -3.544087987596    -1.232959950645     0.005885950857     1.007825032230
         H            3.469748012404    -0.822782950645     1.072505950857     1.007825032230
         H            3.978873012404     0.029079049355    -0.395521049143     1.007825032230
         H            3.172421012404    -1.556558950645    -0.516563049143     1.007825032230

  Basis Set: AUG-CC-PVTZ
    Blend: AUG-CC-PVTZ
  Basis Set: (AUG-CC-PVTZ AUX)
    Blend: AUG-CC-PVTZ-JKFIT
	 Reference Energy          =    -435.5730672086760933 [Eh]
	 Singles Energy            =      -0.0000000000000000 [Eh]
	 Same-Spin Energy          =      -0.4482288254598464 [Eh]
	 Opposite-Spin Energy      =      -1.3710466916621473 [Eh]
	 Correlation Energy        =      -1.8192755171219936 [Eh]
	 Total Energy              =    -437.3923427257980734 [Eh]

	 ================> DF-SCS-MP2 Energies <==================
	-----------------------------------------------------------
	 SCS Same-Spin Scale       =       0.3333333333333333 [-]
	 SCS Opposite-Spin Scale   =       1.2000000000000000 [-]
	 SCS Same-Spin Energy      =      -0.1494096084866154 [Eh]
	 SCS Opposite-Spin Energy  =      -1.6452560299945767 [Eh]
	 SCS Correlation Energy    =      -1.7946656384811921 [Eh]
	 SCS Total Energy          =    -437.3677328471572991 [Eh]
	-----------------------------------------------------------

  Dipole Moment: [D]
     X:    -0.4478      Y:    -3.3207      Z:     0.0736     Total:     3.3516

*** Psi4 exiting successfully. Buy a developer a beer!
