                               Psi4 1.3.2 release

  ==> Input File <==

--------------------------------------------------------------------------
#psi4
#
memory 32 gb

molecule  {
0 1
  O       -1.3798642    -1.2620882    -0.0121058
  O        1.7837190     1.3890130    -0.0214620
  N        0.7526660    -0.6498780    -0.0214550
  C       -0.5553190    -0.1742840    -0.0060060
  C       -1.1407710     1.0618160     0.0104930
  C        1.8652240     0.1617960    -0.0202730
  C       -2.5496710     0.8075520     0.0175600
  C       -2.7164660    -0.5449080     0.0047820
  C        3.1811850    -0.5832010     0.0301470
  H        0.8582920    -1.6573840    -0.0213170
  H       -0.6226040     2.0066250     0.0153600
  H       -3.3400310     1.5456830     0.0304840
  H       -3.5700130    -1.2048780     0.0045220
  H        3.4438230    -0.7947010     1.0711420
  H        3.9529480     0.0571610    -0.3968850
  H        3.1464960    -1.5284770    -0.5179270
units angstrom
no_reorient  #important for SAPT in psi4, default
symmetry c1  #important for SAPT in psi4, default
}

set PROPERTIES_ORIGIN ["COM"]
properties('MP2/aug-cc-pvtz', properties = ['dipole'])
--------------------------------------------------------------------------

    Molecular point group: c1
  Charge       = 0
  Multiplicity = 1
  Basis Set: AUG-CC-PVTZ
    Blend: AUG-CC-PVTZ
  Basis Set: (AUG-CC-PVTZ AUX)
    Blend: AUG-CC-PVTZ-JKFIT

    Orbital Energies [Eh]
    ---------------------

    Doubly Occupied:

       1A    -20.625644     2A    -20.533705     3A    -15.615052
       4A    -11.368748     5A    -11.343968     6A    -11.294098
       7A    -11.250555     8A    -11.249126     9A    -11.221632
      10A     -1.434863    11A     -1.386629    12A     -1.248528
      13A     -1.096105    14A     -1.031312    15A     -0.966028
      16A     -0.848934    17A     -0.804643    18A     -0.761024
      19A     -0.738433    20A     -0.681850    21A     -0.648889
      22A     -0.631911    23A     -0.612597    24A     -0.598900
      25A     -0.580524    26A     -0.574217    27A     -0.562438
      28A     -0.553190    29A     -0.537667    30A     -0.449762
      31A     -0.437773    32A     -0.413024    33A     -0.295827

  @DF-RHF Final Energy:  -435.58447367321270

   => Energetics <=

    Nuclear Repulsion Energy =            425.8736874374562262
    One-Electron Energy =               -1438.1211263172870076
    Two-Electron Energy =                 576.6629652066179688
    Total Energy =                       -435.5844736732127558
  Basis Set: (AUG-CC-PVTZ AUX)
    Blend: AUG-CC-PVTZ-RI
    Molecular point group: c1

    Geometry (in Angstrom), charge = 0, multiplicity = 1:

       Center              X                  Y                   Z               Mass
    ------------   -----------------  -----------------  -----------------  -----------------
         O           -1.363139619992    -1.262782419904    -0.010425765203    15.994914619570
         O            1.800443580008     1.388318780096    -0.019781965203    15.994914619570
         N            0.769390580008    -0.650572219904    -0.019774965203    14.003074004430
         C           -0.538594419992    -0.174978219904    -0.004325965203    12.000000000000
         C           -1.124046419992     1.061121780096     0.012173034797    12.000000000000
         C            1.881948580008     0.161101780096    -0.018592965203    12.000000000000
         C           -2.532946419992     0.806857780096     0.019240034797    12.000000000000
         C           -2.699741419992    -0.545602219904     0.006462034797    12.000000000000
         C            3.197909580008    -0.583895219904     0.031827034797    12.000000000000
         H            0.875016580008    -1.658078219904    -0.019636965203     1.007825032230
         H           -0.605879419992     2.005930780096     0.017040034797     1.007825032230
         H           -3.323306419992     1.544988780096     0.032164034797     1.007825032230
         H           -3.553288419992    -1.205572219904     0.006202034797     1.007825032230
         H            3.460547580008    -0.795395219904     1.072822034797     1.007825032230
         H            3.969672580008     0.056466780096    -0.395204965203     1.007825032230
         H            3.163220580008    -1.529171219904    -0.516246965203     1.007825032230

  Basis Set: AUG-CC-PVTZ
    Blend: AUG-CC-PVTZ
  Basis Set: (AUG-CC-PVTZ AUX)
    Blend: AUG-CC-PVTZ-JKFIT
	 Reference Energy          =    -435.5844736732126989 [Eh]
	 Singles Energy            =      -0.0000000000000000 [Eh]
	 Same-Spin Energy          =      -0.4471823082822880 [Eh]
	 Opposite-Spin Energy      =      -1.3730940392293665 [Eh]
	 Correlation Energy        =      -1.8202763475116543 [Eh]
	 Total Energy              =    -437.4047500207243502 [Eh]

	 ================> DF-SCS-MP2 Energies <==================
	-----------------------------------------------------------
	 SCS Same-Spin Scale       =       0.3333333333333333 [-]
	 SCS Opposite-Spin Scale   =       1.2000000000000000 [-]
	 SCS Same-Spin Energy      =      -0.1490607694274293 [Eh]
	 SCS Opposite-Spin Energy  =      -1.6477128470752398 [Eh]
	 SCS Correlation Energy    =      -1.7967736165026691 [Eh]
	 SCS Total Energy          =    -437.3812472897153611 [Eh]
	-----------------------------------------------------------

  Dipole Moment: [D]
     X:    -0.1512      Y:    -2.5754      Z:     0.0838     Total:     2.5812

*** Psi4 exiting successfully. Buy a developer a beer!
