                               Psi4 1.3.2 release

  ==> Input File <==

--------------------------------------------------------------------------
#psi4
#
memory 32 gb

molecule  {
0 1
  O       -1.4890520    -1.1699510    -0.0104640
  O        1.7837190     1.3890130    -0.0214620
  N        0.7526660    -0.6498780    -0.0214550
  C       -0.6429754    -0.2121180    -0.0056643
  C       -1.1407710     1.0618160     0.0104930
  C        1.8652240     0.1617960    -0.0202730
  C       -2.5496710     0.8075520     0.0175600
  C       -2.7164660    -0.5449080     0.0047820
  C        3.1811850    -0.5832010     0.0301470
  H        0.8582920    -1.6573840    -0.0213170
  H       -0.6226040     2.0066250     0.0153600
  H       -3.3400310     1.5456830     0.0304840
  H       -3.5700130    -1.2048780     0.0045220
  H        3.4438230    -0.7947010     1.0711420
  H        3.9529480     0.0571610    -0.3968850
  H        3.1464960    -1.5284770    -0.5179270
units angstrom
no_reorient  #important for SAPT in psi4, default
symmetry c1  #important for SAPT in psi4, default
}

set PROPERTIES_ORIGIN ["COM"]
properties('MP2/aug-cc-pvtz', properties = ['dipole'])
--------------------------------------------------------------------------

    Molecular point group: c1
  Charge       = 0
  Multiplicity = 1
  Basis Set: AUG-CC-PVTZ
    Blend: AUG-CC-PVTZ
  Basis Set: (AUG-CC-PVTZ AUX)
    Blend: AUG-CC-PVTZ-JKFIT

    Orbital Energies [Eh]
    ---------------------

    Doubly Occupied:

       1A    -20.645067     2A    -20.528917     3A    -15.612785
       4A    -11.367139     5A    -11.342181     6A    -11.284421
       7A    -11.247617     8A    -11.239131     9A    -11.219029
      10A     -1.511636    11A     -1.382930    12A     -1.236024
      13A     -1.094782    14A     -1.032880    15A     -0.982308
      16A     -0.846328    17A     -0.805269    18A     -0.777375
      19A     -0.743598    20A     -0.680949    21A     -0.678824
      22A     -0.649624    23A     -0.621294    24A     -0.600681
      25A     -0.587048    26A     -0.577344    27A     -0.563854
      28A     -0.541363    29A     -0.536713    30A     -0.444001
      31A     -0.434388    32A     -0.404109    33A     -0.298554

  @DF-RHF Final Energy:  -435.59610440918971

   => Energetics <=

    Nuclear Repulsion Energy =            428.2195374706922735
    One-Electron Energy =               -1442.5949554152862220
    Two-Electron Energy =                 578.7793135354041851
    Total Energy =                       -435.5961044091897065
  Basis Set: (AUG-CC-PVTZ AUX)
    Blend: AUG-CC-PVTZ-RI
    Molecular point group: c1

    Geometry (in Angstrom), charge = 0, multiplicity = 1:

       Center              X                  Y                   Z               Mass
    ------------   -----------------  -----------------  -----------------  -----------------
         O           -1.449949344903    -1.178799858677    -0.009026759401    15.994914619570
         O            1.822821655097     1.380164141323    -0.020024759401    15.994914619570
         N            0.791768655097    -0.658726858677    -0.020017759401    14.003074004430
         C           -0.603872744903    -0.220966858677    -0.004227059401    12.000000000000
         C           -1.101668344903     1.052967141323     0.011930240599    12.000000000000
         C            1.904326655097     0.152947141323    -0.018835759401    12.000000000000
         C           -2.510568344903     0.798703141323     0.018997240599    12.000000000000
         C           -2.677363344903    -0.553756858677     0.006219240599    12.000000000000
         C            3.220287655097    -0.592049858677     0.031584240599    12.000000000000
         H            0.897394655097    -1.666232858677    -0.019879759401     1.007825032230
         H           -0.583501344903     1.997776141323     0.016797240599     1.007825032230
         H           -3.300928344903     1.536834141323     0.031921240599     1.007825032230
         H           -3.530910344903    -1.213726858677     0.005959240599     1.007825032230
         H            3.482925655097    -0.803549858677     1.072579240599     1.007825032230
         H            3.992050655097     0.048312141323    -0.395447759401     1.007825032230
         H            3.185598655097    -1.537325858677    -0.516489759401     1.007825032230

  Basis Set: AUG-CC-PVTZ
    Blend: AUG-CC-PVTZ
  Basis Set: (AUG-CC-PVTZ AUX)
    Blend: AUG-CC-PVTZ-JKFIT
	 Reference Energy          =    -435.5961044091897065 [Eh]
	 Singles Energy            =      -0.0000000000000000 [Eh]
	 Same-Spin Energy          =      -0.4463219026247051 [Eh]
	 Opposite-Spin Energy      =      -1.3673691364940272 [Eh]
	 Correlation Energy        =      -1.8136910391187322 [Eh]
	 Total Energy              =    -437.4097954483084436 [Eh]

	 ================> DF-SCS-MP2 Energies <==================
	-----------------------------------------------------------
	 SCS Same-Spin Scale       =       0.3333333333333333 [-]
	 SCS Opposite-Spin Scale   =       1.2000000000000000 [-]
	 SCS Same-Spin Energy      =      -0.1487739675415684 [Eh]
	 SCS Opposite-Spin Energy  =      -1.6408429637928326 [Eh]
	 SCS Correlation Energy    =      -1.7896169313344008 [Eh]
	 SCS Total Energy          =    -437.3857213405241282 [Eh]
	-----------------------------------------------------------

  Dipole Moment: [D]
     X:    -0.2780      Y:    -2.9909      Z:     0.0799     Total:     3.0048

*** Psi4 exiting successfully. Buy a developer a beer!
