                               Psi4 1.3.2 release

  ==> Input File <==

--------------------------------------------------------------------------
#psi4
#
memory 32 gb

molecule  {
0 1
  O       -1.4890520    -1.1699510    -0.0104640
  O        1.7837190     1.3890130    -0.0214620
  N        0.7526660    -0.6498780    -0.0214550
  C       -0.6237243    -0.2472265    -0.0063326
  C       -1.1407710     1.0618160     0.0104930
  C        1.8652240     0.1617960    -0.0202730
  C       -2.5496710     0.8075520     0.0175600
  C       -2.7164660    -0.5449080     0.0047820
  C        3.1811850    -0.5832010     0.0301470
  H        0.8582920    -1.6573840    -0.0213170
  H       -0.6226040     2.0066250     0.0153600
  H       -3.3400310     1.5456830     0.0304840
  H       -3.5700130    -1.2048780     0.0045220
  H        3.4438230    -0.7947010     1.0711420
  H        3.9529480     0.0571610    -0.3968850
  H        3.1464960    -1.5284770    -0.5179270
units angstrom
no_reorient  #important for SAPT in psi4, default
symmetry c1  #important for SAPT in psi4, default
}

set PROPERTIES_ORIGIN ["COM"]
properties('MP2/aug-cc-pvtz', properties = ['dipole'])
--------------------------------------------------------------------------

    Molecular point group: c1
  Charge       = 0
  Multiplicity = 1
  Basis Set: AUG-CC-PVTZ
    Blend: AUG-CC-PVTZ
  Basis Set: (AUG-CC-PVTZ AUX)
    Blend: AUG-CC-PVTZ-JKFIT

    Orbital Energies [Eh]
    ---------------------

    Doubly Occupied:

       1A    -20.646817     2A    -20.531657     3A    -15.616294
       4A    -11.370182     5A    -11.345114     6A    -11.281323
       7A    -11.249636     8A    -11.237905     9A    -11.219251
      10A     -1.516725    11A     -1.385782    12A     -1.244990
      13A     -1.087123    14A     -1.035635    15A     -0.981839
      16A     -0.848042    17A     -0.809823    18A     -0.777237
      19A     -0.745417    20A     -0.682685    21A     -0.681726
      22A     -0.654777    23A     -0.623501    24A     -0.601953
      25A     -0.584692    26A     -0.576450    27A     -0.562859
      28A     -0.539835    29A     -0.537262    30A     -0.447883
      31A     -0.437080    32A     -0.400669    33A     -0.290638

  @DF-RHF Final Energy:  -435.59444657399359

   => Energetics <=

    Nuclear Repulsion Energy =            428.2042592937361292
    One-Electron Energy =               -1442.4918044009843925
    Two-Electron Energy =                 578.6930985332545561
    Total Energy =                       -435.5944465739936504
  Basis Set: (AUG-CC-PVTZ AUX)
    Blend: AUG-CC-PVTZ-RI
    Molecular point group: c1

    Geometry (in Angstrom), charge = 0, multiplicity = 1:

       Center              X                  Y                   Z               Mass
    ------------   -----------------  -----------------  -----------------  -----------------
         O           -1.451796745853    -1.175430727757    -0.008962627063    15.994914619570
         O            1.820974254147     1.383533272243    -0.019960627063    15.994914619570
         N            0.789921254147    -0.655357727757    -0.019953627063    14.003074004430
         C           -0.586469045853    -0.252706227757    -0.004831227063    12.000000000000
         C           -1.103515745853     1.056336272243     0.011994372937    12.000000000000
         C            1.902479254147     0.156316272243    -0.018771627063    12.000000000000
         C           -2.512415745853     0.802072272243     0.019061372937    12.000000000000
         C           -2.679210745853    -0.550387727757     0.006283372937    12.000000000000
         C            3.218440254147    -0.588680727757     0.031648372937    12.000000000000
         H            0.895547254147    -1.662863727757    -0.019815627063     1.007825032230
         H           -0.585348745853     2.001145272243     0.016861372937     1.007825032230
         H           -3.302775745853     1.540203272243     0.031985372937     1.007825032230
         H           -3.532757745853    -1.210357727757     0.006023372937     1.007825032230
         H            3.481078254147    -0.800180727757     1.072643372937     1.007825032230
         H            3.990203254147     0.051681272243    -0.395383627063     1.007825032230
         H            3.183751254147    -1.533956727757    -0.516425627063     1.007825032230

  Basis Set: AUG-CC-PVTZ
    Blend: AUG-CC-PVTZ
  Basis Set: (AUG-CC-PVTZ AUX)
    Blend: AUG-CC-PVTZ-JKFIT
	 Reference Energy          =    -435.5944465739935936 [Eh]
	 Singles Energy            =      -0.0000000000000000 [Eh]
	 Same-Spin Energy          =      -0.4469100896598041 [Eh]
	 Opposite-Spin Energy      =      -1.3676727854863369 [Eh]
	 Correlation Energy        =      -1.8145828751461410 [Eh]
	 Total Energy              =    -437.4090294491397231 [Eh]

	 ================> DF-SCS-MP2 Energies <==================
	-----------------------------------------------------------
	 SCS Same-Spin Scale       =       0.3333333333333333 [-]
	 SCS Opposite-Spin Scale   =       1.2000000000000000 [-]
	 SCS Same-Spin Energy      =      -0.1489700298866014 [Eh]
	 SCS Opposite-Spin Energy  =      -1.6412073425836042 [Eh]
	 SCS Correlation Energy    =      -1.7901773724702057 [Eh]
	 SCS Total Energy          =    -437.3846239464638188 [Eh]
	-----------------------------------------------------------

  Dipole Moment: [D]
     X:    -0.1186      Y:    -3.0917      Z:     0.0775     Total:     3.0950

*** Psi4 exiting successfully. Buy a developer a beer!
