                               Psi4 1.3.2 release

  ==> Input File <==

--------------------------------------------------------------------------
#psi4
#
memory 32 gb

molecule  {
0 1
  O       -1.4890520    -1.1699510    -0.0104640
  O        1.7837190     1.3890130    -0.0214620
  N        0.7526660    -0.6498780    -0.0214550
  C       -0.4984265    -0.0401689    -0.0048549
  C       -1.1407710     1.0618160     0.0104930
  C        1.8652240     0.1617960    -0.0202730
  C       -2.5496710     0.8075520     0.0175600
  C       -2.7164660    -0.5449080     0.0047820
  C        3.1811850    -0.5832010     0.0301470
  H        0.8582920    -1.6573840    -0.0213170
  H       -0.6226040     2.0066250     0.0153600
  H       -3.3400310     1.5456830     0.0304840
  H       -3.5700130    -1.2048780     0.0045220
  H        3.4438230    -0.7947010     1.0711420
  H        3.9529480     0.0571610    -0.3968850
  H        3.1464960    -1.5284770    -0.5179270
units angstrom
no_reorient  #important for SAPT in psi4, default
symmetry c1  #important for SAPT in psi4, default
}

set PROPERTIES_ORIGIN ["COM"]
properties('MP2/aug-cc-pvtz', properties = ['dipole'])
--------------------------------------------------------------------------

    Molecular point group: c1
  Charge       = 0
  Multiplicity = 1
  Basis Set: AUG-CC-PVTZ
    Blend: AUG-CC-PVTZ
  Basis Set: (AUG-CC-PVTZ AUX)
    Blend: AUG-CC-PVTZ-JKFIT

    Orbital Energies [Eh]
    ---------------------

    Doubly Occupied:

       1A    -20.606509     2A    -20.536525     3A    -15.621867
       4A    -11.370399     5A    -11.332404     6A    -11.289919
       7A    -11.250466     8A    -11.230397     9A    -11.219844
      10A     -1.419068    11A     -1.390679    12A     -1.256248
      13A     -1.097523    14A     -1.033497    15A     -0.979341
      16A     -0.846096    17A     -0.805512    18A     -0.768286
      19A     -0.736765    20A     -0.685156    21A     -0.645895
      22A     -0.641523    23A     -0.610436    24A     -0.602568
      25A     -0.577410    26A     -0.568910    27A     -0.560951
      28A     -0.544163    29A     -0.533654    30A     -0.460925
      31A     -0.440550    32A     -0.404194    33A     -0.305393

  @DF-RHF Final Energy:  -435.58056090120886

   => Energetics <=

    Nuclear Repulsion Energy =            427.5679919084258245
    One-Electron Energy =               -1441.5509638330267990
    Two-Electron Energy =                 578.4024110233921192
    Total Energy =                       -435.5805609012088553
  Basis Set: (AUG-CC-PVTZ AUX)
    Blend: AUG-CC-PVTZ-RI
    Molecular point group: c1

    Geometry (in Angstrom), charge = 0, multiplicity = 1:

       Center              X                  Y                   Z               Mass
    ------------   -----------------  -----------------  -----------------  -----------------
         O           -1.463820748364    -1.195300678406    -0.009104432175    15.994914619570
         O            1.808950251636     1.363663321594    -0.020102432175    15.994914619570
         N            0.777897251636    -0.675227678406    -0.020095432175    14.003074004430
         C           -0.473195248364    -0.065518578406    -0.003495332175    12.000000000000
         C           -1.115539748364     1.036466321594     0.011852567825    12.000000000000
         C            1.890455251636     0.136446321594    -0.018913432175    12.000000000000
         C           -2.524439748364     0.782202321594     0.018919567825    12.000000000000
         C           -2.691234748364    -0.570257678406     0.006141567825    12.000000000000
         C            3.206416251636    -0.608550678406     0.031506567825    12.000000000000
         H            0.883523251636    -1.682733678406    -0.019957432175     1.007825032230
         H           -0.597372748364     1.981275321594     0.016719567825     1.007825032230
         H           -3.314799748364     1.520333321594     0.031843567825     1.007825032230
         H           -3.544781748364    -1.230227678406     0.005881567825     1.007825032230
         H            3.469054251636    -0.820050678406     1.072501567825     1.007825032230
         H            3.978179251636     0.031811321594    -0.395525432175     1.007825032230
         H            3.171727251636    -1.553826678406    -0.516567432175     1.007825032230

  Basis Set: AUG-CC-PVTZ
    Blend: AUG-CC-PVTZ
  Basis Set: (AUG-CC-PVTZ AUX)
    Blend: AUG-CC-PVTZ-JKFIT
	 Reference Energy          =    -435.5805609012088553 [Eh]
	 Singles Energy            =      -0.0000000000000000 [Eh]
	 Same-Spin Energy          =      -0.4466556940238506 [Eh]
	 Opposite-Spin Energy      =      -1.3712294979534767 [Eh]
	 Correlation Energy        =      -1.8178851919773273 [Eh]
	 Total Energy              =    -437.3984460931861804 [Eh]

	 ================> DF-SCS-MP2 Energies <==================
	-----------------------------------------------------------
	 SCS Same-Spin Scale       =       0.3333333333333333 [-]
	 SCS Opposite-Spin Scale   =       1.2000000000000000 [-]
	 SCS Same-Spin Energy      =      -0.1488852313412835 [Eh]
	 SCS Opposite-Spin Energy  =      -1.6454753975441720 [Eh]
	 SCS Correlation Energy    =      -1.7943606288854557 [Eh]
	 SCS Total Energy          =    -437.3749215300942979 [Eh]
	-----------------------------------------------------------

  Dipole Moment: [D]
     X:     0.3541      Y:    -2.6619      Z:     0.0814     Total:     2.6866

*** Psi4 exiting successfully. Buy a developer a beer!
