                               Psi4 1.3.2 release

  ==> Input File <==

--------------------------------------------------------------------------
#psi4
#
memory 32 gb

molecule  {
0 1
  O       -1.4890520    -1.1699510    -0.0104640
  O        1.7837190     1.3890130    -0.0214620
  N        0.7441647    -0.6726335    -0.0215967
  C       -0.5553190    -0.1742840    -0.0060060
  C       -1.1407710     1.0618160     0.0104930
  C        1.8652240     0.1617960    -0.0202730
  C       -2.5496710     0.8075520     0.0175600
  C       -2.7164660    -0.5449080     0.0047820
  C        3.1811850    -0.5832010     0.0301470
  H        0.8582920    -1.6573840    -0.0213170
  H       -0.6226040     2.0066250     0.0153600
  H       -3.3400310     1.5456830     0.0304840
  H       -3.5700130    -1.2048780     0.0045220
  H        3.4438230    -0.7947010     1.0711420
  H        3.9529480     0.0571610    -0.3968850
  H        3.1464960    -1.5284770    -0.5179270
units angstrom
no_reorient  #important for SAPT in psi4, default
symmetry c1  #important for SAPT in psi4, default
}

set PROPERTIES_ORIGIN ["COM"]
properties('MP2/aug-cc-pvtz', properties = ['dipole'])
--------------------------------------------------------------------------

    Molecular point group: c1
  Charge       = 0
  Multiplicity = 1
  Basis Set: AUG-CC-PVTZ
    Blend: AUG-CC-PVTZ
  Basis Set: (AUG-CC-PVTZ AUX)
    Blend: AUG-CC-PVTZ-JKFIT

    Orbital Energies [Eh]
    ---------------------

    Doubly Occupied:

       1A    -20.627796     2A    -20.539151     3A    -15.617690
       4A    -11.374749     5A    -11.338252     6A    -11.283604
       7A    -11.251525     8A    -11.233446     9A    -11.220228
      10A     -1.465596    11A     -1.390440    12A     -1.255364
      13A     -1.083492    14A     -1.036193    15A     -0.977344
      16A     -0.847486    17A     -0.804640    18A     -0.774570
      19A     -0.743342    20A     -0.685058    21A     -0.658119
      22A     -0.648528    23A     -0.621063    24A     -0.605258
      25A     -0.576078    26A     -0.569752    27A     -0.564822
      28A     -0.548512    29A     -0.542416    30A     -0.457780
      31A     -0.441658    32A     -0.398041    33A     -0.292843

  @DF-RHF Final Energy:  -435.60333329347486

   => Energetics <=

    Nuclear Repulsion Energy =            427.5506901420129680
    One-Electron Energy =               -1441.3583804130005319
    Two-Electron Energy =                 578.2043569775127025
    Total Energy =                       -435.6033332934748614
  Basis Set: (AUG-CC-PVTZ AUX)
    Blend: AUG-CC-PVTZ-RI
    Molecular point group: c1

    Geometry (in Angstrom), charge = 0, multiplicity = 1:

       Center              X                  Y                   Z               Mass
    ------------   -----------------  -----------------  -----------------  -----------------
         O           -1.457409159258    -1.179882334187    -0.008978100876    15.994914619570
         O            1.815361840742     1.379081665813    -0.019976100876    15.994914619570
         N            0.775807540742    -0.682564834187    -0.020110800876    14.003074004430
         C           -0.523676159258    -0.184215334187    -0.004520100876    12.000000000000
         C           -1.109128159258     1.051884665813     0.011978899124    12.000000000000
         C            1.896866840742     0.151864665813    -0.018787100876    12.000000000000
         C           -2.518028159258     0.797620665813     0.019045899124    12.000000000000
         C           -2.684823159258    -0.554839334187     0.006267899124    12.000000000000
         C            3.212827840742    -0.593132334187     0.031632899124    12.000000000000
         H            0.889934840742    -1.667315334187    -0.019831100876     1.007825032230
         H           -0.590961159258     1.996693665813     0.016845899124     1.007825032230
         H           -3.308388159258     1.535751665813     0.031969899124     1.007825032230
         H           -3.538370159258    -1.214809334187     0.006007899124     1.007825032230
         H            3.475465840742    -0.804632334187     1.072627899124     1.007825032230
         H            3.984590840742     0.047229665813    -0.395399100876     1.007825032230
         H            3.178138840742    -1.538408334187    -0.516441100876     1.007825032230

  Basis Set: AUG-CC-PVTZ
    Blend: AUG-CC-PVTZ
  Basis Set: (AUG-CC-PVTZ AUX)
    Blend: AUG-CC-PVTZ-JKFIT
	 Reference Energy          =    -435.6033332934748614 [Eh]
	 Singles Energy            =      -0.0000000000000000 [Eh]
	 Same-Spin Energy          =      -0.4468145364020501 [Eh]
	 Opposite-Spin Energy      =      -1.3691625675989814 [Eh]
	 Correlation Energy        =      -1.8159771040010315 [Eh]
	 Total Energy              =    -437.4193103974758969 [Eh]

	 ================> DF-SCS-MP2 Energies <==================
	-----------------------------------------------------------
	 SCS Same-Spin Scale       =       0.3333333333333333 [-]
	 SCS Opposite-Spin Scale   =       1.2000000000000000 [-]
	 SCS Same-Spin Energy      =      -0.1489381788006834 [Eh]
	 SCS Opposite-Spin Energy  =      -1.6429950811187777 [Eh]
	 SCS Correlation Energy    =      -1.7919332599194611 [Eh]
	 SCS Total Energy          =    -437.3952665533943218 [Eh]
	-----------------------------------------------------------

  Dipole Moment: [D]
     X:     0.2695      Y:    -2.8720      Z:     0.0792     Total:     2.8857

*** Psi4 exiting successfully. Buy a developer a beer!
