                               Psi4 1.3.2 release

  ==> Input File <==

--------------------------------------------------------------------------
#psi4
#
memory 32 gb

molecule  {
0 1
  O       -1.4890520    -1.1699510    -0.0104640
  O        1.7837190     1.3890130    -0.0214620
  N        0.7526660    -0.6498780    -0.0214550
  C       -0.4613446    -0.2084539    -0.0071160
  C       -1.1407710     1.0618160     0.0104930
  C        1.8652240     0.1617960    -0.0202730
  C       -2.5496710     0.8075520     0.0175600
  C       -2.7164660    -0.5449080     0.0047820
  C        3.1811850    -0.5832010     0.0301470
  H        0.8582920    -1.6573840    -0.0213170
  H       -0.6226040     2.0066250     0.0153600
  H       -3.3400310     1.5456830     0.0304840
  H       -3.5700130    -1.2048780     0.0045220
  H        3.4438230    -0.7947010     1.0711420
  H        3.9529480     0.0571610    -0.3968850
  H        3.1464960    -1.5284770    -0.5179270
units angstrom
no_reorient  #important for SAPT in psi4, default
symmetry c1  #important for SAPT in psi4, default
}

set PROPERTIES_ORIGIN ["COM"]
properties('MP2/aug-cc-pvtz', properties = ['dipole'])
--------------------------------------------------------------------------

    Molecular point group: c1
  Charge       = 0
  Multiplicity = 1
  Basis Set: AUG-CC-PVTZ
    Blend: AUG-CC-PVTZ
  Basis Set: (AUG-CC-PVTZ AUX)
    Blend: AUG-CC-PVTZ-JKFIT

    Orbital Energies [Eh]
    ---------------------

    Doubly Occupied:

       1A    -20.620954     2A    -20.544702     3A    -15.629812
       4A    -11.379588     5A    -11.344013     6A    -11.279095
       7A    -11.256722     8A    -11.229157     9A    -11.222651
      10A     -1.447425    11A     -1.400570    12A     -1.291739
      13A     -1.065238    14A     -1.047009    15A     -0.970572
      16A     -0.866335    17A     -0.818399    18A     -0.767673
      19A     -0.734913    20A     -0.690293    21A     -0.662317
      22A     -0.656757    23A     -0.619586    24A     -0.612005
      25A     -0.579871    26A     -0.564975    27A     -0.554303
      28A     -0.550244    29A     -0.532586    30A     -0.471086
      31A     -0.448484    32A     -0.388855    33A     -0.274975

  @DF-RHF Final Energy:  -435.58319823158661

   => Energetics <=

    Nuclear Repulsion Energy =            427.7648515442018606
    One-Electron Energy =               -1441.6502867887036246
    Two-Electron Energy =                 578.3022370129151568
    Total Energy =                       -435.5831982315866071
  Basis Set: (AUG-CC-PVTZ AUX)
    Blend: AUG-CC-PVTZ-RI
    Molecular point group: c1

    Geometry (in Angstrom), charge = 0, multiplicity = 1:

       Center              X                  Y                   Z               Mass
    ------------   -----------------  -----------------  -----------------  -----------------
         O           -1.467379253452    -1.179151478160    -0.008887449338    15.994914619570
         O            1.805391746548     1.379812521840    -0.019885449338    15.994914619570
         N            0.774338746548    -0.659078478160    -0.019878449338    14.003074004430
         C           -0.439671853452    -0.217654378160    -0.005539449338    12.000000000000
         C           -1.119098253452     1.052615521840     0.012069550662    12.000000000000
         C            1.886896746548     0.152595521840    -0.018696449338    12.000000000000
         C           -2.527998253452     0.798351521840     0.019136550662    12.000000000000
         C           -2.694793253452    -0.554108478160     0.006358550662    12.000000000000
         C            3.202857746548    -0.592401478160     0.031723550662    12.000000000000
         H            0.879964746548    -1.666584478160    -0.019740449338     1.007825032230
         H           -0.600931253452     1.997424521840     0.016936550662     1.007825032230
         H           -3.318358253452     1.536482521840     0.032060550662     1.007825032230
         H           -3.548340253452    -1.214078478160     0.006098550662     1.007825032230
         H            3.465495746548    -0.803901478160     1.072718550662     1.007825032230
         H            3.974620746548     0.047960521840    -0.395308449338     1.007825032230
         H            3.168168746548    -1.537677478160    -0.516350449338     1.007825032230

  Basis Set: AUG-CC-PVTZ
    Blend: AUG-CC-PVTZ
  Basis Set: (AUG-CC-PVTZ AUX)
    Blend: AUG-CC-PVTZ-JKFIT
	 Reference Energy          =    -435.5831982315866071 [Eh]
	 Singles Energy            =      -0.0000000000000000 [Eh]
	 Same-Spin Energy          =      -0.4492971643652468 [Eh]
	 Opposite-Spin Energy      =      -1.3725221632398568 [Eh]
	 Correlation Energy        =      -1.8218193276051036 [Eh]
	 Total Energy              =    -437.4050175591917196 [Eh]

	 ================> DF-SCS-MP2 Energies <==================
	-----------------------------------------------------------
	 SCS Same-Spin Scale       =       0.3333333333333333 [-]
	 SCS Opposite-Spin Scale   =       1.2000000000000000 [-]
	 SCS Same-Spin Energy      =      -0.1497657214550823 [Eh]
	 SCS Opposite-Spin Energy  =      -1.6470265958878281 [Eh]
	 SCS Correlation Energy    =      -1.7967923173429103 [Eh]
	 SCS Total Energy          =    -437.3799905489295270 [Eh]
	-----------------------------------------------------------

  Dipole Moment: [D]
     X:     0.7116      Y:    -3.0873      Z:     0.0725     Total:     3.1690

*** Psi4 exiting successfully. Buy a developer a beer!
