                               Psi4 1.3.2 release

  ==> Input File <==

--------------------------------------------------------------------------
#psi4
#
memory 32 gb

molecule  {
0 1
  O       -1.4890520    -1.1699510    -0.0104640
  O        1.7837190     1.3890130    -0.0214620
  N        0.7526660    -0.6498780    -0.0214550
  C       -0.4705139    -0.1304290    -0.0061428
  C       -1.1407710     1.0618160     0.0104930
  C        1.8652240     0.1617960    -0.0202730
  C       -2.5496710     0.8075520     0.0175600
  C       -2.7164660    -0.5449080     0.0047820
  C        3.1811850    -0.5832010     0.0301470
  H        0.8582920    -1.6573840    -0.0213170
  H       -0.6226040     2.0066250     0.0153600
  H       -3.3400310     1.5456830     0.0304840
  H       -3.5700130    -1.2048780     0.0045220
  H        3.4438230    -0.7947010     1.0711420
  H        3.9529480     0.0571610    -0.3968850
  H        3.1464960    -1.5284770    -0.5179270
units angstrom
no_reorient  #important for SAPT in psi4, default
symmetry c1  #important for SAPT in psi4, default
}

set PROPERTIES_ORIGIN ["COM"]
properties('MP2/aug-cc-pvtz', properties = ['dipole'])
--------------------------------------------------------------------------

    Molecular point group: c1
  Charge       = 0
  Multiplicity = 1
  Basis Set: AUG-CC-PVTZ
    Blend: AUG-CC-PVTZ
  Basis Set: (AUG-CC-PVTZ AUX)
    Blend: AUG-CC-PVTZ-JKFIT

    Orbital Energies [Eh]
    ---------------------

    Doubly Occupied:

       1A    -20.613621     2A    -20.541103     3A    -15.626078
       4A    -11.375438     5A    -11.338601     6A    -11.284475
       7A    -11.253902     8A    -11.229496     9A    -11.222852
      10A     -1.432175    11A     -1.396067    12A     -1.276923
      13A     -1.076347    14A     -1.041040    15A     -0.973549
      16A     -0.858238    17A     -0.812895    18A     -0.767355
      19A     -0.735359    20A     -0.687982    21A     -0.654157
      22A     -0.649760    23A     -0.614544    24A     -0.607917
      25A     -0.575948    26A     -0.569153    27A     -0.554100
      28A     -0.549903    29A     -0.537165    30A     -0.466663
      31A     -0.445033    32A     -0.394024    33A     -0.288571

  @DF-RHF Final Energy:  -435.59060331778016

   => Energetics <=

    Nuclear Repulsion Energy =            427.6318478122020679
    One-Electron Energy =               -1441.5440307736248542
    Two-Electron Energy =                 578.3215796436426217
    Total Energy =                       -435.5906033177801646
  Basis Set: (AUG-CC-PVTZ AUX)
    Blend: AUG-CC-PVTZ-RI
    Molecular point group: c1

    Geometry (in Angstrom), charge = 0, multiplicity = 1:

       Center              X                  Y                   Z               Mass
    ------------   -----------------  -----------------  -----------------  -----------------
         O           -1.466499336277    -1.186639012606    -0.008980840916    15.994914619570
         O            1.806271663723     1.372324987394    -0.019978840916    15.994914619570
         N            0.775218663723    -0.666566012606    -0.019971840916    14.003074004430
         C           -0.447961236277    -0.147117012606    -0.004659640916    12.000000000000
         C           -1.118218336277     1.045127987394     0.011976159084    12.000000000000
         C            1.887776663723     0.145107987394    -0.018789840916    12.000000000000
         C           -2.527118336277     0.790863987394     0.019043159084    12.000000000000
         C           -2.693913336277    -0.561596012606     0.006265159084    12.000000000000
         C            3.203737663723    -0.599889012606     0.031630159084    12.000000000000
         H            0.880844663723    -1.674072012606    -0.019833840916     1.007825032230
         H           -0.600051336277     1.989936987394     0.016843159084     1.007825032230
         H           -3.317478336277     1.528994987394     0.031967159084     1.007825032230
         H           -3.547460336277    -1.221566012606     0.006005159084     1.007825032230
         H            3.466375663723    -0.811389012606     1.072625159084     1.007825032230
         H            3.975500663723     0.040472987394    -0.395401840916     1.007825032230
         H            3.169048663723    -1.545165012606    -0.516443840916     1.007825032230

  Basis Set: AUG-CC-PVTZ
    Blend: AUG-CC-PVTZ
  Basis Set: (AUG-CC-PVTZ AUX)
    Blend: AUG-CC-PVTZ-JKFIT
	 Reference Energy          =    -435.5906033177801646 [Eh]
	 Singles Energy            =      -0.0000000000000000 [Eh]
	 Same-Spin Energy          =      -0.4480797943521918 [Eh]
	 Opposite-Spin Energy      =      -1.3718990508482252 [Eh]
	 Correlation Energy        =      -1.8199788452004171 [Eh]
	 Total Energy              =    -437.4105821629805746 [Eh]

	 ================> DF-SCS-MP2 Energies <==================
	-----------------------------------------------------------
	 SCS Same-Spin Scale       =       0.3333333333333333 [-]
	 SCS Opposite-Spin Scale   =       1.2000000000000000 [-]
	 SCS Same-Spin Energy      =      -0.1493599314507306 [Eh]
	 SCS Opposite-Spin Energy  =      -1.6462788610178702 [Eh]
	 SCS Correlation Energy    =      -1.7956387924686008 [Eh]
	 SCS Total Energy          =    -437.3862421102487588 [Eh]
	-----------------------------------------------------------

  Dipole Moment: [D]
     X:     0.5923      Y:    -2.9045      Z:     0.0763     Total:     2.9653

*** Psi4 exiting successfully. Buy a developer a beer!
