                               Psi4 1.3.2 release

  ==> Input File <==

--------------------------------------------------------------------------
#psi4
#
memory 32 gb

molecule  {
0 1
  O       -1.4890520    -1.1699510    -0.0104640
  O        1.7837190     1.3890130    -0.0214620
  N        0.7526660    -0.6498780    -0.0214550
  C       -0.5553190    -0.1742840    -0.0060060
  C       -1.1407710     1.0618160     0.0104930
  C        1.8792202     0.1422556    -0.0202574
  C       -2.5496710     0.8075520     0.0175600
  C       -2.7164660    -0.5449080     0.0047820
  C        3.1811850    -0.5832010     0.0301470
  H        0.8582920    -1.6573840    -0.0213170
  H       -0.6226040     2.0066250     0.0153600
  H       -3.3400310     1.5456830     0.0304840
  H       -3.5700130    -1.2048780     0.0045220
  H        3.4438230    -0.7947010     1.0711420
  H        3.9529480     0.0571610    -0.3968850
  H        3.1464960    -1.5284770    -0.5179270
units angstrom
no_reorient  #important for SAPT in psi4, default
symmetry c1  #important for SAPT in psi4, default
}

set PROPERTIES_ORIGIN ["COM"]
properties('MP2/aug-cc-pvtz', properties = ['dipole'])
--------------------------------------------------------------------------

    Molecular point group: c1
  Charge       = 0
  Multiplicity = 1
  Basis Set: AUG-CC-PVTZ
    Blend: AUG-CC-PVTZ
  Basis Set: (AUG-CC-PVTZ AUX)
    Blend: AUG-CC-PVTZ-JKFIT

    Orbital Energies [Eh]
    ---------------------

    Doubly Occupied:

       1A    -20.629722     2A    -20.532051     3A    -15.621283
       4A    -11.372699     5A    -11.339003     6A    -11.284891
       7A    -11.252143     8A    -11.234011     9A    -11.220719
      10A     -1.466697    11A     -1.378098    12A     -1.253784
      13A     -1.084175    14A     -1.042275    15A     -0.979868
      16A     -0.850247    17A     -0.806662    18A     -0.770549
      19A     -0.741935    20A     -0.684751    21A     -0.659543
      22A     -0.649734    23A     -0.622779    24A     -0.598681
      25A     -0.575529    26A     -0.571407    27A     -0.565620
      28A     -0.548106    29A     -0.541918    30A     -0.450339
      31A     -0.439394    32A     -0.398452    33A     -0.293860

  @DF-RHF Final Energy:  -435.60137930717997

   => Energetics <=

    Nuclear Repulsion Energy =            427.6049339115912176
    One-Electron Energy =               -1441.4907790776373986
    Two-Electron Energy =                 578.2844658588662696
    Total Energy =                       -435.6013793071799682
  Basis Set: (AUG-CC-PVTZ AUX)
    Blend: AUG-CC-PVTZ-RI
    Molecular point group: c1

    Geometry (in Angstrom), charge = 0, multiplicity = 1:

       Center              X                  Y                   Z               Mass
    ------------   -----------------  -----------------  -----------------  -----------------
         O           -1.459704273702    -1.180555374675    -0.008995465738    15.994914619570
         O            1.813066726298     1.378408625325    -0.019993465738    15.994914619570
         N            0.782013726298    -0.660482374675    -0.019986465738    14.003074004430
         C           -0.525971273702    -0.184888374675    -0.004537465738    12.000000000000
         C           -1.111423273702     1.051211625325     0.011961534262    12.000000000000
         C            1.908567926298     0.131651225325    -0.018788865738    12.000000000000
         C           -2.520323273702     0.796947625325     0.019028534262    12.000000000000
         C           -2.687118273702    -0.555512374675     0.006250534262    12.000000000000
         C            3.210532726298    -0.593805374675     0.031615534262    12.000000000000
         H            0.887639726298    -1.667988374675    -0.019848465738     1.007825032230
         H           -0.593256273702     1.996020625325     0.016828534262     1.007825032230
         H           -3.310683273702     1.535078625325     0.031952534262     1.007825032230
         H           -3.540665273702    -1.215482374675     0.005990534262     1.007825032230
         H            3.473170726298    -0.805305374675     1.072610534262     1.007825032230
         H            3.982295726298     0.046556625325    -0.395416465738     1.007825032230
         H            3.175843726298    -1.539081374675    -0.516458465738     1.007825032230

  Basis Set: AUG-CC-PVTZ
    Blend: AUG-CC-PVTZ
  Basis Set: (AUG-CC-PVTZ AUX)
    Blend: AUG-CC-PVTZ-JKFIT
	 Reference Energy          =    -435.6013793071799682 [Eh]
	 Singles Energy            =      -0.0000000000000000 [Eh]
	 Same-Spin Energy          =      -0.4475159370105269 [Eh]
	 Opposite-Spin Energy      =      -1.3702561050333284 [Eh]
	 Correlation Energy        =      -1.8177720420438552 [Eh]
	 Total Energy              =    -437.4191513492237959 [Eh]

	 ================> DF-SCS-MP2 Energies <==================
	-----------------------------------------------------------
	 SCS Same-Spin Scale       =       0.3333333333333333 [-]
	 SCS Opposite-Spin Scale   =       1.2000000000000000 [-]
	 SCS Same-Spin Energy      =      -0.1491719790035090 [Eh]
	 SCS Opposite-Spin Energy  =      -1.6443073260399941 [Eh]
	 SCS Correlation Energy    =      -1.7934793050435029 [Eh]
	 SCS Total Energy          =    -437.3948586122234587 [Eh]
	-----------------------------------------------------------

  Dipole Moment: [D]
     X:     0.1883      Y:    -3.0502      Z:     0.0824     Total:     3.0571

*** Psi4 exiting successfully. Buy a developer a beer!
