                               Psi4 1.4a3.dev225

  ==> Input File <==

--------------------------------------------------------------------------
#psi4
#
memory 32 gb

molecule  {
0 1
  O       -1.4890520    -1.1699510    -0.0104640
  O        1.7837190     1.3890130    -0.0214620
  N        0.7526660    -0.6498780    -0.0214550
  C       -0.5083318    -0.1913689    -0.0065610
  C       -1.1407710     1.0618160     0.0104930
  C        1.8652240     0.1617960    -0.0202730
  C       -2.5496710     0.8075520     0.0175600
  C       -2.7164660    -0.5449080     0.0047820
  C        3.1811850    -0.5832010     0.0301470
  H        0.8582920    -1.6573840    -0.0213170
  H       -0.6226040     2.0066250     0.0153600
  H       -3.3400310     1.5456830     0.0304840
  H       -3.5700130    -1.2048780     0.0045220
  H        3.4438230    -0.7947010     1.0711420
  H        3.9529480     0.0571610    -0.3968850
  H        3.1464960    -1.5284770    -0.5179270
units angstrom
no_reorient  #important for SAPT in psi4, default
symmetry c1  #important for SAPT in psi4, default
}

set PROPERTIES_ORIGIN ["COM"]
properties('MP2/aug-cc-pvtz', properties = ['dipole'])
--------------------------------------------------------------------------

    Molecular point group: c1
  Charge       = 0
  Multiplicity = 1
  Basis Set: AUG-CC-PVTZ
    Blend: AUG-CC-PVTZ
  Basis Set: (AUG-CC-PVTZ AUX)
    Blend: AUG-CC-PVTZ-JKFIT

    Orbital Energies [Eh]
    ---------------------

    Doubly Occupied:

       1A    -20.625336     2A    -20.539648     3A    -15.624799
       4A    -11.375391     5A    -11.341103     6A    -11.282014
       7A    -11.253694     8A    -11.231546     9A    -11.221794
      10A     -1.456367    11A     -1.395117    12A     -1.273210
      13A     -1.074118    14A     -1.041490    15A     -0.974448
      16A     -0.857512    17A     -0.810950    18A     -0.770070
      19A     -0.739348    20A     -0.687383    21A     -0.659353
      22A     -0.653871    23A     -0.621134    24A     -0.607028
      25A     -0.576141    26A     -0.568594    27A     -0.557089
      28A     -0.549061    29A     -0.542633    30A     -0.463251
      31A     -0.444089    32A     -0.393532    33A     -0.284585

  @DF-RHF Final Energy:  -435.59806296013647

   => Energetics <=

    Nuclear Repulsion Energy =            427.7651360405116634
    One-Electron Energy =               -1441.7350014703547458
    Two-Electron Energy =                 578.3718024697066085
    Total Energy =                       -435.5980629601365308
  Basis Set: (AUG-CC-PVTZ AUX)
    Blend: AUG-CC-PVTZ-RI
    Molecular point group: c1

    Geometry (in Angstrom), charge = 0, multiplicity = 1:

       Center              X                  Y                   Z               Mass
    ------------   -----------------  -----------------  -----------------  -----------------
         O           -1.462870202129    -1.180791012796    -0.008940709023    15.994914619570
         O            1.809900797871     1.378172987204    -0.019938709023    15.994914619570
         N            0.778847797871    -0.660718012796    -0.019931709023    14.003074004430
         C           -0.482150002129    -0.202208912796    -0.005037709023    12.000000000000
         C           -1.114589202129     1.050975987204     0.012016290977    12.000000000000
         C            1.891405797871     0.150955987204    -0.018749709023    12.000000000000
         C           -2.523489202129     0.796711987204     0.019083290977    12.000000000000
         C           -2.690284202129    -0.555748012796     0.006305290977    12.000000000000
         C            3.207366797871    -0.594041012796     0.031670290977    12.000000000000
         H            0.884473797871    -1.668224012796    -0.019793709023     1.007825032230
         H           -0.596422202129     1.995784987204     0.016883290977     1.007825032230
         H           -3.313849202129     1.534842987204     0.032007290977     1.007825032230
         H           -3.543831202129    -1.215718012796     0.006045290977     1.007825032230
         H            3.470004797871    -0.805541012796     1.072665290977     1.007825032230
         H            3.979129797871     0.046320987204    -0.395361709023     1.007825032230
         H            3.172677797871    -1.539317012796    -0.516403709023     1.007825032230

  Basis Set: AUG-CC-PVTZ
    Blend: AUG-CC-PVTZ
  Basis Set: (AUG-CC-PVTZ AUX)
    Blend: AUG-CC-PVTZ-JKFIT
	 Reference Energy          =    -435.5980629601364740 [Eh]
	 Singles Energy            =      -0.0000000000000000 [Eh]
	 Same-Spin Energy          =      -0.4479913510009848 [Eh]
	 Opposite-Spin Energy      =      -1.3706174546789480 [Eh]
	 Correlation Energy        =      -1.8186088056799328 [Eh]
	 Total Energy              =    -437.4166717658164316 [Eh]

	 ================> DF-SCS-MP2 Energies <==================
	-----------------------------------------------------------
	 SCS Same-Spin Scale       =       0.3333333333333333 [-]
	 SCS Opposite-Spin Scale   =       1.2000000000000000 [-]
	 SCS Same-Spin Energy      =      -0.1493304503336616 [Eh]
	 SCS Opposite-Spin Energy  =      -1.6447409456147375 [Eh]
	 SCS Correlation Energy    =      -1.7940713959483992 [Eh]
	 SCS Total Energy          =    -437.3921343560848527 [Eh]
	-----------------------------------------------------------

  Dipole Moment: [D]
     X:     0.4405      Y:    -3.0168      Z:     0.0753     Total:     3.0497

*** Psi4 exiting successfully. Buy a developer a beer!
