                               Psi4 1.4a3.dev225

  ==> Input File <==

--------------------------------------------------------------------------
#psi4
#
memory 32 gb

molecule  {
0 1
  O       -1.4890520    -1.1699510    -0.0104640
  O        1.7837190     1.3890130    -0.0214620
  N        0.7526660    -0.6498780    -0.0214550
  C       -0.5895216    -0.2107553    -0.0061693
  C       -1.1407710     1.0618160     0.0104930
  C        1.8652240     0.1617960    -0.0202730
  C       -2.5496710     0.8075520     0.0175600
  C       -2.7164660    -0.5449080     0.0047820
  C        3.1811850    -0.5832010     0.0301470
  H        0.8582920    -1.6573840    -0.0213170
  H       -0.6226040     2.0066250     0.0153600
  H       -3.3400310     1.5456830     0.0304840
  H       -3.5700130    -1.2048780     0.0045220
  H        3.4438230    -0.7947010     1.0711420
  H        3.9529480     0.0571610    -0.3968850
  H        3.1464960    -1.5284770    -0.5179270
units angstrom
no_reorient  #important for SAPT in psi4, default
symmetry c1  #important for SAPT in psi4, default
}

set PROPERTIES_ORIGIN ["COM"]
properties('MP2/aug-cc-pvtz', properties = ['dipole'])
--------------------------------------------------------------------------

    Molecular point group: c1
  Charge       = 0
  Multiplicity = 1
  Basis Set: AUG-CC-PVTZ
    Blend: AUG-CC-PVTZ
  Basis Set: (AUG-CC-PVTZ AUX)
    Blend: AUG-CC-PVTZ-JKFIT

    Orbital Energies [Eh]
    ---------------------

    Doubly Occupied:

       1A    -20.637988     2A    -20.533281     3A    -15.618091
       4A    -11.370747     5A    -11.341426     6A    -11.283098
       7A    -11.250228     8A    -11.235923     9A    -11.219947
      10A     -1.489878    11A     -1.387804    12A     -1.250608
      13A     -1.085156    14A     -1.036156    15A     -0.979577
      16A     -0.848968    17A     -0.806926    18A     -0.773964
      19A     -0.744148    20A     -0.683658    21A     -0.668947
      22A     -0.652110    23A     -0.623083    24A     -0.601992
      25A     -0.577887    26A     -0.574564    27A     -0.566004
      28A     -0.543986    29A     -0.541757    30A     -0.451813
      31A     -0.438477    32A     -0.399375    33A     -0.292378

  @DF-RHF Final Energy:  -435.60267189107827

   => Energetics <=

    Nuclear Repulsion Energy =            427.9956738460892325
    One-Electron Energy =               -1442.1768018746479356
    Two-Electron Energy =                 578.5784561374804298
    Total Energy =                       -435.6026718910783302
  Basis Set: (AUG-CC-PVTZ AUX)
    Blend: AUG-CC-PVTZ-RI
    Molecular point group: c1

    Geometry (in Angstrom), charge = 0, multiplicity = 1:

       Center              X                  Y                   Z               Mass
    ------------   -----------------  -----------------  -----------------  -----------------
         O           -1.455078953128    -1.178930627998    -0.008978297886    15.994914619570
         O            1.817692046872     1.380033372002    -0.019976297886    15.994914619570
         N            0.786639046872    -0.658857627998    -0.019969297886    14.003074004430
         C           -0.555548553128    -0.219734927998    -0.004683597886    12.000000000000
         C           -1.106797953128     1.052836372002     0.011978702114    12.000000000000
         C            1.899197046872     0.152816372002    -0.018787297886    12.000000000000
         C           -2.515697953128     0.798572372002     0.019045702114    12.000000000000
         C           -2.682492953128    -0.553887627998     0.006267702114    12.000000000000
         C            3.215158046872    -0.592180627998     0.031632702114    12.000000000000
         H            0.892265046872    -1.666363627998    -0.019831297886     1.007825032230
         H           -0.588630953128     1.997645372002     0.016845702114     1.007825032230
         H           -3.306057953128     1.536703372002     0.031969702114     1.007825032230
         H           -3.536039953128    -1.213857627998     0.006007702114     1.007825032230
         H            3.477796046872    -0.803680627998     1.072627702114     1.007825032230
         H            3.986921046872     0.048181372002    -0.395399297886     1.007825032230
         H            3.180469046872    -1.537456627998    -0.516441297886     1.007825032230

  Basis Set: AUG-CC-PVTZ
    Blend: AUG-CC-PVTZ
  Basis Set: (AUG-CC-PVTZ AUX)
    Blend: AUG-CC-PVTZ-JKFIT
	 Reference Energy          =    -435.6026718910782733 [Eh]
	 Singles Energy            =      -0.0000000000000000 [Eh]
	 Same-Spin Energy          =      -0.4468672480090375 [Eh]
	 Opposite-Spin Energy      =      -1.3683308611845453 [Eh]
	 Correlation Energy        =      -1.8151981091935827 [Eh]
	 Total Energy              =    -437.4178700002718756 [Eh]

	 ================> DF-SCS-MP2 Energies <==================
	-----------------------------------------------------------
	 SCS Same-Spin Scale       =       0.3333333333333333 [-]
	 SCS Opposite-Spin Scale   =       1.2000000000000000 [-]
	 SCS Same-Spin Energy      =      -0.1489557493363458 [Eh]
	 SCS Opposite-Spin Energy  =      -1.6419970334214542 [Eh]
	 SCS Correlation Energy    =      -1.7909527827578000 [Eh]
	 SCS Total Energy          =    -437.3936246738360865 [Eh]
	-----------------------------------------------------------

  Dipole Moment: [D]
     X:     0.0190      Y:    -3.0146      Z:     0.0779     Total:     3.0156

*** Psi4 exiting successfully. Buy a developer a beer!
