                               Psi4 1.3.2 release

  ==> Input File <==

--------------------------------------------------------------------------
#psi4
#
memory 32 gb

molecule  {
0 1
  O       -1.4890520    -1.1699510    -0.0104640
  O        1.7837190     1.3890130    -0.0214620
  N        0.7526660    -0.6498780    -0.0214550
  C       -0.5553190    -0.1742840    -0.0060060
  C       -1.1407710     1.0618160     0.0104930
  C        1.7742863     0.2736436    -0.0203738
  C       -2.5496710     0.8075520     0.0175600
  C       -2.7164660    -0.5449080     0.0047820
  C        3.1811850    -0.5832010     0.0301470
  H        0.8582920    -1.6573840    -0.0213170
  H       -0.6226040     2.0066250     0.0153600
  H       -3.3400310     1.5456830     0.0304840
  H       -3.5700130    -1.2048780     0.0045220
  H        3.4438230    -0.7947010     1.0711420
  H        3.9529480     0.0571610    -0.3968850
  H        3.1464960    -1.5284770    -0.5179270
units angstrom
no_reorient  #important for SAPT in psi4, default
symmetry c1  #important for SAPT in psi4, default
}

set PROPERTIES_ORIGIN ["COM"]
properties('MP2/aug-cc-pvtz', properties = ['dipole'])
--------------------------------------------------------------------------

    Molecular point group: c1
  Charge       = 0
  Multiplicity = 1
  Basis Set: AUG-CC-PVTZ
    Blend: AUG-CC-PVTZ
  Basis Set: (AUG-CC-PVTZ AUX)
    Blend: AUG-CC-PVTZ-JKFIT

    Orbital Energies [Eh]
    ---------------------

    Doubly Occupied:

       1A    -20.628792     2A    -20.553221     3A    -15.614859
       4A    -11.365759     5A    -11.337928     6A    -11.283906
       7A    -11.237277     8A    -11.234884     9A    -11.221059
      10A     -1.476024    11A     -1.463776    12A     -1.266262
      13A     -1.084820    14A     -1.011360    15A     -0.961089
      16A     -0.852857    17A     -0.801561    18A     -0.776462
      19A     -0.744760    20A     -0.701650    21A     -0.663733
      22A     -0.652445    23A     -0.628763    24A     -0.626257
      25A     -0.577362    26A     -0.566526    27A     -0.555395
      28A     -0.550758    29A     -0.549413    30A     -0.481830
      31A     -0.422153    32A     -0.399850    33A     -0.294042

  @DF-RHF Final Energy:  -435.58163164647112

   => Energetics <=

    Nuclear Repulsion Energy =            429.4351631503510589
    One-Electron Energy =               -1444.8599214200019105
    Two-Electron Energy =                 579.8431266231797281
    Total Energy =                       -435.5816316464711235
  Basis Set: (AUG-CC-PVTZ AUX)
    Blend: AUG-CC-PVTZ-RI
    Molecular point group: c1

    Geometry (in Angstrom), charge = 0, multiplicity = 1:

       Center              X                  Y                   Z               Mass
    ------------   -----------------  -----------------  -----------------  -----------------
         O           -1.449634460208    -1.193163813466    -0.008984295598    15.994914619570
         O            1.823136539792     1.365800186534    -0.019982295598    15.994914619570
         N            0.792083539792    -0.673090813466    -0.019975295598    14.003074004430
         C           -0.515901460208    -0.197496813466    -0.004526295598    12.000000000000
         C           -1.101353460208     1.038603186534     0.011972704402    12.000000000000
         C            1.813703839792     0.250430786534    -0.018894095598    12.000000000000
         C           -2.510253460208     0.784339186534     0.019039704402    12.000000000000
         C           -2.677048460208    -0.568120813466     0.006261704402    12.000000000000
         C            3.220602539792    -0.606413813466     0.031626704402    12.000000000000
         H            0.897709539792    -1.680596813466    -0.019837295598     1.007825032230
         H           -0.583186460208     1.983412186534     0.016839704402     1.007825032230
         H           -3.300613460208     1.522470186534     0.031963704402     1.007825032230
         H           -3.530595460208    -1.228090813466     0.006001704402     1.007825032230
         H            3.483240539792    -0.817913813466     1.072621704402     1.007825032230
         H            3.992365539792     0.033948186534    -0.395405295598     1.007825032230
         H            3.185913539792    -1.551689813466    -0.516447295598     1.007825032230

  Basis Set: AUG-CC-PVTZ
    Blend: AUG-CC-PVTZ
  Basis Set: (AUG-CC-PVTZ AUX)
    Blend: AUG-CC-PVTZ-JKFIT
	 Reference Energy          =    -435.5816316464711235 [Eh]
	 Singles Energy            =      -0.0000000000000000 [Eh]
	 Same-Spin Energy          =      -0.4444657545315229 [Eh]
	 Opposite-Spin Energy      =      -1.3646245120250291 [Eh]
	 Correlation Energy        =      -1.8090902665565520 [Eh]
	 Total Energy              =    -437.3907219130276758 [Eh]

	 ================> DF-SCS-MP2 Energies <==================
	-----------------------------------------------------------
	 SCS Same-Spin Scale       =       0.3333333333333333 [-]
	 SCS Opposite-Spin Scale   =       1.2000000000000000 [-]
	 SCS Same-Spin Energy      =      -0.1481552515105076 [Eh]
	 SCS Opposite-Spin Energy  =      -1.6375494144300349 [Eh]
	 SCS Correlation Energy    =      -1.7857046659405424 [Eh]
	 SCS Total Energy          =    -437.3673363124116804 [Eh]
	-----------------------------------------------------------

  Dipole Moment: [D]
     X:    -0.1773      Y:    -2.2274      Z:     0.0520     Total:     2.2351

*** Psi4 exiting successfully. Buy a developer a beer!
