                               Psi4 1.3.2 release

  ==> Input File <==

--------------------------------------------------------------------------
#psi4
#
memory 32 gb

molecule  {
0 1
  O       -1.4890520    -1.1699510    -0.0104640
  O        1.7837190     1.3890130    -0.0214620
  N        0.7526660    -0.6498780    -0.0214550
  C       -0.5906349    -0.1423075    -0.0054146
  C       -1.1407710     1.0618160     0.0104930
  C        1.8652240     0.1617960    -0.0202730
  C       -2.5496710     0.8075520     0.0175600
  C       -2.7164660    -0.5449080     0.0047820
  C        3.1811850    -0.5832010     0.0301470
  H        0.8582920    -1.6573840    -0.0213170
  H       -0.6226040     2.0066250     0.0153600
  H       -3.3400310     1.5456830     0.0304840
  H       -3.5700130    -1.2048780     0.0045220
  H        3.4438230    -0.7947010     1.0711420
  H        3.9529480     0.0571610    -0.3968850
  H        3.1464960    -1.5284770    -0.5179270
units angstrom
no_reorient  #important for SAPT in psi4, default
symmetry c1  #important for SAPT in psi4, default
}

set PROPERTIES_ORIGIN ["COM"]
properties('MP2/aug-cc-pvtz', properties = ['dipole'])
--------------------------------------------------------------------------

    Molecular point group: c1
  Charge       = 0
  Multiplicity = 1
  Basis Set: AUG-CC-PVTZ
    Blend: AUG-CC-PVTZ
  Basis Set: (AUG-CC-PVTZ AUX)
    Blend: AUG-CC-PVTZ-JKFIT

    Orbital Energies [Eh]
    ---------------------

    Doubly Occupied:

       1A    -20.630185     2A    -20.531159     3A    -15.615542
       4A    -11.367680     5A    -11.335699     6A    -11.287543
       7A    -11.248300     8A    -11.235895     9A    -11.219097
      10A     -1.468738    11A     -1.385702    12A     -1.242541
      13A     -1.095531    14A     -1.032524    15A     -0.980205
      16A     -0.845276    17A     -0.802081    18A     -0.770975
      19A     -0.742434    20A     -0.682459    21A     -0.658640
      22A     -0.643889    23A     -0.620027    24A     -0.598546
      25A     -0.583479    26A     -0.569301    27A     -0.565803
      28A     -0.552262    29A     -0.539384    30A     -0.450043
      31A     -0.436242    32A     -0.403819    33A     -0.303096

  @DF-RHF Final Energy:  -435.60224869992243

   => Energetics <=

    Nuclear Repulsion Energy =            427.8998345079908745
    One-Electron Energy =               -1442.1159681270612509
    Two-Electron Energy =                 578.6138849191479494
    Total Energy =                       -435.6022486999224839
  Basis Set: (AUG-CC-PVTZ AUX)
    Blend: AUG-CC-PVTZ-RI
    Molecular point group: c1

    Geometry (in Angstrom), charge = 0, multiplicity = 1:

       Center              X                  Y                   Z               Mass
    ------------   -----------------  -----------------  -----------------  -----------------
         O           -1.454972117078    -1.185499111396    -0.009050721462    15.994914619570
         O            1.817798882922     1.373464888604    -0.020048721462    15.994914619570
         N            0.786745882922    -0.665426111396    -0.020041721462    14.003074004430
         C           -0.556555017078    -0.157855611396    -0.004001321462    12.000000000000
         C           -1.106691117078     1.046267888604     0.011906278538    12.000000000000
         C            1.899303882922     0.146247888604    -0.018859721462    12.000000000000
         C           -2.515591117078     0.792003888604     0.018973278538    12.000000000000
         C           -2.682386117078    -0.560456111396     0.006195278538    12.000000000000
         C            3.215264882922    -0.598749111396     0.031560278538    12.000000000000
         H            0.892371882922    -1.672932111396    -0.019903721462     1.007825032230
         H           -0.588524117078     1.991076888604     0.016773278538     1.007825032230
         H           -3.305951117078     1.530134888604     0.031897278538     1.007825032230
         H           -3.535933117078    -1.220426111396     0.005935278538     1.007825032230
         H            3.477902882922    -0.810249111396     1.072555278538     1.007825032230
         H            3.987027882922     0.041612888604    -0.395471721462     1.007825032230
         H            3.180575882922    -1.544025111396    -0.516513721462     1.007825032230

  Basis Set: AUG-CC-PVTZ
    Blend: AUG-CC-PVTZ
  Basis Set: (AUG-CC-PVTZ AUX)
    Blend: AUG-CC-PVTZ-JKFIT
	 Reference Energy          =    -435.6022486999224270 [Eh]
	 Singles Energy            =      -0.0000000000000000 [Eh]
	 Same-Spin Energy          =      -0.4460456421362099 [Eh]
	 Opposite-Spin Energy      =      -1.3683511513906990 [Eh]
	 Correlation Energy        =      -1.8143967935269090 [Eh]
	 Total Energy              =    -437.4166454934493231 [Eh]

	 ================> DF-SCS-MP2 Energies <==================
	-----------------------------------------------------------
	 SCS Same-Spin Scale       =       0.3333333333333333 [-]
	 SCS Opposite-Spin Scale   =       1.2000000000000000 [-]
	 SCS Same-Spin Energy      =      -0.1486818807120699 [Eh]
	 SCS Opposite-Spin Energy  =      -1.6420213816688387 [Eh]
	 SCS Correlation Energy    =      -1.7907032623809087 [Eh]
	 SCS Total Energy          =    -437.3929519623033570 [Eh]
	-----------------------------------------------------------

  Dipole Moment: [D]
     X:    -0.0706      Y:    -2.8418      Z:     0.0809     Total:     2.8438

*** Psi4 exiting successfully. Buy a developer a beer!
