                               Psi4 1.3.2 release

  ==> Input File <==

--------------------------------------------------------------------------
#psi4
#
memory 32 gb

molecule  {
0 1
  O       -1.4890520    -1.1699510    -0.0104640
  O        1.7837190     1.3890130    -0.0214620
  N        0.7526660    -0.6498780    -0.0214550
  C       -0.6877416    -0.2287162    -0.0056504
  C       -1.1407710     1.0618160     0.0104930
  C        1.8652240     0.1617960    -0.0202730
  C       -2.5496710     0.8075520     0.0175600
  C       -2.7164660    -0.5449080     0.0047820
  C        3.1811850    -0.5832010     0.0301470
  H        0.8582920    -1.6573840    -0.0213170
  H       -0.6226040     2.0066250     0.0153600
  H       -3.3400310     1.5456830     0.0304840
  H       -3.5700130    -1.2048780     0.0045220
  H        3.4438230    -0.7947010     1.0711420
  H        3.9529480     0.0571610    -0.3968850
  H        3.1464960    -1.5284770    -0.5179270
units angstrom
no_reorient  #important for SAPT in psi4, default
symmetry c1  #important for SAPT in psi4, default
}

set PROPERTIES_ORIGIN ["COM"]
properties('MP2/aug-cc-pvtz', properties = ['dipole'])
--------------------------------------------------------------------------

    Molecular point group: c1
  Charge       = 0
  Multiplicity = 1
  Basis Set: AUG-CC-PVTZ
    Blend: AUG-CC-PVTZ
  Basis Set: (AUG-CC-PVTZ AUX)
    Blend: AUG-CC-PVTZ-JKFIT

    Orbital Energies [Eh]
    ---------------------

    Doubly Occupied:

       1A    -20.653120     2A    -20.525761     3A    -15.608489
       4A    -11.364702     5A    -11.345377     6A    -11.284449
       7A    -11.245788     8A    -11.242119     9A    -11.218635
      10A     -1.537906    11A     -1.379427    12A     -1.226266
      13A     -1.101540    14A     -1.031438    15A     -0.984286
      16A     -0.847481    17A     -0.805020    18A     -0.782582
      19A     -0.741933    20A     -0.692723    21A     -0.678780
      22A     -0.650353    23A     -0.619547    24A     -0.603707
      25A     -0.592383    26A     -0.577686    27A     -0.561896
      28A     -0.534298    29A     -0.532994    30A     -0.437848
      31A     -0.431350    32A     -0.407551    33A     -0.300783

  @DF-RHF Final Energy:  -435.58233327745421

   => Energetics <=

    Nuclear Repulsion Energy =            428.4932294874120657
    One-Electron Energy =               -1443.0546915132683807
    Two-Electron Energy =                 578.9791287484022178
    Total Energy =                       -435.5823332774541541
  Basis Set: (AUG-CC-PVTZ AUX)
    Blend: AUG-CC-PVTZ-RI
    Molecular point group: c1

    Geometry (in Angstrom), charge = 0, multiplicity = 1:

       Center              X                  Y                   Z               Mass
    ------------   -----------------  -----------------  -----------------  -----------------
         O           -1.445653428284    -1.177207039023    -0.009028093293    15.994914619570
         O            1.827117571716     1.381756960977    -0.020026093293    15.994914619570
         N            0.796064571716    -0.657134039023    -0.020019093293    14.003074004430
         C           -0.644343028284    -0.235972239023    -0.004214493293    12.000000000000
         C           -1.097372428284     1.054559960977     0.011928906707    12.000000000000
         C            1.908622571716     0.154539960977    -0.018837093293    12.000000000000
         C           -2.506272428284     0.800295960977     0.018995906707    12.000000000000
         C           -2.673067428284    -0.552164039023     0.006217906707    12.000000000000
         C            3.224583571716    -0.590457039023     0.031582906707    12.000000000000
         H            0.901690571716    -1.664640039023    -0.019881093293     1.007825032230
         H           -0.579205428284     1.999368960977     0.016795906707     1.007825032230
         H           -3.296632428284     1.538426960977     0.031919906707     1.007825032230
         H           -3.526614428284    -1.212134039023     0.005957906707     1.007825032230
         H            3.487221571716    -0.801957039023     1.072577906707     1.007825032230
         H            3.996346571716     0.049904960977    -0.395449093293     1.007825032230
         H            3.189894571716    -1.535733039023    -0.516491093293     1.007825032230

  Basis Set: AUG-CC-PVTZ
    Blend: AUG-CC-PVTZ
  Basis Set: (AUG-CC-PVTZ AUX)
    Blend: AUG-CC-PVTZ-JKFIT
	 Reference Energy          =    -435.5823332774542109 [Eh]
	 Singles Energy            =      -0.0000000000000000 [Eh]
	 Same-Spin Energy          =      -0.4462340679558300 [Eh]
	 Opposite-Spin Energy      =      -1.3668608047262447 [Eh]
	 Correlation Energy        =      -1.8130948726820748 [Eh]
	 Total Energy              =    -437.3954281501362971 [Eh]

	 ================> DF-SCS-MP2 Energies <==================
	-----------------------------------------------------------
	 SCS Same-Spin Scale       =       0.3333333333333333 [-]
	 SCS Opposite-Spin Scale   =       1.2000000000000000 [-]
	 SCS Same-Spin Energy      =      -0.1487446893186100 [Eh]
	 SCS Opposite-Spin Energy  =      -1.6402329656714936 [Eh]
	 SCS Correlation Energy    =      -1.7889776549901035 [Eh]
	 SCS Total Energy          =    -437.3713109324443167 [Eh]
	-----------------------------------------------------------

  Dipole Moment: [D]
     X:    -0.5133      Y:    -3.0161      Z:     0.0808     Total:     3.0605

*** Psi4 exiting successfully. Buy a developer a beer!
