                               Psi4 1.3.2 release

  ==> Input File <==

--------------------------------------------------------------------------
#psi4
#
memory 32 gb

molecule  {
0 1
  O       -1.4890520    -1.1699510    -0.0104640
  O        1.7837190     1.3890130    -0.0214620
  N        0.7526660    -0.6498780    -0.0214550
  C       -0.4984468    -0.0401583    -0.0068991
  C       -1.1407710     1.0618160     0.0104930
  C        1.8652240     0.1617960    -0.0202730
  C       -2.5496710     0.8075520     0.0175600
  C       -2.7164660    -0.5449080     0.0047820
  C        3.1811850    -0.5832010     0.0301470
  H        0.8582920    -1.6573840    -0.0213170
  H       -0.6226040     2.0066250     0.0153600
  H       -3.3400310     1.5456830     0.0304840
  H       -3.5700130    -1.2048780     0.0045220
  H        3.4438230    -0.7947010     1.0711420
  H        3.9529480     0.0571610    -0.3968850
  H        3.1464960    -1.5284770    -0.5179270
units angstrom
no_reorient  #important for SAPT in psi4, default
symmetry c1  #important for SAPT in psi4, default
}

set PROPERTIES_ORIGIN ["COM"]
properties('MP2/aug-cc-pvtz', properties = ['dipole'])
--------------------------------------------------------------------------

    Molecular point group: c1
  Charge       = 0
  Multiplicity = 1
  Basis Set: AUG-CC-PVTZ
    Blend: AUG-CC-PVTZ
  Basis Set: (AUG-CC-PVTZ AUX)
    Blend: AUG-CC-PVTZ-JKFIT

    Orbital Energies [Eh]
    ---------------------

    Doubly Occupied:

       1A    -20.606511     2A    -20.536523     3A    -15.621866
       4A    -11.370398     5A    -11.332404     6A    -11.289918
       7A    -11.250465     8A    -11.230397     9A    -11.219843
      10A     -1.419071    11A     -1.390678    12A     -1.256247
      13A     -1.097521    14A     -1.033497    15A     -0.979340
      16A     -0.846095    17A     -0.805512    18A     -0.768286
      19A     -0.736765    20A     -0.685155    21A     -0.645898
      22A     -0.641521    23A     -0.610436    24A     -0.602569
      25A     -0.577410    26A     -0.568908    27A     -0.560949
      28A     -0.544162    29A     -0.533660    30A     -0.460923
      31A     -0.440549    32A     -0.404193    33A     -0.305391

  @DF-RHF Final Energy:  -435.58056391368217

   => Energetics <=

    Nuclear Repulsion Energy =            427.5679603495340189
    One-Electron Energy =               -1441.5509194815747378
    Two-Electron Energy =                 578.4023952183584925
    Total Energy =                       -435.5805639136822265
  Basis Set: (AUG-CC-PVTZ AUX)
    Blend: AUG-CC-PVTZ-RI
    Molecular point group: c1

    Geometry (in Angstrom), charge = 0, multiplicity = 1:

       Center              X                  Y                   Z               Mass
    ------------   -----------------  -----------------  -----------------  -----------------
         O           -1.463818800307    -1.195301695619    -0.008908263799    15.994914619570
         O            1.808952199693     1.363662304381    -0.019906263799    15.994914619570
         N            0.777899199693    -0.675228695619    -0.019899263799    14.003074004430
         C           -0.473213600307    -0.065508995619    -0.005343363799    12.000000000000
         C           -1.115537800307     1.036465304381     0.012048736201    12.000000000000
         C            1.890457199693     0.136445304381    -0.018717263799    12.000000000000
         C           -2.524437800307     0.782201304381     0.019115736201    12.000000000000
         C           -2.691232800307    -0.570258695619     0.006337736201    12.000000000000
         C            3.206418199693    -0.608551695619     0.031702736201    12.000000000000
         H            0.883525199693    -1.682734695619    -0.019761263799     1.007825032230
         H           -0.597370800307     1.981274304381     0.016915736201     1.007825032230
         H           -3.314797800307     1.520332304381     0.032039736201     1.007825032230
         H           -3.544779800307    -1.230228695619     0.006077736201     1.007825032230
         H            3.469056199693    -0.820051695619     1.072697736201     1.007825032230
         H            3.978181199693     0.031810304381    -0.395329263799     1.007825032230
         H            3.171729199693    -1.553827695619    -0.516371263799     1.007825032230

  Basis Set: AUG-CC-PVTZ
    Blend: AUG-CC-PVTZ
  Basis Set: (AUG-CC-PVTZ AUX)
    Blend: AUG-CC-PVTZ-JKFIT
	 Reference Energy          =    -435.5805639136821696 [Eh]
	 Singles Energy            =      -0.0000000000000000 [Eh]
	 Same-Spin Energy          =      -0.4466555649329902 [Eh]
	 Opposite-Spin Energy      =      -1.3712292923095206 [Eh]
	 Correlation Energy        =      -1.8178848572425108 [Eh]
	 Total Energy              =    -437.3984487709246878 [Eh]

	 ================> DF-SCS-MP2 Energies <==================
	-----------------------------------------------------------
	 SCS Same-Spin Scale       =       0.3333333333333333 [-]
	 SCS Opposite-Spin Scale   =       1.2000000000000000 [-]
	 SCS Same-Spin Energy      =      -0.1488851883109967 [Eh]
	 SCS Opposite-Spin Energy  =      -1.6454751507714247 [Eh]
	 SCS Correlation Energy    =      -1.7943603390824214 [Eh]
	 SCS Total Energy          =    -437.3749242527645720 [Eh]
	-----------------------------------------------------------

  Dipole Moment: [D]
     X:     0.3541      Y:    -2.6620      Z:     0.0807     Total:     2.6866

*** Psi4 exiting successfully. Buy a developer a beer!
