                               Psi4 1.3.2 release

  ==> Input File <==

--------------------------------------------------------------------------
#psi4
#
memory 32 gb

molecule  {
0 1
  O       -1.4890520    -1.1699510    -0.0104640
  O        1.7837190     1.3890130    -0.0214620
  N        0.7526660    -0.6498780    -0.0214550
  C       -0.5379263    -0.1289226    -0.0062853
  C       -1.1407710     1.0618160     0.0104930
  C        1.8652240     0.1617960    -0.0202730
  C       -2.5496710     0.8075520     0.0175600
  C       -2.7164660    -0.5449080     0.0047820
  C        3.1811850    -0.5832010     0.0301470
  H        0.8582920    -1.6573840    -0.0213170
  H       -0.6226040     2.0066250     0.0153600
  H       -3.3400310     1.5456830     0.0304840
  H       -3.5700130    -1.2048780     0.0045220
  H        3.4438230    -0.7947010     1.0711420
  H        3.9529480     0.0571610    -0.3968850
  H        3.1464960    -1.5284770    -0.5179270
units angstrom
no_reorient  #important for SAPT in psi4, default
symmetry c1  #important for SAPT in psi4, default
}

set PROPERTIES_ORIGIN ["COM"]
properties('MP2/aug-cc-pvtz', properties = ['dipole'])
--------------------------------------------------------------------------

    Molecular point group: c1
  Charge       = 0
  Multiplicity = 1
  Basis Set: AUG-CC-PVTZ
    Blend: AUG-CC-PVTZ
  Basis Set: (AUG-CC-PVTZ AUX)
    Blend: AUG-CC-PVTZ-JKFIT

    Orbital Energies [Eh]
    ---------------------

    Doubly Occupied:

       1A    -20.622084     2A    -20.535162     3A    -15.620056
       4A    -11.370704     5A    -11.335732     6A    -11.286787
       7A    -11.250510     8A    -11.232935     9A    -11.220447
      10A     -1.448836    11A     -1.390161    12A     -1.255831
      13A     -1.088039    14A     -1.035461    15A     -0.977857
      16A     -0.849059    17A     -0.804868    18A     -0.769126
      19A     -0.740563    20A     -0.684775    21A     -0.652977
      22A     -0.646080    23A     -0.618541    24A     -0.601664
      25A     -0.577017    26A     -0.570606    27A     -0.558922
      28A     -0.551435    29A     -0.543787    30A     -0.457074
      31A     -0.439828    32A     -0.400081    33A     -0.298293

  @DF-RHF Final Energy:  -435.60116433766598

   => Energetics <=

    Nuclear Repulsion Energy =            427.7303911774349672
    One-Electron Energy =               -1441.7925120706777307
    Two-Electron Energy =                 578.4609565555767858
    Total Energy =                       -435.6011643376659777
  Basis Set: (AUG-CC-PVTZ AUX)
    Blend: AUG-CC-PVTZ-RI
    Molecular point group: c1

    Geometry (in Angstrom), charge = 0, multiplicity = 1:

       Center              X                  Y                   Z               Mass
    ------------   -----------------  -----------------  -----------------  -----------------
         O           -1.460030213380    -1.186783571867    -0.008967166132    15.994914619570
         O            1.812740786620     1.372180428133    -0.019965166132    15.994914619570
         N            0.781687786620    -0.666710571867    -0.019958166132    14.003074004430
         C           -0.508904513380    -0.145755171867    -0.004788466132    12.000000000000
         C           -1.111749213380     1.044983428133     0.011989833868    12.000000000000
         C            1.894245786620     0.144963428133    -0.018776166132    12.000000000000
         C           -2.520649213380     0.790719428133     0.019056833868    12.000000000000
         C           -2.687444213380    -0.561740571867     0.006278833868    12.000000000000
         C            3.210206786620    -0.600033571867     0.031643833868    12.000000000000
         H            0.887313786620    -1.674216571867    -0.019820166132     1.007825032230
         H           -0.593582213380     1.989792428133     0.016856833868     1.007825032230
         H           -3.311009213380     1.528850428133     0.031980833868     1.007825032230
         H           -3.540991213380    -1.221710571867     0.006018833868     1.007825032230
         H            3.472844786620    -0.811533571867     1.072638833868     1.007825032230
         H            3.981969786620     0.040328428133    -0.395388166132     1.007825032230
         H            3.175517786620    -1.545309571867    -0.516430166132     1.007825032230

  Basis Set: AUG-CC-PVTZ
    Blend: AUG-CC-PVTZ
  Basis Set: (AUG-CC-PVTZ AUX)
    Blend: AUG-CC-PVTZ-JKFIT
	 Reference Energy          =    -435.6011643376659777 [Eh]
	 Singles Energy            =      -0.0000000000000000 [Eh]
	 Same-Spin Energy          =      -0.4466682499868675 [Eh]
	 Opposite-Spin Energy      =      -1.3696310804769456 [Eh]
	 Correlation Energy        =      -1.8162993304638131 [Eh]
	 Total Energy              =    -437.4174636681298125 [Eh]

	 ================> DF-SCS-MP2 Energies <==================
	-----------------------------------------------------------
	 SCS Same-Spin Scale       =       0.3333333333333333 [-]
	 SCS Opposite-Spin Scale   =       1.2000000000000000 [-]
	 SCS Same-Spin Energy      =      -0.1488894166622892 [Eh]
	 SCS Opposite-Spin Energy  =      -1.6435572965723346 [Eh]
	 SCS Correlation Energy    =      -1.7924467132346238 [Eh]
	 SCS Total Energy          =    -437.3936110509005744 [Eh]
	-----------------------------------------------------------

  Dipole Moment: [D]
     X:     0.2121      Y:    -2.8475      Z:     0.0791     Total:     2.8565

*** Psi4 exiting successfully. Buy a developer a beer!
