                               Psi4 1.3.2 release

  ==> Input File <==

--------------------------------------------------------------------------
#psi4
#
memory 32 gb

molecule  {
0 1
  O       -1.4890520    -1.1699510    -0.0104640
  O        1.7837190     1.3890130    -0.0214620
  N        0.7526660    -0.6498780    -0.0214550
  C       -0.6877402    -0.2287180    -0.0054639
  C       -1.1407710     1.0618160     0.0104930
  C        1.8652240     0.1617960    -0.0202730
  C       -2.5496710     0.8075520     0.0175600
  C       -2.7164660    -0.5449080     0.0047820
  C        3.1811850    -0.5832010     0.0301470
  H        0.8582920    -1.6573840    -0.0213170
  H       -0.6226040     2.0066250     0.0153600
  H       -3.3400310     1.5456830     0.0304840
  H       -3.5700130    -1.2048780     0.0045220
  H        3.4438230    -0.7947010     1.0711420
  H        3.9529480     0.0571610    -0.3968850
  H        3.1464960    -1.5284770    -0.5179270
units angstrom
no_reorient  #important for SAPT in psi4, default
symmetry c1  #important for SAPT in psi4, default
}

set PROPERTIES_ORIGIN ["COM"]
properties('MP2/aug-cc-pvtz', properties = ['dipole'])
--------------------------------------------------------------------------

    Molecular point group: c1
  Charge       = 0
  Multiplicity = 1
  Basis Set: AUG-CC-PVTZ
    Blend: AUG-CC-PVTZ
  Basis Set: (AUG-CC-PVTZ AUX)
    Blend: AUG-CC-PVTZ-JKFIT

    Orbital Energies [Eh]
    ---------------------

    Doubly Occupied:

       1A    -20.653120     2A    -20.525761     3A    -15.608489
       4A    -11.364702     5A    -11.345376     6A    -11.284449
       7A    -11.245788     8A    -11.242119     9A    -11.218635
      10A     -1.537906    11A     -1.379427    12A     -1.226266
      13A     -1.101540    14A     -1.031438    15A     -0.984286
      16A     -0.847481    17A     -0.805020    18A     -0.782582
      19A     -0.741933    20A     -0.692723    21A     -0.678780
      22A     -0.650353    23A     -0.619547    24A     -0.603707
      25A     -0.592383    26A     -0.577686    27A     -0.561896
      28A     -0.534298    29A     -0.532993    30A     -0.437848
      31A     -0.431350    32A     -0.407551    33A     -0.300783

  @DF-RHF Final Energy:  -435.58233321794626

   => Energetics <=

    Nuclear Repulsion Energy =            428.4932273041740700
    One-Electron Energy =               -1443.0546861718610216
    Two-Electron Energy =                 578.9791256497406948
    Total Energy =                       -435.5823332179462568
  Basis Set: (AUG-CC-PVTZ AUX)
    Blend: AUG-CC-PVTZ-RI
    Molecular point group: c1

    Geometry (in Angstrom), charge = 0, multiplicity = 1:

       Center              X                  Y                   Z               Mass
    ------------   -----------------  -----------------  -----------------  -----------------
         O           -1.445653562633    -1.177206866289    -0.009045990466    15.994914619570
         O            1.827117437367     1.381757133711    -0.020043990466    15.994914619570
         N            0.796064437367    -0.657133866289    -0.020036990466    14.003074004430
         C           -0.644341762633    -0.235973866289    -0.004045890466    12.000000000000
         C           -1.097372562633     1.054560133711     0.011911009534    12.000000000000
         C            1.908622437367     0.154540133711    -0.018854990466    12.000000000000
         C           -2.506272562633     0.800296133711     0.018978009534    12.000000000000
         C           -2.673067562633    -0.552163866289     0.006200009534    12.000000000000
         C            3.224583437367    -0.590456866289     0.031565009534    12.000000000000
         H            0.901690437367    -1.664639866289    -0.019898990466     1.007825032230
         H           -0.579205562633     1.999369133711     0.016778009534     1.007825032230
         H           -3.296632562633     1.538427133711     0.031902009534     1.007825032230
         H           -3.526614562633    -1.212133866289     0.005940009534     1.007825032230
         H            3.487221437367    -0.801956866289     1.072560009534     1.007825032230
         H            3.996346437367     0.049905133711    -0.395466990466     1.007825032230
         H            3.189894437367    -1.535732866289    -0.516508990466     1.007825032230

  Basis Set: AUG-CC-PVTZ
    Blend: AUG-CC-PVTZ
  Basis Set: (AUG-CC-PVTZ AUX)
    Blend: AUG-CC-PVTZ-JKFIT
	 Reference Energy          =    -435.5823332179462568 [Eh]
	 Singles Energy            =      -0.0000000000000000 [Eh]
	 Same-Spin Energy          =      -0.4462340905417357 [Eh]
	 Opposite-Spin Energy      =      -1.3668608584563877 [Eh]
	 Correlation Energy        =      -1.8130949489981234 [Eh]
	 Total Energy              =    -437.3954281669443844 [Eh]

	 ================> DF-SCS-MP2 Energies <==================
	-----------------------------------------------------------
	 SCS Same-Spin Scale       =       0.3333333333333333 [-]
	 SCS Opposite-Spin Scale   =       1.2000000000000000 [-]
	 SCS Same-Spin Energy      =      -0.1487446968472452 [Eh]
	 SCS Opposite-Spin Energy  =      -1.6402330301476653 [Eh]
	 SCS Correlation Energy    =      -1.7889777269949105 [Eh]
	 SCS Total Energy          =    -437.3713109449411718 [Eh]
	-----------------------------------------------------------

  Dipole Moment: [D]
     X:    -0.5133      Y:    -3.0161      Z:     0.0809     Total:     3.0605

*** Psi4 exiting successfully. Buy a developer a beer!
