                               Psi4 1.3.2 release

  ==> Input File <==

--------------------------------------------------------------------------
#psi4
#
memory 32 gb

molecule  {
0 1
  O       -1.4890520    -1.1699510    -0.0104640
  O        1.7837190     1.3890130    -0.0214620
  N        0.7526660    -0.6498780    -0.0214550
  C       -0.5189476    -0.0842029    -0.0052190
  C       -1.1407710     1.0618160     0.0104930
  C        1.8652240     0.1617960    -0.0202730
  C       -2.5496710     0.8075520     0.0175600
  C       -2.7164660    -0.5449080     0.0047820
  C        3.1811850    -0.5832010     0.0301470
  H        0.8582920    -1.6573840    -0.0213170
  H       -0.6226040     2.0066250     0.0153600
  H       -3.3400310     1.5456830     0.0304840
  H       -3.5700130    -1.2048780     0.0045220
  H        3.4438230    -0.7947010     1.0711420
  H        3.9529480     0.0571610    -0.3968850
  H        3.1464960    -1.5284770    -0.5179270
units angstrom
no_reorient  #important for SAPT in psi4, default
symmetry c1  #important for SAPT in psi4, default
}

set PROPERTIES_ORIGIN ["COM"]
properties('MP2/aug-cc-pvtz', properties = ['dipole'])
--------------------------------------------------------------------------

    Molecular point group: c1
  Charge       = 0
  Multiplicity = 1
  Basis Set: AUG-CC-PVTZ
    Blend: AUG-CC-PVTZ
  Basis Set: (AUG-CC-PVTZ AUX)
    Blend: AUG-CC-PVTZ-JKFIT

    Orbital Energies [Eh]
    ---------------------

    Doubly Occupied:

       1A    -20.614495     2A    -20.535665     3A    -15.620706
       4A    -11.370365     5A    -11.333617     6A    -11.288563
       7A    -11.250377     8A    -11.231738     9A    -11.220154
      10A     -1.432948    11A     -1.390544    12A     -1.255821
      13A     -1.092594    14A     -1.034376    15A     -0.978398
      16A     -0.847655    17A     -0.804840    18A     -0.768072
      19A     -0.738785    20A     -0.684938    21A     -0.648511
      22A     -0.643311    23A     -0.614807    24A     -0.601659
      25A     -0.577587    26A     -0.570332    27A     -0.558424
      28A     -0.545462    29A     -0.543798    30A     -0.458817
      31A     -0.440044    32A     -0.402008    33A     -0.302204

  @DF-RHF Final Energy:  -435.59306852270845

   => Energetics <=

    Nuclear Repulsion Energy =            427.6434256775792733
    One-Electron Energy =               -1441.6697582171841532
    Two-Electron Energy =                 578.4332640168964872
    Total Energy =                       -435.5930685227084496
  Basis Set: (AUG-CC-PVTZ AUX)
    Blend: AUG-CC-PVTZ-RI
    Molecular point group: c1

    Geometry (in Angstrom), charge = 0, multiplicity = 1:

       Center              X                  Y                   Z               Mass
    ------------   -----------------  -----------------  -----------------  -----------------
         O           -1.461851473900    -1.191075026188    -0.009069491902    15.994914619570
         O            1.810919526100     1.367888973812    -0.020067491902    15.994914619570
         N            0.779866526100    -0.671002026188    -0.020060491902    14.003074004430
         C           -0.491747073900    -0.105326926188    -0.003824491902    12.000000000000
         C           -1.113570473900     1.040691973812     0.011887508098    12.000000000000
         C            1.892424526100     0.140671973812    -0.018878491902    12.000000000000
         C           -2.522470473900     0.786427973812     0.018954508098    12.000000000000
         C           -2.689265473900    -0.566032026188     0.006176508098    12.000000000000
         C            3.208385526100    -0.604325026188     0.031541508098    12.000000000000
         H            0.885492526100    -1.678508026188    -0.019922491902     1.007825032230
         H           -0.595403473900     1.985500973812     0.016754508098     1.007825032230
         H           -3.312830473900     1.524558973812     0.031878508098     1.007825032230
         H           -3.542812473900    -1.226002026188     0.005916508098     1.007825032230
         H            3.471023526100    -0.815825026188     1.072536508098     1.007825032230
         H            3.980148526100     0.036036973812    -0.395490491902     1.007825032230
         H            3.173696526100    -1.549601026188    -0.516532491902     1.007825032230

  Basis Set: AUG-CC-PVTZ
    Blend: AUG-CC-PVTZ
  Basis Set: (AUG-CC-PVTZ AUX)
    Blend: AUG-CC-PVTZ-JKFIT
	 Reference Energy          =    -435.5930685227084496 [Eh]
	 Singles Energy            =      -0.0000000000000000 [Eh]
	 Same-Spin Energy          =      -0.4465763160372793 [Eh]
	 Opposite-Spin Energy      =      -1.3703284954507926 [Eh]
	 Correlation Energy        =      -1.8169048114880719 [Eh]
	 Total Energy              =    -437.4099733341965361 [Eh]

	 ================> DF-SCS-MP2 Energies <==================
	-----------------------------------------------------------
	 SCS Same-Spin Scale       =       0.3333333333333333 [-]
	 SCS Opposite-Spin Scale   =       1.2000000000000000 [-]
	 SCS Same-Spin Energy      =      -0.1488587720124264 [Eh]
	 SCS Opposite-Spin Energy  =      -1.6443941945409510 [Eh]
	 SCS Correlation Energy    =      -1.7932529665533774 [Eh]
	 SCS Total Energy          =    -437.3863214892618316 [Eh]
	-----------------------------------------------------------

  Dipole Moment: [D]
     X:     0.2754      Y:    -2.7534      Z:     0.0804     Total:     2.7683

*** Psi4 exiting successfully. Buy a developer a beer!
