                               Psi4 1.3.2 release

  ==> Input File <==

--------------------------------------------------------------------------
#psi4
#
memory 32 gb

molecule  {
0 1
  O       -1.4890520    -1.1699510    -0.0104640
  O        1.7837190     1.3890130    -0.0214620
  N        0.7526660    -0.6498780    -0.0214550
  C       -0.6645061    -0.0821480    -0.0042510
  C       -1.1407710     1.0618160     0.0104930
  C        1.8652240     0.1617960    -0.0202730
  C       -2.5496710     0.8075520     0.0175600
  C       -2.7164660    -0.5449080     0.0047820
  C        3.1811850    -0.5832010     0.0301470
  H        0.8582920    -1.6573840    -0.0213170
  H       -0.6226040     2.0066250     0.0153600
  H       -3.3400310     1.5456830     0.0304840
  H       -3.5700130    -1.2048780     0.0045220
  H        3.4438230    -0.7947010     1.0711420
  H        3.9529480     0.0571610    -0.3968850
  H        3.1464960    -1.5284770    -0.5179270
units angstrom
no_reorient  #important for SAPT in psi4, default
symmetry c1  #important for SAPT in psi4, default
}

set PROPERTIES_ORIGIN ["COM"]
properties('MP2/aug-cc-pvtz', properties = ['dipole'])
--------------------------------------------------------------------------

    Molecular point group: c1
  Charge       = 0
  Multiplicity = 1
  Basis Set: AUG-CC-PVTZ
    Blend: AUG-CC-PVTZ
  Basis Set: (AUG-CC-PVTZ AUX)
    Blend: AUG-CC-PVTZ-JKFIT

    Orbital Energies [Eh]
    ---------------------

    Doubly Occupied:

       1A    -20.632284     2A    -20.523787     3A    -15.606042
       4A    -11.360270     5A    -11.331319     6A    -11.293154
       7A    -11.243218     8A    -11.240628     9A    -11.215185
      10A     -1.474401    11A     -1.377809    12A     -1.218435
      13A     -1.123430    14A     -1.025571    15A     -0.983320
      16A     -0.840561    17A     -0.795118    18A     -0.772454
      19A     -0.738740    20A     -0.677855    21A     -0.660929
      22A     -0.631228    23A     -0.615938    24A     -0.605391
      25A     -0.589437    26A     -0.572324    27A     -0.564191
      28A     -0.546987    29A     -0.530978    30A     -0.442247
      31A     -0.428913    32A     -0.414604    33A     -0.319811

  @DF-RHF Final Energy:  -435.57487176381414

   => Energetics <=

    Nuclear Repulsion Energy =            428.1808466248952527
    One-Electron Energy =               -1442.7183147436942363
    Two-Electron Energy =                 578.9625963549848393
    Total Energy =                       -435.5748717638141443
  Basis Set: (AUG-CC-PVTZ AUX)
    Blend: AUG-CC-PVTZ-RI
    Molecular point group: c1

    Geometry (in Angstrom), charge = 0, multiplicity = 1:

       Center              X                  Y                   Z               Mass
    ------------   -----------------  -----------------  -----------------  -----------------
         O           -1.447883185793    -1.191272221372    -0.009162384470    15.994914619570
         O            1.824887814207     1.367691778628    -0.020160384470    15.994914619570
         N            0.793834814207    -0.671199221372    -0.020153384470    14.003074004430
         C           -0.623337285793    -0.103469221372    -0.002949384470    12.000000000000
         C           -1.099602185793     1.040494778628     0.011794615530    12.000000000000
         C            1.906392814207     0.140474778628    -0.018971384470    12.000000000000
         C           -2.508502185793     0.786230778628     0.018861615530    12.000000000000
         C           -2.675297185793    -0.566229221372     0.006083615530    12.000000000000
         C            3.222353814207    -0.604522221372     0.031448615530    12.000000000000
         H            0.899460814207    -1.678705221372    -0.020015384470     1.007825032230
         H           -0.581435185793     1.985303778628     0.016661615530     1.007825032230
         H           -3.298862185793     1.524361778628     0.031785615530     1.007825032230
         H           -3.528844185793    -1.226199221372     0.005823615530     1.007825032230
         H            3.484991814207    -0.816022221372     1.072443615530     1.007825032230
         H            3.994116814207     0.035839778628    -0.395583384470     1.007825032230
         H            3.187664814207    -1.549798221372    -0.516625384470     1.007825032230

  Basis Set: AUG-CC-PVTZ
    Blend: AUG-CC-PVTZ
  Basis Set: (AUG-CC-PVTZ AUX)
    Blend: AUG-CC-PVTZ-JKFIT
	 Reference Energy          =    -435.5748717638141443 [Eh]
	 Singles Energy            =      -0.0000000000000000 [Eh]
	 Same-Spin Energy          =      -0.4450143560207168 [Eh]
	 Opposite-Spin Energy      =      -1.3678445212972639 [Eh]
	 Correlation Energy        =      -1.8128588773179808 [Eh]
	 Total Energy              =    -437.3877306411321229 [Eh]

	 ================> DF-SCS-MP2 Energies <==================
	-----------------------------------------------------------
	 SCS Same-Spin Scale       =       0.3333333333333333 [-]
	 SCS Opposite-Spin Scale   =       1.2000000000000000 [-]
	 SCS Same-Spin Energy      =      -0.1483381186735723 [Eh]
	 SCS Opposite-Spin Energy  =      -1.6414134255567165 [Eh]
	 SCS Correlation Energy    =      -1.7897515442302887 [Eh]
	 SCS Total Energy          =    -437.3646233080444290 [Eh]
	-----------------------------------------------------------

  Dipole Moment: [D]
     X:    -0.5799      Y:    -2.6241      Z:     0.0866     Total:     2.6888

*** Psi4 exiting successfully. Buy a developer a beer!
