                               Psi4 1.3.2 release

  ==> Input File <==

--------------------------------------------------------------------------
#psi4
#
memory 32 gb

molecule  {
0 1
  O       -1.4890520    -1.1699510    -0.0104640
  O        1.7837190     1.3890130    -0.0214620
  N        0.7526660    -0.6498780    -0.0214550
  C       -0.4705149    -0.1304278    -0.0062673
  C       -1.1407710     1.0618160     0.0104930
  C        1.8652240     0.1617960    -0.0202730
  C       -2.5496710     0.8075520     0.0175600
  C       -2.7164660    -0.5449080     0.0047820
  C        3.1811850    -0.5832010     0.0301470
  H        0.8582920    -1.6573840    -0.0213170
  H       -0.6226040     2.0066250     0.0153600
  H       -3.3400310     1.5456830     0.0304840
  H       -3.5700130    -1.2048780     0.0045220
  H        3.4438230    -0.7947010     1.0711420
  H        3.9529480     0.0571610    -0.3968850
  H        3.1464960    -1.5284770    -0.5179270
units angstrom
no_reorient  #important for SAPT in psi4, default
symmetry c1  #important for SAPT in psi4, default
}

set PROPERTIES_ORIGIN ["COM"]
properties('MP2/aug-cc-pvtz', properties = ['dipole'])
--------------------------------------------------------------------------

    Molecular point group: c1
  Charge       = 0
  Multiplicity = 1
  Basis Set: AUG-CC-PVTZ
    Blend: AUG-CC-PVTZ
  Basis Set: (AUG-CC-PVTZ AUX)
    Blend: AUG-CC-PVTZ-JKFIT

    Orbital Energies [Eh]
    ---------------------

    Doubly Occupied:

       1A    -20.613621     2A    -20.541103     3A    -15.626078
       4A    -11.375438     5A    -11.338601     6A    -11.284475
       7A    -11.253902     8A    -11.229496     9A    -11.222852
      10A     -1.432175    11A     -1.396067    12A     -1.276923
      13A     -1.076347    14A     -1.041040    15A     -0.973549
      16A     -0.858238    17A     -0.812895    18A     -0.767355
      19A     -0.735359    20A     -0.687982    21A     -0.654157
      22A     -0.649760    23A     -0.614544    24A     -0.607917
      25A     -0.575948    26A     -0.569153    27A     -0.554100
      28A     -0.549903    29A     -0.537166    30A     -0.466663
      31A     -0.445033    32A     -0.394024    33A     -0.288571

  @DF-RHF Final Energy:  -435.59060338411439

   => Energetics <=

    Nuclear Repulsion Energy =            427.6318481026430618
    One-Electron Energy =               -1441.5440325014103564
    Two-Electron Energy =                 578.3215810146529066
    Total Energy =                       -435.5906033841143881
  Basis Set: (AUG-CC-PVTZ AUX)
    Blend: AUG-CC-PVTZ-RI
    Molecular point group: c1

    Geometry (in Angstrom), charge = 0, multiplicity = 1:

       Center              X                  Y                   Z               Mass
    ------------   -----------------  -----------------  -----------------  -----------------
         O           -1.466499240313    -1.186639127762    -0.008968893473    15.994914619570
         O            1.806271759687     1.372324872238    -0.019966893473    15.994914619570
         N            0.775218759687    -0.666566127762    -0.019959893473    14.003074004430
         C           -0.447962140313    -0.147115927762    -0.004772193473    12.000000000000
         C           -1.118218240313     1.045127872238     0.011988106527    12.000000000000
         C            1.887776759687     0.145107872238    -0.018777893473    12.000000000000
         C           -2.527118240313     0.790863872238     0.019055106527    12.000000000000
         C           -2.693913240313    -0.561596127762     0.006277106527    12.000000000000
         C            3.203737759687    -0.599889127762     0.031642106527    12.000000000000
         H            0.880844759687    -1.674072127762    -0.019821893473     1.007825032230
         H           -0.600051240313     1.989936872238     0.016855106527     1.007825032230
         H           -3.317478240313     1.528994872238     0.031979106527     1.007825032230
         H           -3.547460240313    -1.221566127762     0.006017106527     1.007825032230
         H            3.466375759687    -0.811389127762     1.072637106527     1.007825032230
         H            3.975500759687     0.040472872238    -0.395389893473     1.007825032230
         H            3.169048759687    -1.545165127762    -0.516431893473     1.007825032230

  Basis Set: AUG-CC-PVTZ
    Blend: AUG-CC-PVTZ
  Basis Set: (AUG-CC-PVTZ AUX)
    Blend: AUG-CC-PVTZ-JKFIT
	 Reference Energy          =    -435.5906033841143881 [Eh]
	 Singles Energy            =      -0.0000000000000000 [Eh]
	 Same-Spin Energy          =      -0.4480797790925258 [Eh]
	 Opposite-Spin Energy      =      -1.3718990349700766 [Eh]
	 Correlation Energy        =      -1.8199788140626023 [Eh]
	 Total Energy              =    -437.4105821981769964 [Eh]

	 ================> DF-SCS-MP2 Energies <==================
	-----------------------------------------------------------
	 SCS Same-Spin Scale       =       0.3333333333333333 [-]
	 SCS Opposite-Spin Scale   =       1.2000000000000000 [-]
	 SCS Same-Spin Energy      =      -0.1493599263641752 [Eh]
	 SCS Opposite-Spin Energy  =      -1.6462788419640919 [Eh]
	 SCS Correlation Energy    =      -1.7956387683282671 [Eh]
	 SCS Total Energy          =    -437.3862421524426622 [Eh]
	-----------------------------------------------------------

  Dipole Moment: [D]
     X:     0.5923      Y:    -2.9045      Z:     0.0762     Total:     2.9653

*** Psi4 exiting successfully. Buy a developer a beer!
