                               Psi4 1.3.2 release

  ==> Input File <==

--------------------------------------------------------------------------
#psi4
#
memory 32 gb

molecule  {
0 1
  O       -1.4890520    -1.1699510    -0.0104640
  O        1.7837190     1.3890130    -0.0214620
  N        0.7526660    -0.6498780    -0.0214550
  C       -0.6492934    -0.1401141    -0.0048960
  C       -1.1407710     1.0618160     0.0104930
  C        1.8652240     0.1617960    -0.0202730
  C       -2.5496710     0.8075520     0.0175600
  C       -2.7164660    -0.5449080     0.0047820
  C        3.1811850    -0.5832010     0.0301470
  H        0.8582920    -1.6573840    -0.0213170
  H       -0.6226040     2.0066250     0.0153600
  H       -3.3400310     1.5456830     0.0304840
  H       -3.5700130    -1.2048780     0.0045220
  H        3.4438230    -0.7947010     1.0711420
  H        3.9529480     0.0571610    -0.3968850
  H        3.1464960    -1.5284770    -0.5179270
units angstrom
no_reorient  #important for SAPT in psi4, default
symmetry c1  #important for SAPT in psi4, default
}

set PROPERTIES_ORIGIN ["COM"]
properties('MP2/aug-cc-pvtz', properties = ['dipole'])
--------------------------------------------------------------------------

    Molecular point group: c1
  Charge       = 0
  Multiplicity = 1
  Basis Set: AUG-CC-PVTZ
    Blend: AUG-CC-PVTZ
  Basis Set: (AUG-CC-PVTZ AUX)
    Blend: AUG-CC-PVTZ-JKFIT

    Orbital Energies [Eh]
    ---------------------

    Doubly Occupied:

       1A    -20.637221     2A    -20.526359     3A    -15.609454
       4A    -11.363549     5A    -11.335806     6A    -11.289376
       7A    -11.245352     8A    -11.239540     9A    -11.217705
      10A     -1.488246    11A     -1.380423    12A     -1.227249
      13A     -1.107773    14A     -1.029034    15A     -0.982368
      16A     -0.843456    17A     -0.798974    18A     -0.774420
      19A     -0.741007    20A     -0.679453    21A     -0.667137
      22A     -0.639443    23A     -0.618444    24A     -0.600715
      25A     -0.589584    26A     -0.575163    27A     -0.563479
      28A     -0.548251    29A     -0.533899    30A     -0.442205
      31A     -0.431684    32A     -0.409336    33A     -0.310361

  @DF-RHF Final Energy:  -435.59324828257286

   => Energetics <=

    Nuclear Repulsion Energy =            428.1402945232968023
    One-Electron Energy =               -1442.5741476126131602
    Two-Electron Energy =                 578.8406048067434995
    Total Energy =                       -435.5932482825728584
  Basis Set: (AUG-CC-PVTZ AUX)
    Blend: AUG-CC-PVTZ-RI
    Molecular point group: c1

    Geometry (in Angstrom), charge = 0, multiplicity = 1:

       Center              X                  Y                   Z               Mass
    ------------   -----------------  -----------------  -----------------  -----------------
         O           -1.449343048161    -1.185709597511    -0.009100488079    15.994914619570
         O            1.823427951839     1.373254402489    -0.020098488079    15.994914619570
         N            0.792374951839    -0.665636597511    -0.020091488079    14.003074004430
         C           -0.609584448161    -0.155872697511    -0.003532488079    12.000000000000
         C           -1.101062048161     1.046057402489     0.011856511921    12.000000000000
         C            1.904932951839     0.146037402489    -0.018909488079    12.000000000000
         C           -2.509962048161     0.791793402489     0.018923511921    12.000000000000
         C           -2.676757048161    -0.560666597511     0.006145511921    12.000000000000
         C            3.220893951839    -0.598959597511     0.031510511921    12.000000000000
         H            0.898000951839    -1.673142597511    -0.019953488079     1.007825032230
         H           -0.582895048161     1.990866402489     0.016723511921     1.007825032230
         H           -3.300322048161     1.529924402489     0.031847511921     1.007825032230
         H           -3.530304048161    -1.220636597511     0.005885511921     1.007825032230
         H            3.483531951839    -0.810459597511     1.072505511921     1.007825032230
         H            3.992656951839     0.041402402489    -0.395521488079     1.007825032230
         H            3.186204951839    -1.544235597511    -0.516563488079     1.007825032230

  Basis Set: AUG-CC-PVTZ
    Blend: AUG-CC-PVTZ
  Basis Set: (AUG-CC-PVTZ AUX)
    Blend: AUG-CC-PVTZ-JKFIT
	 Reference Energy          =    -435.5932482825728584 [Eh]
	 Singles Energy            =      -0.0000000000000000 [Eh]
	 Same-Spin Energy          =      -0.4455146814737406 [Eh]
	 Opposite-Spin Energy      =      -1.3675123190999825 [Eh]
	 Correlation Energy        =      -1.8130270005737230 [Eh]
	 Total Energy              =    -437.4062752831465559 [Eh]

	 ================> DF-SCS-MP2 Energies <==================
	-----------------------------------------------------------
	 SCS Same-Spin Scale       =       0.3333333333333333 [-]
	 SCS Opposite-Spin Scale   =       1.2000000000000000 [-]
	 SCS Same-Spin Energy      =      -0.1485048938245802 [Eh]
	 SCS Opposite-Spin Energy  =      -1.6410147829199790 [Eh]
	 SCS Correlation Energy    =      -1.7895196767445591 [Eh]
	 SCS Total Energy          =    -437.3827679593173912 [Eh]
	-----------------------------------------------------------

  Dipole Moment: [D]
     X:    -0.4137      Y:    -2.7947      Z:     0.0834     Total:     2.8264

*** Psi4 exiting successfully. Buy a developer a beer!
