                               Psi4 1.3.2 release

  ==> Input File <==

--------------------------------------------------------------------------
#psi4
#
memory 32 gb

molecule  {
0 1
  O       -1.4537359    -1.2019279    -0.0110176
  O        1.7837190     1.3890130    -0.0214620
  N        0.7526660    -0.6498780    -0.0214550
  C       -0.5553190    -0.1742840    -0.0060060
  C       -1.1407710     1.0618160     0.0104930
  C        1.8652240     0.1617960    -0.0202730
  C       -2.5496710     0.8075520     0.0175600
  C       -2.7164660    -0.5449080     0.0047820
  C        3.1811850    -0.5832010     0.0301470
  H        0.8582920    -1.6573840    -0.0213170
  H       -0.6226040     2.0066250     0.0153600
  H       -3.3400310     1.5456830     0.0304840
  H       -3.5700130    -1.2048780     0.0045220
  H        3.4438230    -0.7947010     1.0711420
  H        3.9529480     0.0571610    -0.3968850
  H        3.1464960    -1.5284770    -0.5179270
units angstrom
no_reorient  #important for SAPT in psi4, default
symmetry c1  #important for SAPT in psi4, default
}

set PROPERTIES_ORIGIN ["COM"]
properties('MP2/aug-cc-pvtz', properties = ['dipole'])
--------------------------------------------------------------------------

    Molecular point group: c1
  Charge       = 0
  Multiplicity = 1
  Basis Set: AUG-CC-PVTZ
    Blend: AUG-CC-PVTZ
  Basis Set: (AUG-CC-PVTZ AUX)
    Blend: AUG-CC-PVTZ-JKFIT

    Orbital Energies [Eh]
    ---------------------

    Doubly Occupied:

       1A    -20.628420     2A    -20.534675     3A    -15.618404
       4A    -11.370635     5A    -11.340479     6A    -11.287548
       7A    -11.250349     8A    -11.239715     9A    -11.220864
      10A     -1.454115    11A     -1.389046    12A     -1.253962
      13A     -1.087977    14A     -1.034741    15A     -0.973220
      16A     -0.849975    17A     -0.804437    18A     -0.768079
      19A     -0.741092    20A     -0.683659    21A     -0.655073
      22A     -0.642644    23A     -0.618598    24A     -0.601403
      25A     -0.577312    26A     -0.570593    27A     -0.565991
      28A     -0.551685    29A     -0.541826    30A     -0.453870
      31A     -0.439322    32A     -0.403384    33A     -0.294457

  @DF-RHF Final Energy:  -435.60064827018817

   => Energetics <=

    Nuclear Repulsion Energy =            427.1143721577123529
    One-Electron Energy =               -1440.5349443447780686
    Two-Electron Energy =                 577.8199239168775421
    Total Energy =                       -435.6006482701882305
  Basis Set: (AUG-CC-PVTZ AUX)
    Blend: AUG-CC-PVTZ-RI
    Molecular point group: c1

    Geometry (in Angstrom), charge = 0, multiplicity = 1:

       Center              X                  Y                   Z               Mass
    ------------   -----------------  -----------------  -----------------  -----------------
         O           -1.427562351816    -1.210317255662    -0.009476757440    15.994914619570
         O            1.809892548184     1.380623644338    -0.019921157440    15.994914619570
         N            0.778839548184    -0.658267355662    -0.019914157440    14.003074004430
         C           -0.529145451816    -0.182673355662    -0.004465157440    12.000000000000
         C           -1.114597451816     1.053426644338     0.012033842560    12.000000000000
         C            1.891397548184     0.153406644338    -0.018732157440    12.000000000000
         C           -2.523497451816     0.799162644338     0.019100842560    12.000000000000
         C           -2.690292451816    -0.553297355662     0.006322842560    12.000000000000
         C            3.207358548184    -0.591590355662     0.031687842560    12.000000000000
         H            0.884465548184    -1.665773355662    -0.019776157440     1.007825032230
         H           -0.596430451816     1.998235644338     0.016900842560     1.007825032230
         H           -3.313857451816     1.537293644338     0.032024842560     1.007825032230
         H           -3.543839451816    -1.213267355662     0.006062842560     1.007825032230
         H            3.469996548184    -0.803090355662     1.072682842560     1.007825032230
         H            3.979121548184     0.048771644338    -0.395344157440     1.007825032230
         H            3.172669548184    -1.536866355662    -0.516386157440     1.007825032230

  Basis Set: AUG-CC-PVTZ
    Blend: AUG-CC-PVTZ
  Basis Set: (AUG-CC-PVTZ AUX)
    Blend: AUG-CC-PVTZ-JKFIT
	 Reference Energy          =    -435.6006482701881737 [Eh]
	 Singles Energy            =      -0.0000000000000000 [Eh]
	 Same-Spin Energy          =      -0.4469007068894723 [Eh]
	 Opposite-Spin Energy      =      -1.3703182075205489 [Eh]
	 Correlation Energy        =      -1.8172189144100213 [Eh]
	 Total Energy              =    -437.4178671845982080 [Eh]

	 ================> DF-SCS-MP2 Energies <==================
	-----------------------------------------------------------
	 SCS Same-Spin Scale       =       0.3333333333333333 [-]
	 SCS Opposite-Spin Scale   =       1.2000000000000000 [-]
	 SCS Same-Spin Energy      =      -0.1489669022964908 [Eh]
	 SCS Opposite-Spin Energy  =      -1.6443818490246587 [Eh]
	 SCS Correlation Energy    =      -1.7933487513211495 [Eh]
	 SCS Total Energy          =    -437.3939970215093354 [Eh]
	-----------------------------------------------------------

  Dipole Moment: [D]
     X:     0.0629      Y:    -2.8120      Z:     0.0801     Total:     2.8139

*** Psi4 exiting successfully. Buy a developer a beer!
