                               Psi4 1.3.2 release

  ==> Input File <==

--------------------------------------------------------------------------
#psi4
#
memory 32 gb

molecule  {
0 1
  O       -1.4890520    -1.1699510    -0.0104640
  O        1.7837190     1.3890130    -0.0214620
  N        0.7526660    -0.6498780    -0.0214550
  C       -0.5769822    -0.1843148    -0.0059281
  C       -1.1407710     1.0618160     0.0104930
  C        1.8652240     0.1617960    -0.0202730
  C       -2.5496710     0.8075520     0.0175600
  C       -2.7164660    -0.5449080     0.0047820
  C        3.1811850    -0.5832010     0.0301470
  H        0.8582920    -1.6573840    -0.0213170
  H       -0.6226040     2.0066250     0.0153600
  H       -3.3400310     1.5456830     0.0304840
  H       -3.5700130    -1.2048780     0.0045220
  H        3.4438230    -0.7947010     1.0711420
  H        3.9529480     0.0571610    -0.3968850
  H        3.1464960    -1.5284770    -0.5179270
units angstrom
no_reorient  #important for SAPT in psi4, default
symmetry c1  #important for SAPT in psi4, default
}

set PROPERTIES_ORIGIN ["COM"]
properties('MP2/aug-cc-pvtz', properties = ['dipole'])
--------------------------------------------------------------------------

    Molecular point group: c1
  Charge       = 0
  Multiplicity = 1
  Basis Set: AUG-CC-PVTZ
    Blend: AUG-CC-PVTZ
  Basis Set: (AUG-CC-PVTZ AUX)
    Blend: AUG-CC-PVTZ-JKFIT

    Orbital Energies [Eh]
    ---------------------

    Doubly Occupied:

       1A    -20.633325     2A    -20.533487     3A    -15.618254
       4A    -11.370383     5A    -11.339204     6A    -11.284545
       7A    -11.250082     8A    -11.235195     9A    -11.220093
      10A     -1.476858    11A     -1.388160    12A     -1.251139
      13A     -1.086431    14A     -1.035660    15A     -0.978976
      16A     -0.848695    17A     -0.805372    18A     -0.772328
      19A     -0.743187    20A     -0.683810    21A     -0.663077
      22A     -0.649696    23A     -0.622051    24A     -0.601460
      25A     -0.577769    26A     -0.570581    27A     -0.567768
      28A     -0.547505    29A     -0.542061    30A     -0.452882
      31A     -0.438564    32A     -0.399769    33A     -0.294964

  @DF-RHF Final Energy:  -435.60448157748181

   => Energetics <=

    Nuclear Repulsion Energy =            427.9102734910111963
    One-Electron Energy =               -1442.0628474043705864
    Two-Electron Energy =                 578.5480923358776408
    Total Energy =                       -435.6044815774818062
  Basis Set: (AUG-CC-PVTZ AUX)
    Blend: AUG-CC-PVTZ-RI
    Molecular point group: c1

    Geometry (in Angstrom), charge = 0, multiplicity = 1:

       Center              X                  Y                   Z               Mass
    ------------   -----------------  -----------------  -----------------  -----------------
         O           -1.456282276547    -1.181467948194    -0.009001444257    15.994914619570
         O            1.816488723453     1.377496051806    -0.019999444257    15.994914619570
         N            0.785435723453    -0.661394948194    -0.019992444257    14.003074004430
         C           -0.544212476547    -0.195831748194    -0.004465544257    12.000000000000
         C           -1.108001276547     1.050299051806     0.011955555743    12.000000000000
         C            1.897993723453     0.150279051806    -0.018810444257    12.000000000000
         C           -2.516901276547     0.796035051806     0.019022555743    12.000000000000
         C           -2.683696276547    -0.556424948194     0.006244555743    12.000000000000
         C            3.213954723453    -0.594717948194     0.031609555743    12.000000000000
         H            0.891061723453    -1.668900948194    -0.019854444257     1.007825032230
         H           -0.589834276547     1.995108051806     0.016822555743     1.007825032230
         H           -3.307261276547     1.534166051806     0.031946555743     1.007825032230
         H           -3.537243276547    -1.216394948194     0.005984555743     1.007825032230
         H            3.476592723453    -0.806217948194     1.072604555743     1.007825032230
         H            3.985717723453     0.045644051806    -0.395422444257     1.007825032230
         H            3.179265723453    -1.539993948194    -0.516464444257     1.007825032230

  Basis Set: AUG-CC-PVTZ
    Blend: AUG-CC-PVTZ
  Basis Set: (AUG-CC-PVTZ AUX)
    Blend: AUG-CC-PVTZ-JKFIT
	 Reference Energy          =    -435.6044815774818062 [Eh]
	 Singles Energy            =      -0.0000000000000000 [Eh]
	 Same-Spin Energy          =      -0.4467063548197113 [Eh]
	 Opposite-Spin Energy      =      -1.3685940645598778 [Eh]
	 Correlation Energy        =      -1.8153004193795890 [Eh]
	 Total Energy              =    -437.4197819968613885 [Eh]

	 ================> DF-SCS-MP2 Energies <==================
	-----------------------------------------------------------
	 SCS Same-Spin Scale       =       0.3333333333333333 [-]
	 SCS Opposite-Spin Scale   =       1.2000000000000000 [-]
	 SCS Same-Spin Energy      =      -0.1489021182732371 [Eh]
	 SCS Opposite-Spin Energy  =      -1.6423128774718532 [Eh]
	 SCS Correlation Energy    =      -1.7912149957450902 [Eh]
	 SCS Total Energy          =    -437.3956965732268714 [Eh]
	-----------------------------------------------------------

  Dipole Moment: [D]
     X:     0.0556      Y:    -2.9561      Z:     0.0785     Total:     2.9576

*** Psi4 exiting successfully. Buy a developer a beer!
