                               Psi4 1.3.2 release

  ==> Input File <==

--------------------------------------------------------------------------
#psi4
#
memory 32 gb

molecule  {
0 1
  O       -1.4173251    -1.2326528    -0.0115651
  O        1.7837190     1.3890130    -0.0214620
  N        0.7526660    -0.6498780    -0.0214550
  C       -0.5553190    -0.1742840    -0.0060060
  C       -1.1407710     1.0618160     0.0104930
  C        1.8652240     0.1617960    -0.0202730
  C       -2.5496710     0.8075520     0.0175600
  C       -2.7164660    -0.5449080     0.0047820
  C        3.1811850    -0.5832010     0.0301470
  H        0.8582920    -1.6573840    -0.0213170
  H       -0.6226040     2.0066250     0.0153600
  H       -3.3400310     1.5456830     0.0304840
  H       -3.5700130    -1.2048780     0.0045220
  H        3.4438230    -0.7947010     1.0711420
  H        3.9529480     0.0571610    -0.3968850
  H        3.1464960    -1.5284770    -0.5179270
units angstrom
no_reorient  #important for SAPT in psi4, default
symmetry c1  #important for SAPT in psi4, default
}

set PROPERTIES_ORIGIN ["COM"]
properties('MP2/aug-cc-pvtz', properties = ['dipole'])
--------------------------------------------------------------------------

    Molecular point group: c1
  Charge       = 0
  Multiplicity = 1
  Basis Set: AUG-CC-PVTZ
    Blend: AUG-CC-PVTZ
  Basis Set: (AUG-CC-PVTZ AUX)
    Blend: AUG-CC-PVTZ-JKFIT

    Orbital Energies [Eh]
    ---------------------

    Doubly Occupied:

       1A    -20.627167     2A    -20.534245     3A    -15.616787
       4A    -11.369752     5A    -11.342250     6A    -11.290734
       7A    -11.249771     8A    -11.245233     9A    -11.221224
      10A     -1.443607    11A     -1.387961    12A     -1.251377
      13A     -1.092023    14A     -1.032964    15A     -0.969274
      16A     -0.849535    17A     -0.804108    18A     -0.764543
      19A     -0.739881    20A     -0.682719    21A     -0.651630
      22A     -0.636558    23A     -0.615589    24A     -0.600165
      25A     -0.578851    26A     -0.572545    27A     -0.564367
      28A     -0.553525    29A     -0.539785    30A     -0.451874
      31A     -0.438619    32A     -0.408245    33A     -0.295148

  @DF-RHF Final Energy:  -435.59384460907734

   => Energetics <=

    Nuclear Repulsion Energy =            426.4618879566221494
    One-Electron Energy =               -1439.2673508745394884
    Two-Electron Energy =                 577.2116183088400021
    Total Energy =                       -435.5938446090773368
  Basis Set: (AUG-CC-PVTZ AUX)
    Blend: AUG-CC-PVTZ-RI
    Molecular point group: c1

    Geometry (in Angstrom), charge = 0, multiplicity = 1:

       Center              X                  Y                   Z               Mass
    ------------   -----------------  -----------------  -----------------  -----------------
         O           -1.395808876481    -1.237112117470    -0.009954226426    15.994914619570
         O            1.805235223519     1.384553682530    -0.019851126426    15.994914619570
         N            0.774182223519    -0.654337317470    -0.019844126426    14.003074004430
         C           -0.533802776481    -0.178743317470    -0.004395126426    12.000000000000
         C           -1.119254776481     1.057356682530     0.012103873574    12.000000000000
         C            1.886740223519     0.157336682530    -0.018662126426    12.000000000000
         C           -2.528154776481     0.803092682530     0.019170873574    12.000000000000
         C           -2.694949776481    -0.549367317470     0.006392873574    12.000000000000
         C            3.202701223519    -0.587660317470     0.031757873574    12.000000000000
         H            0.879808223519    -1.661843317470    -0.019706126426     1.007825032230
         H           -0.601087776481     2.002165682530     0.016970873574     1.007825032230
         H           -3.318514776481     1.541223682530     0.032094873574     1.007825032230
         H           -3.548496776481    -1.209337317470     0.006132873574     1.007825032230
         H            3.465339223519    -0.799160317470     1.072752873574     1.007825032230
         H            3.974464223519     0.052701682530    -0.395274126426     1.007825032230
         H            3.168012223519    -1.532936317470    -0.516316126426     1.007825032230

  Basis Set: AUG-CC-PVTZ
    Blend: AUG-CC-PVTZ
  Basis Set: (AUG-CC-PVTZ AUX)
    Blend: AUG-CC-PVTZ-JKFIT
	 Reference Energy          =    -435.5938446090773368 [Eh]
	 Singles Energy            =      -0.0000000000000000 [Eh]
	 Same-Spin Energy          =      -0.4469925870716845 [Eh]
	 Opposite-Spin Energy      =      -1.3716416791441846 [Eh]
	 Correlation Energy        =      -1.8186342662158692 [Eh]
	 Total Energy              =    -437.4124788752932318 [Eh]

	 ================> DF-SCS-MP2 Energies <==================
	-----------------------------------------------------------
	 SCS Same-Spin Scale       =       0.3333333333333333 [-]
	 SCS Opposite-Spin Scale   =       1.2000000000000000 [-]
	 SCS Same-Spin Energy      =      -0.1489975290238948 [Eh]
	 SCS Opposite-Spin Energy  =      -1.6459700149730214 [Eh]
	 SCS Correlation Energy    =      -1.7949675439969162 [Eh]
	 SCS Total Energy          =    -437.3888121530742410 [Eh]
	-----------------------------------------------------------

  Dipole Moment: [D]
     X:    -0.0423      Y:    -2.6889      Z:     0.0820     Total:     2.6905

*** Psi4 exiting successfully. Buy a developer a beer!
