                               Psi4 1.3.2 release

  ==> Input File <==

--------------------------------------------------------------------------
#psi4
#
memory 32 gb

molecule  {
0 1
  O       -1.4890520    -1.1699510    -0.0104640
  O        1.7837190     1.3890130    -0.0214620
  N        0.7826630    -0.5574772    -0.0208417
  C       -0.5553190    -0.1742840    -0.0060060
  C       -1.1407710     1.0618160     0.0104930
  C        1.8652240     0.1617960    -0.0202730
  C       -2.5496710     0.8075520     0.0175600
  C       -2.7164660    -0.5449080     0.0047820
  C        3.1811850    -0.5832010     0.0301470
  H        0.8582920    -1.6573840    -0.0213170
  H       -0.6226040     2.0066250     0.0153600
  H       -3.3400310     1.5456830     0.0304840
  H       -3.5700130    -1.2048780     0.0045220
  H        3.4438230    -0.7947010     1.0711420
  H        3.9529480     0.0571610    -0.3968850
  H        3.1464960    -1.5284770    -0.5179270
units angstrom
no_reorient  #important for SAPT in psi4, default
symmetry c1  #important for SAPT in psi4, default
}

set PROPERTIES_ORIGIN ["COM"]
properties('MP2/aug-cc-pvtz', properties = ['dipole'])
--------------------------------------------------------------------------

    Molecular point group: c1
  Charge       = 0
  Multiplicity = 1
  Basis Set: AUG-CC-PVTZ
    Blend: AUG-CC-PVTZ
  Basis Set: (AUG-CC-PVTZ AUX)
    Blend: AUG-CC-PVTZ-JKFIT

    Orbital Energies [Eh]
    ---------------------

    Doubly Occupied:

       1A    -20.636056     2A    -20.517901     3A    -15.627782
       4A    -11.357551     5A    -11.341298     6A    -11.288809
       7A    -11.248446     8A    -11.236344     9A    -11.222371
      10A     -1.470512    11A     -1.391108    12A     -1.259091
      13A     -1.086816    14A     -1.039607    15A     -0.981354
      16A     -0.861861    17A     -0.812736    18A     -0.762913
      19A     -0.730686    20A     -0.683144    21A     -0.665496
      22A     -0.654777    23A     -0.624418    24A     -0.592794
      25A     -0.575465    26A     -0.569147    27A     -0.567357
      28A     -0.549518    29A     -0.544013    30A     -0.446919
      31A     -0.431370    32A     -0.400510    33A     -0.297463

  @DF-RHF Final Energy:  -435.59028025672461

   => Energetics <=

    Nuclear Repulsion Energy =            429.0420179619538317
    One-Electron Energy =               -1444.3133352829272553
    Two-Electron Energy =                 579.6810370642486987
    Total Energy =                       -435.5902802567246681
  Basis Set: (AUG-CC-PVTZ AUX)
    Blend: AUG-CC-PVTZ-RI
    Molecular point group: c1

    Geometry (in Angstrom), charge = 0, multiplicity = 1:

       Center              X                  Y                   Z               Mass
    ------------   -----------------  -----------------  -----------------  -----------------
         O           -1.461720271232    -1.192777753044    -0.009062647195    15.994914619570
         O            1.811050728768     1.366186246956    -0.020060647195    15.994914619570
         N            0.809994728768    -0.580303953044    -0.019440347195    14.003074004430
         C           -0.527987271232    -0.197110753044    -0.004604647195    12.000000000000
         C           -1.113439271232     1.038989246956     0.011894352805    12.000000000000
         C            1.892555728768     0.138969246956    -0.018871647195    12.000000000000
         C           -2.522339271232     0.784725246956     0.018961352805    12.000000000000
         C           -2.689134271232    -0.567734753044     0.006183352805    12.000000000000
         C            3.208516728768    -0.606027753044     0.031548352805    12.000000000000
         H            0.885623728768    -1.680210753044    -0.019915647195     1.007825032230
         H           -0.595272271232     1.983798246956     0.016761352805     1.007825032230
         H           -3.312699271232     1.522856246956     0.031885352805     1.007825032230
         H           -3.542681271232    -1.227704753044     0.005923352805     1.007825032230
         H            3.471154728768    -0.817527753044     1.072543352805     1.007825032230
         H            3.980279728768     0.034334246956    -0.395483647195     1.007825032230
         H            3.173827728768    -1.551303753044    -0.516525647195     1.007825032230

  Basis Set: AUG-CC-PVTZ
    Blend: AUG-CC-PVTZ
  Basis Set: (AUG-CC-PVTZ AUX)
    Blend: AUG-CC-PVTZ-JKFIT
	 Reference Energy          =    -435.5902802567246113 [Eh]
	 Singles Energy            =      -0.0000000000000000 [Eh]
	 Same-Spin Energy          =      -0.4476444641772652 [Eh]
	 Opposite-Spin Energy      =      -1.3700173024360540 [Eh]
	 Correlation Energy        =      -1.8176617666133192 [Eh]
	 Total Energy              =    -437.4079420233379096 [Eh]

	 ================> DF-SCS-MP2 Energies <==================
	-----------------------------------------------------------
	 SCS Same-Spin Scale       =       0.3333333333333333 [-]
	 SCS Opposite-Spin Scale   =       1.2000000000000000 [-]
	 SCS Same-Spin Energy      =      -0.1492148213924217 [Eh]
	 SCS Opposite-Spin Energy  =      -1.6440207629232648 [Eh]
	 SCS Correlation Energy    =      -1.7932355843156866 [Eh]
	 SCS Total Energy          =    -437.3835158410403210 [Eh]
	-----------------------------------------------------------

  Dipole Moment: [D]
     X:    -0.2503      Y:    -3.2114      Z:     0.0747     Total:     3.2220

*** Psi4 exiting successfully. Buy a developer a beer!
