                               Psi4 1.3.2 release

  ==> Input File <==

--------------------------------------------------------------------------
#psi4
#
memory 32 gb

molecule  {
0 1
  O       -1.4890520    -1.1699510    -0.0104640
  O        1.7837190     1.3890130    -0.0214620
  N        0.7684709    -0.6039393    -0.0211576
  C       -0.5553190    -0.1742840    -0.0060060
  C       -1.1407710     1.0618160     0.0104930
  C        1.8652240     0.1617960    -0.0202730
  C       -2.5496710     0.8075520     0.0175600
  C       -2.7164660    -0.5449080     0.0047820
  C        3.1811850    -0.5832010     0.0301470
  H        0.8582920    -1.6573840    -0.0213170
  H       -0.6226040     2.0066250     0.0153600
  H       -3.3400310     1.5456830     0.0304840
  H       -3.5700130    -1.2048780     0.0045220
  H        3.4438230    -0.7947010     1.0711420
  H        3.9529480     0.0571610    -0.3968850
  H        3.1464960    -1.5284770    -0.5179270
units angstrom
no_reorient  #important for SAPT in psi4, default
symmetry c1  #important for SAPT in psi4, default
}

set PROPERTIES_ORIGIN ["COM"]
properties('MP2/aug-cc-pvtz', properties = ['dipole'])
--------------------------------------------------------------------------

    Molecular point group: c1
  Charge       = 0
  Multiplicity = 1
  Basis Set: AUG-CC-PVTZ
    Blend: AUG-CC-PVTZ
  Basis Set: (AUG-CC-PVTZ AUX)
    Blend: AUG-CC-PVTZ-JKFIT

    Orbital Energies [Eh]
    ---------------------

    Doubly Occupied:

       1A    -20.632748     2A    -20.526508     3A    -15.624039
       4A    -11.364529     5A    -11.339786     6A    -11.286635
       7A    -11.249598     8A    -11.235134     9A    -11.221355
      10A     -1.468467    11A     -1.389752    12A     -1.257949
      13A     -1.085343    14A     -1.037963    15A     -0.979343
      16A     -0.856002    17A     -0.809218    18A     -0.765646
      19A     -0.737853    20A     -0.683909    21A     -0.662349
      22A     -0.652346    23A     -0.622722    24A     -0.597061
      25A     -0.576219    26A     -0.568363    27A     -0.567439
      28A     -0.547248    29A     -0.546408    30A     -0.451434
      31A     -0.435884    32A     -0.399471    33A     -0.295536

  @DF-RHF Final Energy:  -435.60078595623969

   => Energetics <=

    Nuclear Repulsion Energy =            428.4218769621791125
    One-Electron Energy =               -1443.0968164609021187
    Two-Electron Energy =                 579.0741535424833728
    Total Energy =                       -435.6007859562396334
  Basis Set: (AUG-CC-PVTZ AUX)
    Blend: AUG-CC-PVTZ-RI
    Molecular point group: c1

    Geometry (in Angstrom), charge = 0, multiplicity = 1:

       Center              X                  Y                   Z               Mass
    ------------   -----------------  -----------------  -----------------  -----------------
         O           -1.460131013206    -1.187574839782    -0.009027272119    15.994914619570
         O            1.812639986794     1.371389160218    -0.020025272119    15.994914619570
         N            0.797391886794    -0.621563139782    -0.019720872119    14.003074004430
         C           -0.526398013206    -0.191907839782    -0.004569272119    12.000000000000
         C           -1.111850013206     1.044192160218     0.011929727881    12.000000000000
         C            1.894144986794     0.144172160218    -0.018836272119    12.000000000000
         C           -2.520750013206     0.789928160218     0.018996727881    12.000000000000
         C           -2.687545013206    -0.562531839782     0.006218727881    12.000000000000
         C            3.210105986794    -0.600824839782     0.031583727881    12.000000000000
         H            0.887212986794    -1.675007839782    -0.019880272119     1.007825032230
         H           -0.593683013206     1.989001160218     0.016796727881     1.007825032230
         H           -3.311110013206     1.528059160218     0.031920727881     1.007825032230
         H           -3.541092013206    -1.222501839782     0.005958727881     1.007825032230
         H            3.472743986794    -0.812324839782     1.072578727881     1.007825032230
         H            3.981868986794     0.039537160218    -0.395448272119     1.007825032230
         H            3.175416986794    -1.546100839782    -0.516490272119     1.007825032230

  Basis Set: AUG-CC-PVTZ
    Blend: AUG-CC-PVTZ
  Basis Set: (AUG-CC-PVTZ AUX)
    Blend: AUG-CC-PVTZ-JKFIT
	 Reference Energy          =    -435.6007859562396902 [Eh]
	 Singles Energy            =      -0.0000000000000000 [Eh]
	 Same-Spin Energy          =      -0.4472031301339910 [Eh]
	 Opposite-Spin Energy      =      -1.3693741036906131 [Eh]
	 Correlation Energy        =      -1.8165772338246040 [Eh]
	 Total Energy              =    -437.4173631900642931 [Eh]

	 ================> DF-SCS-MP2 Energies <==================
	-----------------------------------------------------------
	 SCS Same-Spin Scale       =       0.3333333333333333 [-]
	 SCS Opposite-Spin Scale   =       1.2000000000000000 [-]
	 SCS Same-Spin Energy      =      -0.1490677100446637 [Eh]
	 SCS Opposite-Spin Energy  =      -1.6432489244287356 [Eh]
	 SCS Correlation Energy    =      -1.7923166344733992 [Eh]
	 SCS Total Energy          =    -437.3931025907131129 [Eh]
	-----------------------------------------------------------

  Dipole Moment: [D]
     X:    -0.0454      Y:    -3.0847      Z:     0.0762     Total:     3.0859

*** Psi4 exiting successfully. Buy a developer a beer!
