                               Psi4 1.4a3.dev225

  ==> Input File <==

--------------------------------------------------------------------------
#psi4
#
memory 32 gb

molecule  {
0 1
  O       -1.4890520    -1.1699510    -0.0104640
  O        1.7837190     1.3890130    -0.0214620
  N        0.7526660    -0.6498780    -0.0214550
  C       -0.5741139    -0.1674500    -0.0057840
  C       -1.1407710     1.0618160     0.0104930
  C        1.8652240     0.1617960    -0.0202730
  C       -2.5496710     0.8075520     0.0175600
  C       -2.7164660    -0.5449080     0.0047820
  C        3.1811850    -0.5832010     0.0301470
  H        0.8582920    -1.6573840    -0.0213170
  H       -0.6226040     2.0066250     0.0153600
  H       -3.3400310     1.5456830     0.0304840
  H       -3.5700130    -1.2048780     0.0045220
  H        3.4438230    -0.7947010     1.0711420
  H        3.9529480     0.0571610    -0.3968850
  H        3.1464960    -1.5284770    -0.5179270
units angstrom
no_reorient  #important for SAPT in psi4, default
symmetry c1  #important for SAPT in psi4, default
}

set PROPERTIES_ORIGIN ["COM"]
properties('MP2/aug-cc-pvtz', properties = ['dipole'])
--------------------------------------------------------------------------

    Molecular point group: c1
  Charge       = 0
  Multiplicity = 1
  Basis Set: AUG-CC-PVTZ
    Blend: AUG-CC-PVTZ
  Basis Set: (AUG-CC-PVTZ AUX)
    Blend: AUG-CC-PVTZ-JKFIT

    Orbital Energies [Eh]
    ---------------------

    Doubly Occupied:

       1A    -20.631025     2A    -20.533218     3A    -15.617924
       4A    -11.369839     5A    -11.337853     6A    -11.285547
       7A    -11.249757     8A    -11.235008     9A    -11.219985
      10A     -1.470759    11A     -1.387921    12A     -1.249985
      13A     -1.088377    14A     -1.034962    15A     -0.979009
      16A     -0.847991    17A     -0.804407    18A     -0.771495
      19A     -0.742730    20A     -0.683665    21A     -0.660304
      22A     -0.647909    23A     -0.621261    24A     -0.600798
      25A     -0.578678    26A     -0.568700    27A     -0.568029
      28A     -0.549513    29A     -0.541754    30A     -0.452859
      31A     -0.438248    32A     -0.400577    33A     -0.297212

  @DF-RHF Final Energy:  -435.60451572189601

   => Energetics <=

    Nuclear Repulsion Energy =            427.8766592857360251
    One-Electron Energy =               -1442.0277529573370430
    Two-Electron Energy =                 578.5465779497051244
    Total Energy =                       -435.6045157218959503
  Basis Set: (AUG-CC-PVTZ AUX)
    Blend: AUG-CC-PVTZ-RI
    Molecular point group: c1

    Geometry (in Angstrom), charge = 0, multiplicity = 1:

       Center              X                  Y                   Z               Mass
    ------------   -----------------  -----------------  -----------------  -----------------
         O           -1.456557528358    -1.183086351690    -0.009015272583    15.994914619570
         O            1.816213471642     1.375877648310    -0.020013272583    15.994914619570
         N            0.785160471642    -0.663013351690    -0.020006272583    14.003074004430
         C           -0.541619428358    -0.180585351690    -0.004335272583    12.000000000000
         C           -1.108276528358     1.048680648310     0.011941727417    12.000000000000
         C            1.897718471642     0.148660648310    -0.018824272583    12.000000000000
         C           -2.517176528358     0.794416648310     0.019008727417    12.000000000000
         C           -2.683971528358    -0.558043351690     0.006230727417    12.000000000000
         C            3.213679471642    -0.596336351690     0.031595727417    12.000000000000
         H            0.890786471642    -1.670519351690    -0.019868272583     1.007825032230
         H           -0.590109528358     1.993489648310     0.016808727417     1.007825032230
         H           -3.307536528358     1.532547648310     0.031932727417     1.007825032230
         H           -3.537518528358    -1.218013351690     0.005970727417     1.007825032230
         H            3.476317471642    -0.807836351690     1.072590727417     1.007825032230
         H            3.985442471642     0.044025648310    -0.395436272583     1.007825032230
         H            3.178990471642    -1.541612351690    -0.516478272583     1.007825032230

  Basis Set: AUG-CC-PVTZ
    Blend: AUG-CC-PVTZ
  Basis Set: (AUG-CC-PVTZ AUX)
    Blend: AUG-CC-PVTZ-JKFIT
	 Reference Energy          =    -435.6045157218960071 [Eh]
	 Singles Energy            =      -0.0000000000000000 [Eh]
	 Same-Spin Energy          =      -0.4465421238513279 [Eh]
	 Opposite-Spin Energy      =      -1.3686611384615515 [Eh]
	 Correlation Energy        =      -1.8152032623128793 [Eh]
	 Total Energy              =    -437.4197189842088846 [Eh]

	 ================> DF-SCS-MP2 Energies <==================
	-----------------------------------------------------------
	 SCS Same-Spin Scale       =       0.3333333333333333 [-]
	 SCS Opposite-Spin Scale   =       1.2000000000000000 [-]
	 SCS Same-Spin Energy      =      -0.1488473746171093 [Eh]
	 SCS Opposite-Spin Energy  =      -1.6423933661538617 [Eh]
	 SCS Correlation Energy    =      -1.7912407407709710 [Eh]
	 SCS Total Energy          =    -437.3957564626669523 [Eh]
	-----------------------------------------------------------

  Dipole Moment: [D]
     X:     0.0516      Y:    -2.9161      Z:     0.0792     Total:     2.9177

*** Psi4 exiting successfully. Buy a developer a beer!
