                               Psi4 1.3.2 release

  ==> Input File <==

--------------------------------------------------------------------------
#psi4
#
memory 32 gb

molecule  {
0 1
  O       -1.4890520    -1.1699510    -0.0104640
  O        1.7837190     1.3890130    -0.0214620
  N        0.7526660    -0.6498780    -0.0214550
  C       -0.3673702    -0.2426237    -0.0082259
  C       -1.1407710     1.0618160     0.0104930
  C        1.8652240     0.1617960    -0.0202730
  C       -2.5496710     0.8075520     0.0175600
  C       -2.7164660    -0.5449080     0.0047820
  C        3.1811850    -0.5832010     0.0301470
  H        0.8582920    -1.6573840    -0.0213170
  H       -0.6226040     2.0066250     0.0153600
  H       -3.3400310     1.5456830     0.0304840
  H       -3.5700130    -1.2048780     0.0045220
  H        3.4438230    -0.7947010     1.0711420
  H        3.9529480     0.0571610    -0.3968850
  H        3.1464960    -1.5284770    -0.5179270
units angstrom
no_reorient  #important for SAPT in psi4, default
symmetry c1  #important for SAPT in psi4, default
}

set PROPERTIES_ORIGIN ["COM"]
properties('MP2/aug-cc-pvtz', properties = ['dipole'])
--------------------------------------------------------------------------

    Molecular point group: c1
  Charge       = 0
  Multiplicity = 1
  Basis Set: AUG-CC-PVTZ
    Blend: AUG-CC-PVTZ
  Basis Set: (AUG-CC-PVTZ AUX)
    Blend: AUG-CC-PVTZ-JKFIT

    Orbital Energies [Eh]
    ---------------------

    Doubly Occupied:

       1A    -20.610983     2A    -20.556555     3A    -15.641063
       4A    -11.389080     5A    -11.350581     6A    -11.271549
       7A    -11.263740     8A    -11.224209     9A    -11.222474
      10A     -1.442955    11A     -1.406273    12A     -1.331050
      13A     -1.060655    14A     -1.049620    15A     -0.963420
      16A     -0.884522    17A     -0.840245    18A     -0.759149
      19A     -0.723204    20A     -0.696997    21A     -0.677543
      22A     -0.658502    23A     -0.622992    24A     -0.616499
      25A     -0.588423    26A     -0.563448    27A     -0.556349
      28A     -0.540290    29A     -0.505381    30A     -0.487487
      31A     -0.457888    32A     -0.379981    33A     -0.254654

  @DF-RHF Final Energy:  -435.52351640753233

   => Energetics <=

    Nuclear Repulsion Energy =            427.9970344247028606
    One-Electron Energy =               -1441.8455858692357197
    Two-Electron Energy =                 578.3250350370004753
    Total Energy =                       -435.5235164075323837
  Basis Set: (AUG-CC-PVTZ AUX)
    Blend: AUG-CC-PVTZ-RI
    Molecular point group: c1

    Geometry (in Angstrom), charge = 0, multiplicity = 1:

       Center              X                  Y                   Z               Mass
    ------------   -----------------  -----------------  -----------------  -----------------
         O           -1.476397356097    -1.175872428080    -0.008780939564    15.994914619570
         O            1.796373643903     1.383091571920    -0.019778939564    15.994914619570
         N            0.765320643903    -0.655799428080    -0.019771939564    14.003074004430
         C           -0.354715556097    -0.248545128080    -0.006542839564    12.000000000000
         C           -1.128116356097     1.055894571920     0.012176060436    12.000000000000
         C            1.877878643903     0.155874571920    -0.018589939564    12.000000000000
         C           -2.537016356097     0.801630571920     0.019243060436    12.000000000000
         C           -2.703811356097    -0.550829428080     0.006465060436    12.000000000000
         C            3.193839643903    -0.589122428080     0.031830060436    12.000000000000
         H            0.870946643903    -1.663305428080    -0.019633939564     1.007825032230
         H           -0.609949356097     2.000703571920     0.017043060436     1.007825032230
         H           -3.327376356097     1.539761571920     0.032167060436     1.007825032230
         H           -3.557358356097    -1.210799428080     0.006205060436     1.007825032230
         H            3.456477643903    -0.800622428080     1.072825060436     1.007825032230
         H            3.965602643903     0.051239571920    -0.395201939564     1.007825032230
         H            3.159150643903    -1.534398428080    -0.516243939564     1.007825032230

  Basis Set: AUG-CC-PVTZ
    Blend: AUG-CC-PVTZ
  Basis Set: (AUG-CC-PVTZ AUX)
    Blend: AUG-CC-PVTZ-JKFIT
	 Reference Energy          =    -435.5235164075323269 [Eh]
	 Singles Energy            =      -0.0000000000000000 [Eh]
	 Same-Spin Energy          =      -0.4523650301009766 [Eh]
	 Opposite-Spin Energy      =      -1.3772204057272004 [Eh]
	 Correlation Energy        =      -1.8295854358281769 [Eh]
	 Total Energy              =    -437.3531018433604913 [Eh]

	 ================> DF-SCS-MP2 Energies <==================
	-----------------------------------------------------------
	 SCS Same-Spin Scale       =       0.3333333333333333 [-]
	 SCS Opposite-Spin Scale   =       1.2000000000000000 [-]
	 SCS Same-Spin Energy      =      -0.1507883433669922 [Eh]
	 SCS Opposite-Spin Energy  =      -1.6526644868726403 [Eh]
	 SCS Correlation Energy    =      -1.8034528302396324 [Eh]
	 SCS Total Energy          =    -437.3269692377719480 [Eh]
	-----------------------------------------------------------

  Dipole Moment: [D]
     X:     1.2239      Y:    -3.2269      Z:     0.0661     Total:     3.4518

*** Psi4 exiting successfully. Buy a developer a beer!
