                               Psi4 1.3.2 release

  ==> Input File <==

--------------------------------------------------------------------------
#psi4
#
memory 32 gb

molecule  {
0 1
  O       -1.5562298    -1.1023984    -0.0093412
  O        1.7837190     1.3890130    -0.0214620
  N        0.7526660    -0.6498780    -0.0214550
  C       -0.5553190    -0.1742840    -0.0060060
  C       -1.1407710     1.0618160     0.0104930
  C        1.8652240     0.1617960    -0.0202730
  C       -2.5496710     0.8075520     0.0175600
  C       -2.7164660    -0.5449080     0.0047820
  C        3.1811850    -0.5832010     0.0301470
  H        0.8582920    -1.6573840    -0.0213170
  H       -0.6226040     2.0066250     0.0153600
  H       -3.3400310     1.5456830     0.0304840
  H       -3.5700130    -1.2048780     0.0045220
  H        3.4438230    -0.7947010     1.0711420
  H        3.9529480     0.0571610    -0.3968850
  H        3.1464960    -1.5284770    -0.5179270
units angstrom
no_reorient  #important for SAPT in psi4, default
symmetry c1  #important for SAPT in psi4, default
}

set PROPERTIES_ORIGIN ["COM"]
properties('MP2/aug-cc-pvtz', properties = ['dipole'])
--------------------------------------------------------------------------

    Molecular point group: c1
  Charge       = 0
  Multiplicity = 1
  Basis Set: AUG-CC-PVTZ
    Blend: AUG-CC-PVTZ
  Basis Set: (AUG-CC-PVTZ AUX)
    Blend: AUG-CC-PVTZ-JKFIT

    Orbital Energies [Eh]
    ---------------------

    Doubly Occupied:

       1A    -20.630950     2A    -20.535329     3A    -15.622573
       4A    -11.372620     5A    -11.334965     6A    -11.279467
       7A    -11.251697     8A    -11.222018     9A    -11.219956
      10A     -1.497456    11A     -1.391050    12A     -1.260177
      13A     -1.077437    14A     -1.041191    15A     -0.988599
      16A     -0.850342    17A     -0.812726    18A     -0.774810
      19A     -0.744987    20A     -0.687521    21A     -0.672119
      22A     -0.664977    23A     -0.626534    24A     -0.603785
      25A     -0.575698    26A     -0.569597    27A     -0.559425
      28A     -0.547439    29A     -0.537190    30A     -0.459169
      31A     -0.440680    32A     -0.388946    33A     -0.291833

  @DF-RHF Final Energy:  -435.59911402474137

   => Energetics <=

    Nuclear Repulsion Energy =            429.4707197009777246
    One-Electron Energy =               -1445.0731447592165750
    Two-Electron Energy =                 580.0033110334975390
    Total Energy =                       -435.5991140247413114
  Basis Set: (AUG-CC-PVTZ AUX)
    Blend: AUG-CC-PVTZ-RI
    Molecular point group: c1

    Geometry (in Angstrom), charge = 0, multiplicity = 1:

       Center              X                  Y                   Z               Mass
    ------------   -----------------  -----------------  -----------------  -----------------
         O           -1.516946202916    -1.123518626591    -0.008014786650    15.994914619570
         O            1.823002597084     1.367892773409    -0.020135586650    15.994914619570
         N            0.791949597084    -0.670998226591    -0.020128586650    14.003074004430
         C           -0.516035402916    -0.195404226591    -0.004679586650    12.000000000000
         C           -1.101487402916     1.040695773409     0.011819413350    12.000000000000
         C            1.904507597084     0.140675773409    -0.018946586650    12.000000000000
         C           -2.510387402916     0.786431773409     0.018886413350    12.000000000000
         C           -2.677182402916    -0.566028226591     0.006108413350    12.000000000000
         C            3.220468597084    -0.604321226591     0.031473413350    12.000000000000
         H            0.897575597084    -1.678504226591    -0.019990586650     1.007825032230
         H           -0.583320402916     1.985504773409     0.016686413350     1.007825032230
         H           -3.300747402916     1.524562773409     0.031810413350     1.007825032230
         H           -3.530729402916    -1.225998226591     0.005848413350     1.007825032230
         H            3.483106597084    -0.815821226591     1.072468413350     1.007825032230
         H            3.992231597084     0.036040773409    -0.395558586650     1.007825032230
         H            3.185779597084    -1.549597226591    -0.516600586650     1.007825032230

  Basis Set: AUG-CC-PVTZ
    Blend: AUG-CC-PVTZ
  Basis Set: (AUG-CC-PVTZ AUX)
    Blend: AUG-CC-PVTZ-JKFIT
	 Reference Energy          =    -435.5991140247413682 [Eh]
	 Singles Energy            =      -0.0000000000000000 [Eh]
	 Same-Spin Energy          =      -0.4471876297704123 [Eh]
	 Opposite-Spin Energy      =      -1.3671632213987133 [Eh]
	 Correlation Energy        =      -1.8143508511691255 [Eh]
	 Total Energy              =    -437.4134648759105062 [Eh]

	 ================> DF-SCS-MP2 Energies <==================
	-----------------------------------------------------------
	 SCS Same-Spin Scale       =       0.3333333333333333 [-]
	 SCS Opposite-Spin Scale   =       1.2000000000000000 [-]
	 SCS Same-Spin Energy      =      -0.1490625432568041 [Eh]
	 SCS Opposite-Spin Energy  =      -1.6405958656784558 [Eh]
	 SCS Correlation Energy    =      -1.7896584089352598 [Eh]
	 SCS Total Energy          =    -437.3887724336766496 [Eh]
	-----------------------------------------------------------

  Dipole Moment: [D]
     X:     0.3535      Y:    -3.2437      Z:     0.0737     Total:     3.2637

*** Psi4 exiting successfully. Buy a developer a beer!
