                               Psi4 1.3.2 release

  ==> Input File <==

--------------------------------------------------------------------------
#psi4
#
memory 32 gb

molecule  {
0 1
  O       -1.4890520    -1.1699510    -0.0104640
  O        1.7837190     1.3890130    -0.0214620
  N        0.7526660    -0.6498780    -0.0214550
  C       -0.5553190    -0.1742840    -0.0060060
  C       -1.1407710     1.0618160     0.0104930
  C        1.8508889     0.1810892    -0.0202889
  C       -2.5496710     0.8075520     0.0175600
  C       -2.7164660    -0.5449080     0.0047820
  C        3.1811850    -0.5832010     0.0301470
  H        0.8582920    -1.6573840    -0.0213170
  H       -0.6226040     2.0066250     0.0153600
  H       -3.3400310     1.5456830     0.0304840
  H       -3.5700130    -1.2048780     0.0045220
  H        3.4438230    -0.7947010     1.0711420
  H        3.9529480     0.0571610    -0.3968850
  H        3.1464960    -1.5284770    -0.5179270
units angstrom
no_reorient  #important for SAPT in psi4, default
symmetry c1  #important for SAPT in psi4, default
}

set PROPERTIES_ORIGIN ["COM"]
properties('MP2/aug-cc-pvtz', properties = ['dipole'])
--------------------------------------------------------------------------

    Molecular point group: c1
  Charge       = 0
  Multiplicity = 1
  Basis Set: AUG-CC-PVTZ
    Blend: AUG-CC-PVTZ
  Basis Set: (AUG-CC-PVTZ AUX)
    Blend: AUG-CC-PVTZ-JKFIT

    Orbital Energies [Eh]
    ---------------------

    Doubly Occupied:

       1A    -20.629194     2A    -20.537916     3A    -15.618650
       4A    -11.370140     5A    -11.338371     6A    -11.284313
       7A    -11.249344     8A    -11.234006     9A    -11.220436
      10A     -1.466405    11A     -1.402460    12A     -1.258408
      13A     -1.084010    14A     -1.031435    15A     -0.975651
      16A     -0.850364    17A     -0.805170    18A     -0.771855
      19A     -0.742492    20A     -0.685434    21A     -0.659542
      22A     -0.650034    23A     -0.620671    24A     -0.606797
      25A     -0.576491    26A     -0.566982    27A     -0.565714
      28A     -0.548503    29A     -0.545623    30A     -0.460891
      31A     -0.439489    32A     -0.398580    33A     -0.293605

  @DF-RHF Final Energy:  -435.60538425426006

   => Energetics <=

    Nuclear Repulsion Energy =            428.0721689500623484
    One-Electron Energy =               -1442.3771570901049017
    Two-Electron Energy =                 578.6996038857824942
    Total Energy =                       -435.6053842542600023
  Basis Set: (AUG-CC-PVTZ AUX)
    Blend: AUG-CC-PVTZ-RI
    Molecular point group: c1

    Geometry (in Angstrom), charge = 0, multiplicity = 1:

       Center              X                  Y                   Z               Mass
    ------------   -----------------  -----------------  -----------------  -----------------
         O           -1.456985505916    -1.184281978844    -0.008992442891    15.994914619570
         O            1.815785494084     1.374682021156    -0.019990442891    15.994914619570
         N            0.784732494084    -0.664208978844    -0.019983442891    14.003074004430
         C           -0.523252505916    -0.188614978844    -0.004534442891    12.000000000000
         C           -1.108704505916     1.047485021156     0.011964557109    12.000000000000
         C            1.882955394084     0.166758221156    -0.018817342891    12.000000000000
         C           -2.517604505916     0.793221021156     0.019031557109    12.000000000000
         C           -2.684399505916    -0.559238978844     0.006253557109    12.000000000000
         C            3.213251494084    -0.597531978844     0.031618557109    12.000000000000
         H            0.890358494084    -1.671714978844    -0.019845442891     1.007825032230
         H           -0.590537505916     1.992294021156     0.016831557109     1.007825032230
         H           -3.307964505916     1.531352021156     0.031955557109     1.007825032230
         H           -3.537946505916    -1.219208978844     0.005993557109     1.007825032230
         H            3.475889494084    -0.809031978844     1.072613557109     1.007825032230
         H            3.985014494084     0.042830021156    -0.395413442891     1.007825032230
         H            3.178562494084    -1.542807978844    -0.516455442891     1.007825032230

  Basis Set: AUG-CC-PVTZ
    Blend: AUG-CC-PVTZ
  Basis Set: (AUG-CC-PVTZ AUX)
    Blend: AUG-CC-PVTZ-JKFIT
	 Reference Energy          =    -435.6053842542600592 [Eh]
	 Singles Energy            =      -0.0000000000000000 [Eh]
	 Same-Spin Energy          =      -0.4463528831294630 [Eh]
	 Opposite-Spin Energy      =      -1.3681056960503768 [Eh]
	 Correlation Energy        =      -1.8144585791798398 [Eh]
	 Total Energy              =    -437.4198428334398727 [Eh]

	 ================> DF-SCS-MP2 Energies <==================
	-----------------------------------------------------------
	 SCS Same-Spin Scale       =       0.3333333333333333 [-]
	 SCS Opposite-Spin Scale   =       1.2000000000000000 [-]
	 SCS Same-Spin Energy      =      -0.1487842943764877 [Eh]
	 SCS Opposite-Spin Energy  =      -1.6417268352604522 [Eh]
	 SCS Correlation Energy    =      -1.7905111296369398 [Eh]
	 SCS Total Energy          =    -437.3958953838970274 [Eh]
	-----------------------------------------------------------

  Dipole Moment: [D]
     X:     0.1320      Y:    -2.8364      Z:     0.0738     Total:     2.8404

*** Psi4 exiting successfully. Buy a developer a beer!
