                               Psi4 1.3.2 release

  ==> Input File <==

--------------------------------------------------------------------------
#psi4
#
memory 32 gb

molecule  {
0 1
  O       -1.4890520    -1.1699510    -0.0104640
  O        1.7837190     1.3890130    -0.0214620
  N        0.7526660    -0.6498780    -0.0214550
  C       -0.5711182    -0.2202249    -0.0057455
  C       -1.1407710     1.0618160     0.0104930
  C        1.8652240     0.1617960    -0.0202730
  C       -2.5496710     0.8075520     0.0175600
  C       -2.7164660    -0.5449080     0.0047820
  C        3.1811850    -0.5832010     0.0301470
  H        0.8582920    -1.6573840    -0.0213170
  H       -0.6226040     2.0066250     0.0153600
  H       -3.3400310     1.5456830     0.0304840
  H       -3.5700130    -1.2048780     0.0045220
  H        3.4438230    -0.7947010     1.0711420
  H        3.9529480     0.0571610    -0.3968850
  H        3.1464960    -1.5284770    -0.5179270
units angstrom
no_reorient  #important for SAPT in psi4, default
symmetry c1  #important for SAPT in psi4, default
}

set PROPERTIES_ORIGIN ["COM"]
properties('MP2/aug-cc-pvtz', properties = ['dipole'])
--------------------------------------------------------------------------

    Molecular point group: c1
  Charge       = 0
  Multiplicity = 1
  Basis Set: AUG-CC-PVTZ
    Blend: AUG-CC-PVTZ
  Basis Set: (AUG-CC-PVTZ AUX)
    Blend: AUG-CC-PVTZ-JKFIT

    Orbital Energies [Eh]
    ---------------------

    Doubly Occupied:

       1A    -20.636709     2A    -20.535148     3A    -15.620224
       4A    -11.372445     5A    -11.342300     6A    -11.281935
       7A    -11.251417     8A    -11.234894     9A    -11.220306
      10A     -1.486013    11A     -1.389882    12A     -1.257173
      13A     -1.080905    14A     -1.037968    15A     -0.978447
      16A     -0.851233    17A     -0.808400    18A     -0.773600
      19A     -0.743890    20A     -0.684784    21A     -0.667922
      22A     -0.654081    23A     -0.623823    24A     -0.603539
      25A     -0.576379    26A     -0.573127    27A     -0.564872
      28A     -0.544093    29A     -0.542421    30A     -0.454858
      31A     -0.440218    32A     -0.397315    33A     -0.288539

  @DF-RHF Final Energy:  -435.60197806897480

   => Energetics <=

    Nuclear Repulsion Energy =            427.9525620582010106
    One-Electron Energy =               -1442.0713567334014442
    Two-Electron Energy =                 578.5168166062255750
    Total Energy =                       -435.6019780689748586
  Basis Set: (AUG-CC-PVTZ AUX)
    Blend: AUG-CC-PVTZ-RI
    Molecular point group: c1

    Geometry (in Angstrom), charge = 0, multiplicity = 1:

       Center              X                  Y                   Z               Mass
    ------------   -----------------  -----------------  -----------------  -----------------
         O           -1.456845005906    -1.178021893015    -0.009018967174    15.994914619570
         O            1.815925994094     1.380942106985    -0.020016967174    15.994914619570
         N            0.784872994094    -0.657948893015    -0.020009967174    14.003074004430
         C           -0.538911205906    -0.228295793015    -0.004300467174    12.000000000000
         C           -1.108564005906     1.053745106985     0.011938032826    12.000000000000
         C            1.897430994094     0.153725106985    -0.018827967174    12.000000000000
         C           -2.517464005906     0.799481106985     0.019005032826    12.000000000000
         C           -2.684259005906    -0.552978893015     0.006227032826    12.000000000000
         C            3.213391994094    -0.591271893015     0.031592032826    12.000000000000
         H            0.890498994094    -1.665454893015    -0.019871967174     1.007825032230
         H           -0.590397005906     1.998554106985     0.016805032826     1.007825032230
         H           -3.307824005906     1.537612106985     0.031929032826     1.007825032230
         H           -3.537806005906    -1.212948893015     0.005967032826     1.007825032230
         H            3.476029994094    -0.802771893015     1.072587032826     1.007825032230
         H            3.985154994094     0.049090106985    -0.395439967174     1.007825032230
         H            3.178702994094    -1.536547893015    -0.516481967174     1.007825032230

  Basis Set: AUG-CC-PVTZ
    Blend: AUG-CC-PVTZ
  Basis Set: (AUG-CC-PVTZ AUX)
    Blend: AUG-CC-PVTZ-JKFIT
	 Reference Energy          =    -435.6019780689748018 [Eh]
	 Singles Energy            =      -0.0000000000000000 [Eh]
	 Same-Spin Energy          =      -0.4472484448608821 [Eh]
	 Opposite-Spin Energy      =      -1.3687926321643911 [Eh]
	 Correlation Energy        =      -1.8160410770252731 [Eh]
	 Total Energy              =    -437.4180191460000628 [Eh]

	 ================> DF-SCS-MP2 Energies <==================
	-----------------------------------------------------------
	 SCS Same-Spin Scale       =       0.3333333333333333 [-]
	 SCS Opposite-Spin Scale   =       1.2000000000000000 [-]
	 SCS Same-Spin Energy      =      -0.1490828149536274 [Eh]
	 SCS Opposite-Spin Energy  =      -1.6425511585972692 [Eh]
	 SCS Correlation Energy    =      -1.7916339735508966 [Eh]
	 SCS Total Energy          =    -437.3936120425257172 [Eh]
	-----------------------------------------------------------

  Dipole Moment: [D]
     X:     0.1314      Y:    -3.0477      Z:     0.0769     Total:     3.0515

*** Psi4 exiting successfully. Buy a developer a beer!
