                               Psi4 1.4a3.dev225

  ==> Input File <==

--------------------------------------------------------------------------
#psi4
#
memory 32 gb

molecule  {
0 1
  O       -1.4890520    -1.1699510    -0.0104640
  O        1.7837190     1.3890130    -0.0214620
  N        0.7526660    -0.6498780    -0.0214550
  C       -0.5211164    -0.1378127    -0.0058427
  C       -1.1407710     1.0618160     0.0104930
  C        1.8652240     0.1617960    -0.0202730
  C       -2.5496710     0.8075520     0.0175600
  C       -2.7164660    -0.5449080     0.0047820
  C        3.1811850    -0.5832010     0.0301470
  H        0.8582920    -1.6573840    -0.0213170
  H       -0.6226040     2.0066250     0.0153600
  H       -3.3400310     1.5456830     0.0304840
  H       -3.5700130    -1.2048780     0.0045220
  H        3.4438230    -0.7947010     1.0711420
  H        3.9529480     0.0571610    -0.3968850
  H        3.1464960    -1.5284770    -0.5179270
units angstrom
no_reorient  #important for SAPT in psi4, default
symmetry c1  #important for SAPT in psi4, default
}

set PROPERTIES_ORIGIN ["COM"]
properties('MP2/aug-cc-pvtz', properties = ['dipole'])
--------------------------------------------------------------------------

    Molecular point group: c1
  Charge       = 0
  Multiplicity = 1
  Basis Set: AUG-CC-PVTZ
    Blend: AUG-CC-PVTZ
  Basis Set: (AUG-CC-PVTZ AUX)
    Blend: AUG-CC-PVTZ-JKFIT

    Orbital Energies [Eh]
    ---------------------

    Doubly Occupied:

       1A    -20.620979     2A    -20.536836     3A    -15.621814
       4A    -11.372198     5A    -11.336882     6A    -11.285764
       7A    -11.251556     8A    -11.232084     9A    -11.221162
      10A     -1.446375    11A     -1.391984    12A     -1.261975
      13A     -1.083637    14A     -1.037256    15A     -0.976613
      16A     -0.851722    17A     -0.806817    18A     -0.769024
      19A     -0.739644    20A     -0.685718    21A     -0.653543
      22A     -0.647969    23A     -0.618328    24A     -0.603521
      25A     -0.574419    26A     -0.572004    27A     -0.557555
      28A     -0.548710    29A     -0.545589    30A     -0.459652
      31A     -0.441362    32A     -0.397940    33A     -0.294679

  @DF-RHF Final Energy:  -435.60041280828972

   => Energetics <=

    Nuclear Repulsion Energy =            427.7056761431318250
    One-Electron Energy =               -1441.7215551275087364
    Two-Electron Energy =                 578.4154661760873068
    Total Energy =                       -435.6004128082896614
  Basis Set: (AUG-CC-PVTZ AUX)
    Blend: AUG-CC-PVTZ-RI
    Molecular point group: c1

    Geometry (in Angstrom), charge = 0, multiplicity = 1:

       Center              X                  Y                   Z               Mass
    ------------   -----------------  -----------------  -----------------  -----------------
         O           -1.461643348485    -1.185930447673    -0.009009639531    15.994914619570
         O            1.811127651515     1.373033552327    -0.020007639531    15.994914619570
         N            0.780074651515    -0.665857447673    -0.020000639531    14.003074004430
         C           -0.493707748485    -0.153792147673    -0.004388339531    12.000000000000
         C           -1.113362348485     1.045836552327     0.011947360469    12.000000000000
         C            1.892632651515     0.145816552327    -0.018818639531    12.000000000000
         C           -2.522262348485     0.791572552327     0.019014360469    12.000000000000
         C           -2.689057348485    -0.560887447673     0.006236360469    12.000000000000
         C            3.208593651515    -0.599180447673     0.031601360469    12.000000000000
         H            0.885700651515    -1.673363447673    -0.019862639531     1.007825032230
         H           -0.595195348485     1.990645552327     0.016814360469     1.007825032230
         H           -3.312622348485     1.529703552327     0.031938360469     1.007825032230
         H           -3.542604348485    -1.220857447673     0.005976360469     1.007825032230
         H            3.471231651515    -0.810680447673     1.072596360469     1.007825032230
         H            3.980356651515     0.041181552327    -0.395430639531     1.007825032230
         H            3.173904651515    -1.544456447673    -0.516472639531     1.007825032230

  Basis Set: AUG-CC-PVTZ
    Blend: AUG-CC-PVTZ
  Basis Set: (AUG-CC-PVTZ AUX)
    Blend: AUG-CC-PVTZ-JKFIT
	 Reference Energy          =    -435.6004128082897182 [Eh]
	 Singles Energy            =      -0.0000000000000000 [Eh]
	 Same-Spin Energy          =      -0.4470715591241284 [Eh]
	 Opposite-Spin Energy      =      -1.3701159954716622 [Eh]
	 Correlation Energy        =      -1.8171875545957907 [Eh]
	 Total Energy              =    -437.4176003628855369 [Eh]

	 ================> DF-SCS-MP2 Energies <==================
	-----------------------------------------------------------
	 SCS Same-Spin Scale       =       0.3333333333333333 [-]
	 SCS Opposite-Spin Scale   =       1.2000000000000000 [-]
	 SCS Same-Spin Energy      =      -0.1490238530413761 [Eh]
	 SCS Opposite-Spin Energy  =      -1.6441391945659947 [Eh]
	 SCS Correlation Energy    =      -1.7931630476073708 [Eh]
	 SCS Total Energy          =    -437.3935758558970974 [Eh]
	-----------------------------------------------------------

  Dipole Moment: [D]
     X:     0.3154      Y:    -2.8818      Z:     0.0782     Total:     2.9001

*** Psi4 exiting successfully. Buy a developer a beer!
