                               Psi4 1.3.2 release

  ==> Input File <==

--------------------------------------------------------------------------
#psi4
#
memory 32 gb

molecule  {
0 1
  O       -1.4890520    -1.1699510    -0.0104640
  O        1.7837190     1.3890130    -0.0214620
  N        0.7526660    -0.6498780    -0.0214550
  C       -0.5978607    -0.3136204    -0.0052822
  C       -1.1407710     1.0618160     0.0104930
  C        1.8652240     0.1617960    -0.0202730
  C       -2.5496710     0.8075520     0.0175600
  C       -2.7164660    -0.5449080     0.0047820
  C        3.1811850    -0.5832010     0.0301470
  H        0.8582920    -1.6573840    -0.0213170
  H       -0.6226040     2.0066250     0.0153600
  H       -3.3400310     1.5456830     0.0304840
  H       -3.5700130    -1.2048780     0.0045220
  H        3.4438230    -0.7947010     1.0711420
  H        3.9529480     0.0571610    -0.3968850
  H        3.1464960    -1.5284770    -0.5179270
units angstrom
no_reorient  #important for SAPT in psi4, default
symmetry c1  #important for SAPT in psi4, default
}

set PROPERTIES_ORIGIN ["COM"]
properties('MP2/aug-cc-pvtz', properties = ['dipole'])
--------------------------------------------------------------------------

    Molecular point group: c1
  Charge       = 0
  Multiplicity = 1
  Basis Set: AUG-CC-PVTZ
    Blend: AUG-CC-PVTZ
  Basis Set: (AUG-CC-PVTZ AUX)
    Blend: AUG-CC-PVTZ-JKFIT

    Orbital Energies [Eh]
    ---------------------

    Doubly Occupied:

       1A    -20.651373     2A    -20.536311     3A    -15.622097
       4A    -11.375462     5A    -11.351115     6A    -11.275419
       7A    -11.253088     8A    -11.236198     9A    -11.218388
      10A     -1.530324    11A     -1.390604    12A     -1.260151
      13A     -1.078222    14A     -1.040004    15A     -0.981547
      16A     -0.853081    17A     -0.817966    18A     -0.777597
      19A     -0.747938    20A     -0.690120    21A     -0.685698
      22A     -0.661827    23A     -0.627385    24A     -0.605731
      25A     -0.584854    26A     -0.577432    27A     -0.554673
      28A     -0.544923    29A     -0.524576    30A     -0.454309
      31A     -0.441551    32A     -0.396272    33A     -0.276961

  @DF-RHF Final Energy:  -435.57940669893100

   => Energetics <=

    Nuclear Repulsion Energy =            428.2514288940902247
    One-Electron Energy =               -1442.4152807178818421
    Two-Electron Energy =                 578.5844451248606219
    Total Energy =                       -435.5794066989310522
  Basis Set: (AUG-CC-PVTZ AUX)
    Blend: AUG-CC-PVTZ-RI
    Molecular point group: c1

    Geometry (in Angstrom), charge = 0, multiplicity = 1:

       Center              X                  Y                   Z               Mass
    ------------   -----------------  -----------------  -----------------  -----------------
         O           -1.454278704765    -1.169059343580    -0.009063427015    15.994914619570
         O            1.818492295235     1.389904656420    -0.020061427015    15.994914619570
         N            0.787439295235    -0.648986343580    -0.020054427015    14.003074004430
         C           -0.563087404765    -0.312728743580    -0.003881627015    12.000000000000
         C           -1.105997704765     1.062707656420     0.011893572985    12.000000000000
         C            1.899997295235     0.162687656420    -0.018872427015    12.000000000000
         C           -2.514897704765     0.808443656420     0.018960572985    12.000000000000
         C           -2.681692704765    -0.544016343580     0.006182572985    12.000000000000
         C            3.215958295235    -0.582309343580     0.031547572985    12.000000000000
         H            0.893065295235    -1.656492343580    -0.019916427015     1.007825032230
         H           -0.587830704765     2.007516656420     0.016760572985     1.007825032230
         H           -3.305257704765     1.546574656420     0.031884572985     1.007825032230
         H           -3.535239704765    -1.203986343580     0.005922572985     1.007825032230
         H            3.478596295235    -0.793809343580     1.072542572985     1.007825032230
         H            3.987721295235     0.058052656420    -0.395484427015     1.007825032230
         H            3.181269295235    -1.527585343580    -0.516526427015     1.007825032230

  Basis Set: AUG-CC-PVTZ
    Blend: AUG-CC-PVTZ
  Basis Set: (AUG-CC-PVTZ AUX)
    Blend: AUG-CC-PVTZ-JKFIT
	 Reference Energy          =    -435.5794066989309954 [Eh]
	 Singles Energy            =      -0.0000000000000000 [Eh]
	 Same-Spin Energy          =      -0.4480194716791226 [Eh]
	 Opposite-Spin Energy      =      -1.3684104122390206 [Eh]
	 Correlation Energy        =      -1.8164298839181432 [Eh]
	 Total Energy              =    -437.3958365828491424 [Eh]

	 ================> DF-SCS-MP2 Energies <==================
	-----------------------------------------------------------
	 SCS Same-Spin Scale       =       0.3333333333333333 [-]
	 SCS Opposite-Spin Scale   =       1.2000000000000000 [-]
	 SCS Same-Spin Energy      =      -0.1493398238930408 [Eh]
	 SCS Opposite-Spin Energy  =      -1.6420924946868247 [Eh]
	 SCS Correlation Energy    =      -1.7914323185798655 [Eh]
	 SCS Total Energy          =    -437.3708390175108889 [Eh]
	-----------------------------------------------------------

  Dipole Moment: [D]
     X:     0.1227      Y:    -3.2719      Z:     0.0741     Total:     3.2751

*** Psi4 exiting successfully. Buy a developer a beer!
