                               Psi4 1.3.2 release

  ==> Input File <==

--------------------------------------------------------------------------
#psi4
#
memory 32 gb

molecule  {
0 1
 Cl        1.2524280     1.4463390     0.9876330
 Cl        2.7904220    -0.0000060    -1.0049900
 Cl        1.2524060    -1.4463410     0.9876250
  O        0.2859334     0.0808792    -1.0572939
  C       -1.0473080     0.0000040    -0.5388570
  C       -1.7060310    -1.2192040    -0.3956300
  C       -1.7060400     1.2192100    -0.3956360
  C       -3.0551880    -1.2099090    -0.0381990
  C       -3.0551940     1.2099130    -0.0382080
  C       -3.7295220    -0.0000010     0.1434410
  C        1.2953470    -0.0000010    -0.0639540
  H       -1.1690490    -2.1465760    -0.5644520
  H       -1.1690510     2.1465770    -0.5644670
  H       -3.5827340    -2.1524420     0.0828180
  H       -3.5827470     2.1524420     0.0828000
  H       -4.7808520    -0.0000040     0.4187920
units angstrom
no_reorient  #important for SAPT in psi4, default
symmetry c1  #important for SAPT in psi4, default
}

set PROPERTIES_ORIGIN ["COM"]
properties('MP2/aug-cc-pvtz', properties = ['dipole'])
--------------------------------------------------------------------------

    Molecular point group: c1
  Charge       = 0
  Multiplicity = 1
  Basis Set: AUG-CC-PVTZ
    Blend: AUG-CC-PVTZ
  Basis Set: (AUG-CC-PVTZ AUX)
    Blend: AUG-CC-PVTZ-JKFIT

    Orbital Energies [Eh]
    ---------------------

    Doubly Occupied:

       1A   -104.868341     2A   -104.861862     3A   -104.861515
       4A    -20.632207     5A    -11.495257     6A    -11.314876
       7A    -11.255962     8A    -11.253989     9A    -11.253205
      10A    -11.252001    11A    -11.250802    12A    -10.592619
      13A    -10.586489    14A    -10.586153    15A     -8.059336
      16A     -8.057230    17A     -8.057199    18A     -8.053201
      19A     -8.052940    20A     -8.051112    21A     -8.051091
      22A     -8.050725    23A     -8.050720    24A     -1.448221
      25A     -1.218606    26A     -1.162964    27A     -1.116062
      28A     -1.113249    29A     -1.034687    30A     -1.024942
      31A     -0.873550    32A     -0.852020    33A     -0.808891
      34A     -0.730297    35A     -0.694677    36A     -0.687986
      37A     -0.678589    38A     -0.634224    39A     -0.630233
      40A     -0.607050    41A     -0.583791    42A     -0.537827
      43A     -0.534049    44A     -0.517470    45A     -0.510719
      46A     -0.499154    47A     -0.491817    48A     -0.483065
      49A     -0.461669    50A     -0.459879    51A     -0.448459
      52A     -0.352640    53A     -0.350309

  @DF-RHF Final Energy: -1721.48085880001190

   => Energetics <=

    Nuclear Repulsion Energy =            892.4086221254633529
    One-Electron Energy =               -4147.5871051694557536
    Two-Electron Energy =                1533.6976242439804992
    Total Energy =                      -1721.4808588000119016
  Basis Set: (AUG-CC-PVTZ AUX)
    Blend: AUG-CC-PVTZ-RI
    Molecular point group: c1

    Geometry (in Angstrom), charge = 0, multiplicity = 1:

       Center              X                  Y                   Z               Mass
    ------------   -----------------  -----------------  -----------------  -----------------
         CL           1.160501682039     1.440177651802     0.985039183935    34.968852682000
         CL           2.698495682039    -0.006167348198    -1.007583816065    34.968852682000
         CL           1.160479682039    -1.452502348198     0.985031183935    34.968852682000
         O            0.194007082039     0.074717851802    -1.059887716065    15.994914619570
         C           -1.139234317961    -0.006157348198    -0.541450816065    12.000000000000
         C           -1.797957317961    -1.225365348198    -0.398223816065    12.000000000000
         C           -1.797966317961     1.213048651802    -0.398229816065    12.000000000000
         C           -3.147114317961    -1.216070348198    -0.040792816065    12.000000000000
         C           -3.147120317961     1.203751651802    -0.040801816065    12.000000000000
         C           -3.821448317961    -0.006162348198     0.140847183935    12.000000000000
         C            1.203420682039    -0.006162348198    -0.066547816065    12.000000000000
         H           -1.260975317961    -2.152737348198    -0.567045816065     1.007825032230
         H           -1.260977317961     2.140415651802    -0.567060816065     1.007825032230
         H           -3.674660317961    -2.158603348198     0.080224183935     1.007825032230
         H           -3.674673317961     2.146280651802     0.080206183935     1.007825032230
         H           -4.872778317961    -0.006165348198     0.416198183935     1.007825032230

  Basis Set: AUG-CC-PVTZ
    Blend: AUG-CC-PVTZ
  Basis Set: (AUG-CC-PVTZ AUX)
    Blend: AUG-CC-PVTZ-JKFIT
	 Reference Energy          =   -1721.4808588000119016 [Eh]
	 Singles Energy            =      -0.0000000000000000 [Eh]
	 Same-Spin Energy          =      -0.5632294093610666 [Eh]
	 Opposite-Spin Energy      =      -1.6489688598319829 [Eh]
	 Correlation Energy        =      -2.2121982691930495 [Eh]
	 Total Energy              =   -1723.6930570692049969 [Eh]

	 ================> DF-SCS-MP2 Energies <==================
	-----------------------------------------------------------
	 SCS Same-Spin Scale       =       0.3333333333333333 [-]
	 SCS Opposite-Spin Scale   =       1.2000000000000000 [-]
	 SCS Same-Spin Energy      =      -0.1877431364536888 [Eh]
	 SCS Opposite-Spin Energy  =      -1.9787626317983795 [Eh]
	 SCS Correlation Energy    =      -2.1665057682520685 [Eh]
	 SCS Total Energy          =   -1723.6473645682640381 [Eh]
	-----------------------------------------------------------

  Dipole Moment: [D]
     X:    -2.1532      Y:    -0.1618      Z:     0.4050     Total:     2.1970

*** Psi4 exiting successfully. Buy a developer a beer!
