                               Psi4 1.3.2 release

  ==> Input File <==

--------------------------------------------------------------------------
#psi4
#
memory 32 gb

molecule  {
0 1
 Cl        1.2524280     1.4463390     0.9876330
 Cl        2.7904220    -0.0000060    -1.0049900
 Cl        1.2524060    -1.4463410     0.9876250
  O        0.2857808     0.1617515    -1.1161127
  C       -1.0473080     0.0000040    -0.5388570
  C       -1.7060310    -1.2192040    -0.3956300
  C       -1.7060400     1.2192100    -0.3956360
  C       -3.0551880    -1.2099090    -0.0381990
  C       -3.0551940     1.2099130    -0.0382080
  C       -3.7295220    -0.0000010     0.1434410
  C        1.2953470    -0.0000010    -0.0639540
  H       -1.1690490    -2.1465760    -0.5644520
  H       -1.1690510     2.1465770    -0.5644670
  H       -3.5827340    -2.1524420     0.0828180
  H       -3.5827470     2.1524420     0.0828000
  H       -4.7808520    -0.0000040     0.4187920
units angstrom
no_reorient  #important for SAPT in psi4, default
symmetry c1  #important for SAPT in psi4, default
}

set PROPERTIES_ORIGIN ["COM"]
properties('MP2/aug-cc-pvtz', properties = ['dipole'])
--------------------------------------------------------------------------

    Molecular point group: c1
  Charge       = 0
  Multiplicity = 1
  Basis Set: AUG-CC-PVTZ
    Blend: AUG-CC-PVTZ
  Basis Set: (AUG-CC-PVTZ AUX)
    Blend: AUG-CC-PVTZ-JKFIT

    Orbital Energies [Eh]
    ---------------------

    Doubly Occupied:

       1A   -104.873985     2A   -104.862004     3A   -104.860441
       4A    -20.633313     5A    -11.495709     6A    -11.314318
       7A    -11.257773     8A    -11.254625     9A    -11.252371
      10A    -11.251125    11A    -11.250531    12A    -10.597926
      13A    -10.586553    14A    -10.585080    15A     -8.064644
      16A     -8.062516    17A     -8.062472    18A     -8.053266
      19A     -8.051864    20A     -8.051170    21A     -8.051150
      22A     -8.049656    23A     -8.049646    24A     -1.425706
      25A     -1.218583    26A     -1.162831    27A     -1.117016
      28A     -1.112749    29A     -1.034494    30A     -1.022064
      31A     -0.863015    32A     -0.849364    33A     -0.811090
      34A     -0.725695    35A     -0.690666    36A     -0.680372
      37A     -0.669253    38A     -0.633515    39A     -0.629212
      40A     -0.607038    41A     -0.585074    42A     -0.537588
      43A     -0.532665    44A     -0.517682    45A     -0.511528
      46A     -0.501620    47A     -0.488430    48A     -0.483538
      49A     -0.462864    50A     -0.459467    51A     -0.449036
      52A     -0.352683    53A     -0.350128

  @DF-RHF Final Energy: -1721.46659095520840

   => Energetics <=

    Nuclear Repulsion Energy =            890.2336104291364336
    One-Electron Energy =               -4143.2861942802765043
    Two-Electron Energy =                1531.5859928959318950
    Total Energy =                      -1721.4665909552084031
  Basis Set: (AUG-CC-PVTZ AUX)
    Blend: AUG-CC-PVTZ-RI
    Molecular point group: c1

    Geometry (in Angstrom), charge = 0, multiplicity = 1:

       Center              X                  Y                   Z               Mass
    ------------   -----------------  -----------------  -----------------  -----------------
         CL           1.160513308299     1.434016168282     0.989520459562    34.968852682000
         CL           2.698507308299    -0.012328831718    -1.003102540438    34.968852682000
         CL           1.160491308299    -1.458663831718     0.989512459562    34.968852682000
         O            0.193866108299     0.149428668282    -1.114225240438    15.994914619570
         C           -1.139222691701    -0.012318831718    -0.536969540438    12.000000000000
         C           -1.797945691701    -1.231526831718    -0.393742540438    12.000000000000
         C           -1.797954691701     1.206887168282    -0.393748540438    12.000000000000
         C           -3.147102691701    -1.222231831718    -0.036311540438    12.000000000000
         C           -3.147108691701     1.197590168282    -0.036320540438    12.000000000000
         C           -3.821436691701    -0.012323831718     0.145328459562    12.000000000000
         C            1.203432308299    -0.012323831718    -0.062066540438    12.000000000000
         H           -1.260963691701    -2.158898831718    -0.562564540438     1.007825032230
         H           -1.260965691701     2.134254168282    -0.562579540438     1.007825032230
         H           -3.674648691701    -2.164764831718     0.084705459562     1.007825032230
         H           -3.674661691701     2.140119168282     0.084687459562     1.007825032230
         H           -4.872766691701    -0.012326831718     0.420679459562     1.007825032230

  Basis Set: AUG-CC-PVTZ
    Blend: AUG-CC-PVTZ
  Basis Set: (AUG-CC-PVTZ AUX)
    Blend: AUG-CC-PVTZ-JKFIT
	 Reference Energy          =   -1721.4665909552084031 [Eh]
	 Singles Energy            =      -0.0000000000000000 [Eh]
	 Same-Spin Energy          =      -0.5641605685524769 [Eh]
	 Opposite-Spin Energy      =      -1.6523094825924107 [Eh]
	 Correlation Energy        =      -2.2164700511448876 [Eh]
	 Total Energy              =   -1723.6830610063532276 [Eh]

	 ================> DF-SCS-MP2 Energies <==================
	-----------------------------------------------------------
	 SCS Same-Spin Scale       =       0.3333333333333333 [-]
	 SCS Opposite-Spin Scale   =       1.2000000000000000 [-]
	 SCS Same-Spin Energy      =      -0.1880535228508256 [Eh]
	 SCS Opposite-Spin Energy  =      -1.9827713791108927 [Eh]
	 SCS Correlation Energy    =      -2.1708249019617183 [Eh]
	 SCS Total Energy          =   -1723.6374158571700264 [Eh]
	-----------------------------------------------------------

  Dipole Moment: [D]
     X:    -2.0970      Y:    -0.3084      Z:     0.5643     Total:     2.1934

*** Psi4 exiting successfully. Buy a developer a beer!
