                               Psi4 1.3.2 release

  ==> Input File <==

--------------------------------------------------------------------------
#psi4
#
memory 32 gb

molecule  {
0 1
 Cl        1.2524280     1.4463390     0.9876330
 Cl        2.7904220    -0.0000060    -1.0049900
 Cl        1.2524060    -1.4463410     0.9876250
  O        0.2856282     0.2426237    -1.1749316
  C       -1.0473080     0.0000040    -0.5388570
  C       -1.7060310    -1.2192040    -0.3956300
  C       -1.7060400     1.2192100    -0.3956360
  C       -3.0551880    -1.2099090    -0.0381990
  C       -3.0551940     1.2099130    -0.0382080
  C       -3.7295220    -0.0000010     0.1434410
  C        1.2953470    -0.0000010    -0.0639540
  H       -1.1690490    -2.1465760    -0.5644520
  H       -1.1690510     2.1465770    -0.5644670
  H       -3.5827340    -2.1524420     0.0828180
  H       -3.5827470     2.1524420     0.0828000
  H       -4.7808520    -0.0000040     0.4187920
units angstrom
no_reorient  #important for SAPT in psi4, default
symmetry c1  #important for SAPT in psi4, default
}

set PROPERTIES_ORIGIN ["COM"]
properties('MP2/aug-cc-pvtz', properties = ['dipole'])
--------------------------------------------------------------------------

    Molecular point group: c1
  Charge       = 0
  Multiplicity = 1
  Basis Set: AUG-CC-PVTZ
    Blend: AUG-CC-PVTZ
  Basis Set: (AUG-CC-PVTZ AUX)
    Blend: AUG-CC-PVTZ-JKFIT

    Orbital Energies [Eh]
    ---------------------

    Doubly Occupied:

       1A   -104.878848     2A   -104.862282     3A   -104.859358
       4A    -20.634332     5A    -11.496184     6A    -11.314813
       7A    -11.259805     8A    -11.255379     9A    -11.252047
      10A    -11.250972    11A    -11.249801    12A    -10.602512
      13A    -10.586737    14A    -10.583987    15A     -8.069227
      16A     -8.067079    17A     -8.067023    18A     -8.053450
      19A     -8.051348    20A     -8.051326    21A     -8.050766
      22A     -8.048566    23A     -8.048550    24A     -1.402382
      25A     -1.218606    26A     -1.162949    27A     -1.117882
      28A     -1.111936    29A     -1.034508    30A     -1.020157
      31A     -0.856277    32A     -0.844463    33A     -0.813553
      34A     -0.721563    35A     -0.684830    36A     -0.673193
      37A     -0.660205    38A     -0.632825    39A     -0.627875
      40A     -0.607228    41A     -0.585350    42A     -0.537365
      43A     -0.530958    44A     -0.517974    45A     -0.512712
      46A     -0.503964    47A     -0.485474    48A     -0.481257
      49A     -0.463609    50A     -0.458705    51A     -0.449289
      52A     -0.352986    53A     -0.349831

  @DF-RHF Final Energy: -1721.44531647252938

   => Energetics <=

    Nuclear Repulsion Energy =            887.9236055093915638
    One-Electron Energy =               -4138.7092512199187695
    Two-Electron Energy =                1529.3403292379978211
    Total Energy =                      -1721.4453164725293846
  Basis Set: (AUG-CC-PVTZ AUX)
    Blend: AUG-CC-PVTZ-RI
    Molecular point group: c1

    Geometry (in Angstrom), charge = 0, multiplicity = 1:

       Center              X                  Y                   Z               Mass
    ------------   -----------------  -----------------  -----------------  -----------------
         CL           1.160524934559     1.427854692381     0.994001742807    34.968852682000
         CL           2.698518934559    -0.018490307619    -0.998621257193    34.968852682000
         CL           1.160502934559    -1.464825307619     0.993993742807    34.968852682000
         O            0.193725134559     0.224139392381    -1.168562857193    15.994914619570
         C           -1.139211065441    -0.018480307619    -0.532488257193    12.000000000000
         C           -1.797934065441    -1.237688307619    -0.389261257193    12.000000000000
         C           -1.797943065441     1.200725692381    -0.389267257193    12.000000000000
         C           -3.147091065441    -1.228393307619    -0.031830257193    12.000000000000
         C           -3.147097065441     1.191428692381    -0.031839257193    12.000000000000
         C           -3.821425065441    -0.018485307619     0.149809742807    12.000000000000
         C            1.203443934559    -0.018485307619    -0.057585257193    12.000000000000
         H           -1.260952065441    -2.165060307619    -0.558083257193     1.007825032230
         H           -1.260954065441     2.128092692381    -0.558098257193     1.007825032230
         H           -3.674637065441    -2.170926307619     0.089186742807     1.007825032230
         H           -3.674650065441     2.133957692381     0.089168742807     1.007825032230
         H           -4.872755065441    -0.018488307619     0.425160742807     1.007825032230

  Basis Set: AUG-CC-PVTZ
    Blend: AUG-CC-PVTZ
  Basis Set: (AUG-CC-PVTZ AUX)
    Blend: AUG-CC-PVTZ-JKFIT
	 Reference Energy          =   -1721.4453164725293846 [Eh]
	 Singles Energy            =      -0.0000000000000000 [Eh]
	 Same-Spin Energy          =      -0.5654891381028819 [Eh]
	 Opposite-Spin Energy      =      -1.6566785106794713 [Eh]
	 Correlation Energy        =      -2.2221676487823530 [Eh]
	 Total Energy              =   -1723.6674841213116451 [Eh]

	 ================> DF-SCS-MP2 Energies <==================
	-----------------------------------------------------------
	 SCS Same-Spin Scale       =       0.3333333333333333 [-]
	 SCS Opposite-Spin Scale   =       1.2000000000000000 [-]
	 SCS Same-Spin Energy      =      -0.1884963793676273 [Eh]
	 SCS Opposite-Spin Energy  =      -1.9880142128153655 [Eh]
	 SCS Correlation Energy    =      -2.1765105921829928 [Eh]
	 SCS Total Energy          =   -1723.6218270647123063 [Eh]
	-----------------------------------------------------------

  Dipole Moment: [D]
     X:    -2.0464      Y:    -0.4388      Z:     0.7145     Total:     2.2115

*** Psi4 exiting successfully. Buy a developer a beer!
