                               Psi4 1.3.2 release

  ==> Input File <==

--------------------------------------------------------------------------
#psi4
#
memory 32 gb

molecule  {
0 1
 Cl        1.2524280     1.4463390     0.9876330
 Cl        2.7904220    -0.0000060    -1.0049900
 Cl        1.2524060    -1.4463410     0.9876250
  O        0.2857045     0.2021876    -1.1455222
  C       -1.0473080     0.0000040    -0.5388570
  C       -1.7060310    -1.2192040    -0.3956300
  C       -1.7060400     1.2192100    -0.3956360
  C       -3.0551880    -1.2099090    -0.0381990
  C       -3.0551940     1.2099130    -0.0382080
  C       -3.7295220    -0.0000010     0.1434410
  C        1.2953470    -0.0000010    -0.0639540
  H       -1.1690490    -2.1465760    -0.5644520
  H       -1.1690510     2.1465770    -0.5644670
  H       -3.5827340    -2.1524420     0.0828180
  H       -3.5827470     2.1524420     0.0828000
  H       -4.7808520    -0.0000040     0.4187920
units angstrom
no_reorient  #important for SAPT in psi4, default
symmetry c1  #important for SAPT in psi4, default
}

set PROPERTIES_ORIGIN ["COM"]
properties('MP2/aug-cc-pvtz', properties = ['dipole'])
--------------------------------------------------------------------------

    Molecular point group: c1
  Charge       = 0
  Multiplicity = 1
  Basis Set: AUG-CC-PVTZ
    Blend: AUG-CC-PVTZ
  Basis Set: (AUG-CC-PVTZ AUX)
    Blend: AUG-CC-PVTZ-JKFIT

    Orbital Energies [Eh]
    ---------------------

    Doubly Occupied:

       1A   -104.876516     2A   -104.862133     3A   -104.859891
       4A    -20.633854     5A    -11.495941     6A    -11.314437
       7A    -11.258766     8A    -11.254986     9A    -11.252136
      10A    -11.251027    11A    -11.250157    12A    -10.600311
      13A    -10.586637    14A    -10.584527    15A     -8.067028
      16A     -8.064890    17A     -8.064840    18A     -8.053350
      19A     -8.051309    20A     -8.051251    21A     -8.051230
      22A     -8.049105    23A     -8.049092    24A     -1.414103
      25A     -1.218591    26A     -1.162859    27A     -1.117477
      28A     -1.112360    29A     -1.034475    30A     -1.020992
      31A     -0.859053    32A     -0.847259    33A     -0.812297
      34A     -0.723512    35A     -0.687991    36A     -0.676709
      37A     -0.664649    38A     -0.633179    39A     -0.628579
      40A     -0.607109    41A     -0.585357    42A     -0.537496
      43A     -0.531858    44A     -0.517829    45A     -0.512095
      46A     -0.502891    47A     -0.486487    48A     -0.483044
      49A     -0.463299    50A     -0.459139    51A     -0.449198
      52A     -0.352804    53A     -0.349989

  @DF-RHF Final Energy: -1721.45678832271551

   => Energetics <=

    Nuclear Repulsion Energy =            889.0938251125343186
    One-Electron Energy =               -4141.0290466960486810
    Two-Electron Energy =                1530.4784332607987380
    Total Energy =                      -1721.4567883227155107
  Basis Set: (AUG-CC-PVTZ AUX)
    Blend: AUG-CC-PVTZ-RI
    Molecular point group: c1

    Geometry (in Angstrom), charge = 0, multiplicity = 1:

       Center              X                  Y                   Z               Mass
    ------------   -----------------  -----------------  -----------------  -----------------
         CL           1.160519121429     1.430935430332     0.991761104994    34.968852682000
         CL           2.698513121429    -0.015409569668    -1.000861895006    34.968852682000
         CL           1.160497121429    -1.461744569668     0.991753104994    34.968852682000
         O            0.193795621429     0.186784030332    -1.141394095006    15.994914619570
         C           -1.139216878571    -0.015399569668    -0.534728895006    12.000000000000
         C           -1.797939878571    -1.234607569668    -0.391501895006    12.000000000000
         C           -1.797948878571     1.203806430332    -0.391507895006    12.000000000000
         C           -3.147096878571    -1.225312569668    -0.034070895006    12.000000000000
         C           -3.147102878571     1.194509430332    -0.034079895006    12.000000000000
         C           -3.821430878571    -0.015404569668     0.147569104994    12.000000000000
         C            1.203438121429    -0.015404569668    -0.059825895006    12.000000000000
         H           -1.260957878571    -2.161979569668    -0.560323895006     1.007825032230
         H           -1.260959878571     2.131173430332    -0.560338895006     1.007825032230
         H           -3.674642878571    -2.167845569668     0.086946104994     1.007825032230
         H           -3.674655878571     2.137038430332     0.086928104994     1.007825032230
         H           -4.872760878571    -0.015407569668     0.422920104994     1.007825032230

  Basis Set: AUG-CC-PVTZ
    Blend: AUG-CC-PVTZ
  Basis Set: (AUG-CC-PVTZ AUX)
    Blend: AUG-CC-PVTZ-JKFIT
	 Reference Energy          =   -1721.4567883227155107 [Eh]
	 Singles Energy            =      -0.0000000000000000 [Eh]
	 Same-Spin Energy          =      -0.5647745684275034 [Eh]
	 Opposite-Spin Energy      =      -1.6543652919700262 [Eh]
	 Correlation Energy        =      -2.2191398603975294 [Eh]
	 Total Energy              =   -1723.6759281831130011 [Eh]

	 ================> DF-SCS-MP2 Energies <==================
	-----------------------------------------------------------
	 SCS Same-Spin Scale       =       0.3333333333333333 [-]
	 SCS Opposite-Spin Scale   =       1.2000000000000000 [-]
	 SCS Same-Spin Energy      =      -0.1882581894758344 [Eh]
	 SCS Opposite-Spin Energy  =      -1.9852383503640314 [Eh]
	 SCS Correlation Energy    =      -2.1734965398398658 [Eh]
	 SCS Total Energy          =   -1723.6302848625552997 [Eh]
	-----------------------------------------------------------

  Dipole Moment: [D]
     X:    -2.0712      Y:    -0.3756      Z:     0.6406     Total:     2.2003

*** Psi4 exiting successfully. Buy a developer a beer!
