                               Psi4 1.3.2 release

  ==> Input File <==

--------------------------------------------------------------------------
#psi4
#
memory 32 gb

molecule  {
0 1
 Cl        1.2524280     1.4463390     0.9876330
 Cl        2.7904220    -0.0000060    -1.0049900
 Cl        1.2524060    -1.4463410     0.9876250
  O        0.2860097     0.0404431    -1.0278844
  C       -1.0473080     0.0000040    -0.5388570
  C       -1.7060310    -1.2192040    -0.3956300
  C       -1.7060400     1.2192100    -0.3956360
  C       -3.0551880    -1.2099090    -0.0381990
  C       -3.0551940     1.2099130    -0.0382080
  C       -3.7295220    -0.0000010     0.1434410
  C        1.2953470    -0.0000010    -0.0639540
  H       -1.1690490    -2.1465760    -0.5644520
  H       -1.1690510     2.1465770    -0.5644670
  H       -3.5827340    -2.1524420     0.0828180
  H       -3.5827470     2.1524420     0.0828000
  H       -4.7808520    -0.0000040     0.4187920
units angstrom
no_reorient  #important for SAPT in psi4, default
symmetry c1  #important for SAPT in psi4, default
}

set PROPERTIES_ORIGIN ["COM"]
properties('MP2/aug-cc-pvtz', properties = ['dipole'])
--------------------------------------------------------------------------

    Molecular point group: c1
  Charge       = 0
  Multiplicity = 1
  Basis Set: AUG-CC-PVTZ
    Blend: AUG-CC-PVTZ
  Basis Set: (AUG-CC-PVTZ AUX)
    Blend: AUG-CC-PVTZ-JKFIT

    Orbital Energies [Eh]
    ---------------------

    Doubly Occupied:

       1A   -104.865246     2A   -104.862006     3A   -104.861883
       4A    -20.631711     5A    -11.495029     6A    -11.315548
       7A    -11.255178     8A    -11.253852     9A    -11.253632
      10A    -11.252631    11A    -11.250825    12A    -10.589716
      13A    -10.586642    14A    -10.586539    15A     -8.056431
      16A     -8.054336    17A     -8.054310    18A     -8.053430
      19A     -8.053251    20A     -8.051212    21A     -8.051209
      22A     -8.051164    23A     -8.051143    24A     -1.458963
      25A     -1.218642    26A     -1.163125    27A     -1.115761
      28A     -1.113164    29A     -1.034855    30A     -1.026738
      31A     -0.879435    32A     -0.852950    33A     -0.807924
      34A     -0.732483    35A     -0.696196    36A     -0.691845
      37A     -0.683123    38A     -0.634632    39A     -0.630585
      40A     -0.607133    41A     -0.582878    42A     -0.538041
      43A     -0.534653    44A     -0.517427    45A     -0.510591
      46A     -0.498586    47A     -0.492437    48A     -0.482261
      49A     -0.460959    50A     -0.459940    51A     -0.448027
      52A     -0.352726    53A     -0.350320

  @DF-RHF Final Energy: -1721.48523683786698

   => Energetics <=

    Nuclear Repulsion Energy =            893.4370945948465987
    One-Electron Energy =               -4149.6180144681920865
    Two-Electron Energy =                1534.6956830354783961
    Total Energy =                      -1721.4852368378669780
  Basis Set: (AUG-CC-PVTZ AUX)
    Blend: AUG-CC-PVTZ-RI
    Molecular point group: c1

    Geometry (in Angstrom), charge = 0, multiplicity = 1:

       Center              X                  Y                   Z               Mass
    ------------   -----------------  -----------------  -----------------  -----------------
         CL           1.160495868909     1.443258389752     0.982798538503    34.968852682000
         CL           2.698489868909    -0.003086610248    -1.009824461497    34.968852682000
         CL           1.160473868909    -1.449421610248     0.982790538503    34.968852682000
         O            0.194077568909     0.037362489752    -1.032718861497    15.994914619570
         C           -1.139240131091    -0.003076610248    -0.543691461497    12.000000000000
         C           -1.797963131091    -1.222284610248    -0.400464461497    12.000000000000
         C           -1.797972131091     1.216129389752    -0.400470461497    12.000000000000
         C           -3.147120131091    -1.212989610248    -0.043033461497    12.000000000000
         C           -3.147126131091     1.206832389752    -0.043042461497    12.000000000000
         C           -3.821454131091    -0.003081610248     0.138606538503    12.000000000000
         C            1.203414868909    -0.003081610248    -0.068788461497    12.000000000000
         H           -1.260981131091    -2.149656610248    -0.569286461497     1.007825032230
         H           -1.260983131091     2.143496389752    -0.569301461497     1.007825032230
         H           -3.674666131091    -2.155522610248     0.077983538503     1.007825032230
         H           -3.674679131091     2.149361389752     0.077965538503     1.007825032230
         H           -4.872784131091    -0.003084610248     0.413957538503     1.007825032230

  Basis Set: AUG-CC-PVTZ
    Blend: AUG-CC-PVTZ
  Basis Set: (AUG-CC-PVTZ AUX)
    Blend: AUG-CC-PVTZ-JKFIT
	 Reference Energy          =   -1721.4852368378669780 [Eh]
	 Singles Energy            =      -0.0000000000000000 [Eh]
	 Same-Spin Energy          =      -0.5629074504636014 [Eh]
	 Opposite-Spin Energy      =      -1.6476769150635935 [Eh]
	 Correlation Energy        =      -2.2105843655271951 [Eh]
	 Total Energy              =   -1723.6958212033941891 [Eh]

	 ================> DF-SCS-MP2 Energies <==================
	-----------------------------------------------------------
	 SCS Same-Spin Scale       =       0.3333333333333333 [-]
	 SCS Opposite-Spin Scale   =       1.2000000000000000 [-]
	 SCS Same-Spin Energy      =      -0.1876358168212005 [Eh]
	 SCS Opposite-Spin Energy  =      -1.9772122980763120 [Eh]
	 SCS Correlation Energy    =      -2.1648481148975125 [Eh]
	 SCS Total Energy          =   -1723.6500849527644732 [Eh]
	-----------------------------------------------------------

  Dipole Moment: [D]
     X:    -2.1843      Y:    -0.0827      Z:     0.3227     Total:     2.2095

*** Psi4 exiting successfully. Buy a developer a beer!
