                               Psi4 1.3.2 release

  ==> Input File <==

--------------------------------------------------------------------------
#psi4
#
memory 32 gb

molecule  {
0 1
 Cl        1.2524280     1.4463390     0.9876330
 Cl        2.7904220    -0.0000060    -1.0049900
 Cl        1.2524060    -1.4463410     0.9876250
  O        0.2858571     0.1213153    -1.0867033
  C       -1.0473080     0.0000040    -0.5388570
  C       -1.7060310    -1.2192040    -0.3956300
  C       -1.7060400     1.2192100    -0.3956360
  C       -3.0551880    -1.2099090    -0.0381990
  C       -3.0551940     1.2099130    -0.0382080
  C       -3.7295220    -0.0000010     0.1434410
  C        1.2953470    -0.0000010    -0.0639540
  H       -1.1690490    -2.1465760    -0.5644520
  H       -1.1690510     2.1465770    -0.5644670
  H       -3.5827340    -2.1524420     0.0828180
  H       -3.5827470     2.1524420     0.0828000
  H       -4.7808520    -0.0000040     0.4187920
units angstrom
no_reorient  #important for SAPT in psi4, default
symmetry c1  #important for SAPT in psi4, default
}

set PROPERTIES_ORIGIN ["COM"]
properties('MP2/aug-cc-pvtz', properties = ['dipole'])
--------------------------------------------------------------------------

    Molecular point group: c1
  Charge       = 0
  Multiplicity = 1
  Basis Set: AUG-CC-PVTZ
    Blend: AUG-CC-PVTZ
  Basis Set: (AUG-CC-PVTZ AUX)
    Blend: AUG-CC-PVTZ-JKFIT

    Orbital Energies [Eh]
    ---------------------

    Doubly Occupied:

       1A   -104.871258     2A   -104.861909     3A   -104.860988
       4A    -20.632752     5A    -11.495482     6A    -11.314464
       7A    -11.256835     8A    -11.254294     9A    -11.252732
      10A    -11.251452    11A    -11.250745    12A    -10.595359
      13A    -10.586499    14A    -10.585627    15A     -8.062077
      16A     -8.059960    17A     -8.059923    18A     -8.053212
      19A     -8.052413    20A     -8.051119    21A     -8.051099
      22A     -8.050201    23A     -8.050194    24A     -1.437107
      25A     -1.218587    26A     -1.162866    27A     -1.116523
      28A     -1.113068    29A     -1.034566    30A     -1.023380
      31A     -0.867969    32A     -0.850876    33A     -0.809949
      34A     -0.727998    35A     -0.692871    36A     -0.684145
      37A     -0.673930    38A     -0.633856    39A     -0.629769
      40A     -0.607017    41A     -0.584537    42A     -0.537686
      43A     -0.533391    44A     -0.517558    45A     -0.511052
      46A     -0.500284    47A     -0.490388    48A     -0.483464
      49A     -0.462318    50A     -0.459711    51A     -0.448793
      52A     -0.352627    53A     -0.350240

  @DF-RHF Final Energy: -1721.47463426400759

   => Energetics <=

    Nuclear Repulsion Energy =            891.3396636063724827
    One-Electron Energy =               -4145.4743544973616736
    Two-Electron Energy =                1532.6600566269814863
    Total Energy =                      -1721.4746342640075909
  Basis Set: (AUG-CC-PVTZ AUX)
    Blend: AUG-CC-PVTZ-RI
    Molecular point group: c1

    Geometry (in Angstrom), charge = 0, multiplicity = 1:

       Center              X                  Y                   Z               Mass
    ------------   -----------------  -----------------  -----------------  -----------------
         CL           1.160507495169     1.437096913851     0.987279821748    34.968852682000
         CL           2.698501495169    -0.009248086149    -1.005343178252    34.968852682000
         CL           1.160485495169    -1.455583086149     0.987271821748    34.968852682000
         O            0.193936595169     0.112073213851    -1.087056478252    15.994914619570
         C           -1.139228504831    -0.009238086149    -0.539210178252    12.000000000000
         C           -1.797951504831    -1.228446086149    -0.395983178252    12.000000000000
         C           -1.797960504831     1.209967913851    -0.395989178252    12.000000000000
         C           -3.147108504831    -1.219151086149    -0.038552178252    12.000000000000
         C           -3.147114504831     1.200670913851    -0.038561178252    12.000000000000
         C           -3.821442504831    -0.009243086149     0.143087821748    12.000000000000
         C            1.203426495169    -0.009243086149    -0.064307178252    12.000000000000
         H           -1.260969504831    -2.155818086149    -0.564805178252     1.007825032230
         H           -1.260971504831     2.137334913851    -0.564820178252     1.007825032230
         H           -3.674654504831    -2.161684086149     0.082464821748     1.007825032230
         H           -3.674667504831     2.143199913851     0.082446821748     1.007825032230
         H           -4.872772504831    -0.009246086149     0.418438821748     1.007825032230

  Basis Set: AUG-CC-PVTZ
    Blend: AUG-CC-PVTZ
  Basis Set: (AUG-CC-PVTZ AUX)
    Blend: AUG-CC-PVTZ-JKFIT
	 Reference Energy          =   -1721.4746342640075909 [Eh]
	 Singles Energy            =      -0.0000000000000000 [Eh]
	 Same-Spin Energy          =      -0.5636461786624956 [Eh]
	 Opposite-Spin Energy      =      -1.6505114644877850 [Eh]
	 Correlation Energy        =      -2.2141576431502807 [Eh]
	 Total Energy              =   -1723.6887919071577926 [Eh]

	 ================> DF-SCS-MP2 Energies <==================
	-----------------------------------------------------------
	 SCS Same-Spin Scale       =       0.3333333333333333 [-]
	 SCS Opposite-Spin Scale   =       1.2000000000000000 [-]
	 SCS Same-Spin Energy      =      -0.1878820595541652 [Eh]
	 SCS Opposite-Spin Energy  =      -1.9806137573853420 [Eh]
	 SCS Correlation Energy    =      -2.1684958169395072 [Eh]
	 SCS Total Energy          =   -1723.6431300809470031 [Eh]
	-----------------------------------------------------------

  Dipole Moment: [D]
     X:    -2.1242      Y:    -0.2371      Z:     0.4857     Total:     2.1919

*** Psi4 exiting successfully. Buy a developer a beer!
