                               Psi4 1.3.2 release

  ==> Input File <==

--------------------------------------------------------------------------
#psi4
#
memory 32 gb

molecule  {
-1 1
  O        2.3621300     1.1457750    -0.0000250
  O        2.3621310    -1.1457740    -0.0000570
  C        0.2818590     0.0000000    -0.0000440
  C       -0.4337530    -1.2036740    -0.0001190
  C       -0.4337540     1.2036740     0.0001100
  C       -1.8301680    -1.2073330    -0.0000540
  C       -1.8301700     1.2073330     0.0001830
  C       -2.5366520     0.0000000     0.0001000
  C        1.8307920     0.0000000    -0.0001120
  H        0.1460340    -2.1233920    -0.0002260
  H        0.1460330     2.1233920     0.0001590
  H       -2.3743460    -2.1522190    -0.0001220
  H       -2.3743480     2.1522190     0.0003060
  H       -3.6263804    -0.0000167     0.1501550
units angstrom
no_reorient  #important for SAPT in psi4, default
symmetry c1  #important for SAPT in psi4, default
}

set PROPERTIES_ORIGIN ["COM"]
properties('MP2/aug-cc-pvtz', properties = ['dipole'])
--------------------------------------------------------------------------

    Molecular point group: c1
  Charge       = -1
  Multiplicity = 1
  Basis Set: AUG-CC-PVTZ
    Blend: AUG-CC-PVTZ
  Basis Set: (AUG-CC-PVTZ AUX)
    Blend: AUG-CC-PVTZ-JKFIT

    Orbital Energies [Eh]
    ---------------------

    Doubly Occupied:

       1A    -20.309640     2A    -20.309607     3A    -11.159155
       4A    -11.118053     5A    -11.112135     6A    -11.112001
       7A    -11.098370     8A    -11.098286     9A    -11.090286
      10A     -1.180102    11A     -1.083365    12A     -1.016122
      13A     -0.882125    14A     -0.881134    15A     -0.700430
      16A     -0.690783    17A     -0.592705    18A     -0.542977
      19A     -0.490358    20A     -0.482768    21A     -0.455916
      22A     -0.454379    23A     -0.408837    24A     -0.392133
      25A     -0.377854    26A     -0.352194    27A     -0.350971
      28A     -0.229370    29A     -0.222099    30A     -0.213920
      31A     -0.202533    32A     -0.197239

  @DF-RHF Final Energy:  -417.90668647879966

   => Energetics <=

    Nuclear Repulsion Energy =            390.7337923418286891
    One-Electron Energy =               -1355.6652665967694702
    Two-Electron Energy =                 547.0247877761411246
    Total Energy =                       -417.9066864787996565
  Basis Set: (AUG-CC-PVTZ AUX)
    Blend: AUG-CC-PVTZ-RI
    Molecular point group: c1

    Geometry (in Angstrom), charge = -1, multiplicity = 1:

       Center              X                  Y                   Z               Mass
    ------------   -----------------  -----------------  -----------------  -----------------
         O            2.296065295221     1.145775006905    -0.001271844617    15.994914619570
         O            2.296066295221    -1.145773993095    -0.001303844617    15.994914619570
         C            0.215794295221     0.000000006905    -0.001290844617    12.000000000000
         C           -0.499817704779    -1.203673993095    -0.001365844617    12.000000000000
         C           -0.499818704779     1.203674006905    -0.001136844617    12.000000000000
         C           -1.896232704779    -1.207332993095    -0.001300844617    12.000000000000
         C           -1.896234704779     1.207333006905    -0.001063844617    12.000000000000
         C           -2.602716704779     0.000000006905    -0.001146844617    12.000000000000
         C            1.764727295221     0.000000006905    -0.001358844617    12.000000000000
         H            0.079969295221    -2.123391993095    -0.001472844617     1.007825032230
         H            0.079968295221     2.123392006905    -0.001087844617     1.007825032230
         H           -2.440410704779    -2.152218993095    -0.001368844617     1.007825032230
         H           -2.440412704779     2.152219006905    -0.000940844617     1.007825032230
         H           -3.692445104779    -0.000016693095     0.148908155383     1.007825032230

  Basis Set: AUG-CC-PVTZ
    Blend: AUG-CC-PVTZ
  Basis Set: (AUG-CC-PVTZ AUX)
    Blend: AUG-CC-PVTZ-JKFIT
	 Reference Energy          =    -417.9066864787996565 [Eh]
	 Singles Energy            =      -0.0000000000000000 [Eh]
	 Same-Spin Energy          =      -0.4433417784370380 [Eh]
	 Opposite-Spin Energy      =      -1.3209931015632441 [Eh]
	 Correlation Energy        =      -1.7643348800002820 [Eh]
	 Total Energy              =    -419.6710213587999192 [Eh]

	 ================> DF-SCS-MP2 Energies <==================
	-----------------------------------------------------------
	 SCS Same-Spin Scale       =       0.3333333333333333 [-]
	 SCS Opposite-Spin Scale   =       1.2000000000000000 [-]
	 SCS Same-Spin Energy      =      -0.1477805928123460 [Eh]
	 SCS Opposite-Spin Energy  =      -1.5851917218758929 [Eh]
	 SCS Correlation Energy    =      -1.7329723146882388 [Eh]
	 SCS Total Energy          =    -419.6396587934879108 [Eh]
	-----------------------------------------------------------

  Dipole Moment: [D]
     X:    -8.5566      Y:    -0.0000      Z:     0.1032     Total:     8.5572

*** Psi4 exiting successfully. Buy a developer a beer!
