                               Psi4 1.3.2 release

  ==> Input File <==

--------------------------------------------------------------------------
#psi4
#
memory 32 gb

molecule  {
-1 1
  O        2.3621300     1.1457750    -0.0000250
  O        2.3621310    -1.1457740    -0.0000570
  C        0.2818594     0.0000042    -0.3000440
  C       -0.4337530    -1.2036740    -0.0001190
  C       -0.4337540     1.2036740     0.0001100
  C       -1.8301680    -1.2073330    -0.0000540
  C       -1.8301700     1.2073330     0.0001830
  C       -2.5366520     0.0000000     0.0001000
  C        1.8307920     0.0000000    -0.0001120
  H        0.1460340    -2.1233920    -0.0002260
  H        0.1460330     2.1233920     0.0001590
  H       -2.3743460    -2.1522190    -0.0001220
  H       -2.3743480     2.1522190     0.0003060
  H       -3.6263880    -0.0000020     0.0001550
units angstrom
no_reorient  #important for SAPT in psi4, default
symmetry c1  #important for SAPT in psi4, default
}

set PROPERTIES_ORIGIN ["COM"]
properties('MP2/aug-cc-pvtz', properties = ['dipole'])
--------------------------------------------------------------------------

    Molecular point group: c1
  Charge       = -1
  Multiplicity = 1
  Basis Set: AUG-CC-PVTZ
    Blend: AUG-CC-PVTZ
  Basis Set: (AUG-CC-PVTZ AUX)
    Blend: AUG-CC-PVTZ-JKFIT

    Orbital Energies [Eh]
    ---------------------

    Doubly Occupied:

       1A    -20.310135     2A    -20.310102     3A    -11.162273
       4A    -11.119216     5A    -11.110519     6A    -11.110422
       7A    -11.104164     8A    -11.104105     9A    -11.095852
      10A     -1.179539    11A     -1.083434    12A     -1.012895
      13A     -0.879830    14A     -0.876501    15A     -0.698569
      16A     -0.685324    17A     -0.585868    18A     -0.543874
      19A     -0.483635    20A     -0.482421    21A     -0.454116
      22A     -0.453376    23A     -0.408742    24A     -0.388386
      25A     -0.379186    26A     -0.349137    27A     -0.347398
      28A     -0.229723    29A     -0.218656    30A     -0.212500
      31A     -0.199916    32A     -0.194490

  @DF-RHF Final Energy:  -417.87898039293663

   => Energetics <=

    Nuclear Repulsion Energy =            389.5806409415158669
    One-Electron Energy =               -1353.3706390442580414
    Two-Electron Energy =                 545.9110177098056056
    Total Energy =                       -417.8789803929365689
  Basis Set: (AUG-CC-PVTZ AUX)
    Blend: AUG-CC-PVTZ-RI
    Molecular point group: c1

    Geometry (in Angstrom), charge = -1, multiplicity = 1:

       Center              X                  Y                   Z               Mass
    ------------   -----------------  -----------------  -----------------  -----------------
         O            2.296065318848     1.145774468067     0.029722174735    15.994914619570
         O            2.296066318848    -1.145774531933     0.029690174735    15.994914619570
         C            0.215794718848     0.000003668067    -0.270296825265    12.000000000000
         C           -0.499817681152    -1.203674531933     0.029628174735    12.000000000000
         C           -0.499818681152     1.203673468067     0.029857174735    12.000000000000
         C           -1.896232681152    -1.207333531933     0.029693174735    12.000000000000
         C           -1.896234681152     1.207332468067     0.029930174735    12.000000000000
         C           -2.602716681152    -0.000000531933     0.029847174735    12.000000000000
         C            1.764727318848    -0.000000531933     0.029635174735    12.000000000000
         H            0.079969318848    -2.123392531933     0.029521174735     1.007825032230
         H            0.079968318848     2.123391468067     0.029906174735     1.007825032230
         H           -2.440410681152    -2.152219531933     0.029625174735     1.007825032230
         H           -2.440412681152     2.152218468067     0.030053174735     1.007825032230
         H           -3.692452681152    -0.000002531933     0.029902174735     1.007825032230

  Basis Set: AUG-CC-PVTZ
    Blend: AUG-CC-PVTZ
  Basis Set: (AUG-CC-PVTZ AUX)
    Blend: AUG-CC-PVTZ-JKFIT
	 Reference Energy          =    -417.8789803929366258 [Eh]
	 Singles Energy            =      -0.0000000000000000 [Eh]
	 Same-Spin Energy          =      -0.4446072539262278 [Eh]
	 Opposite-Spin Energy      =      -1.3240400887890433 [Eh]
	 Correlation Energy        =      -1.7686473427152711 [Eh]
	 Total Energy              =    -419.6476277356518949 [Eh]

	 ================> DF-SCS-MP2 Energies <==================
	-----------------------------------------------------------
	 SCS Same-Spin Scale       =       0.3333333333333333 [-]
	 SCS Opposite-Spin Scale   =       1.2000000000000000 [-]
	 SCS Same-Spin Energy      =      -0.1482024179754093 [Eh]
	 SCS Opposite-Spin Energy  =      -1.5888481065468520 [Eh]
	 SCS Correlation Energy    =      -1.7370505245222614 [Eh]
	 SCS Total Energy          =    -419.6160309174588861 [Eh]
	-----------------------------------------------------------

  Dipole Moment: [D]
     X:    -8.5284      Y:    -0.0000      Z:    -0.1573     Total:     8.5299

*** Psi4 exiting successfully. Buy a developer a beer!
