                               Psi4 1.3.2 release

  ==> Input File <==

--------------------------------------------------------------------------
#psi4
#
memory 32 gb

molecule  {
-1 1
  O        2.3621300     1.1457750    -0.0000250
  O        2.3621310    -1.1457740    -0.0000570
  C        0.2818591     0.0000007    -0.0500440
  C       -0.4337530    -1.2036740    -0.0001190
  C       -0.4337540     1.2036740     0.0001100
  C       -1.8301680    -1.2073330    -0.0000540
  C       -1.8301700     1.2073330     0.0001830
  C       -2.5366520     0.0000000     0.0001000
  C        1.8307920     0.0000000    -0.0001120
  H        0.1460340    -2.1233920    -0.0002260
  H        0.1460330     2.1233920     0.0001590
  H       -2.3743460    -2.1522190    -0.0001220
  H       -2.3743480     2.1522190     0.0003060
  H       -3.6263880    -0.0000020     0.0001550
units angstrom
no_reorient  #important for SAPT in psi4, default
symmetry c1  #important for SAPT in psi4, default
}

set PROPERTIES_ORIGIN ["COM"]
properties('MP2/aug-cc-pvtz', properties = ['dipole'])
--------------------------------------------------------------------------

    Molecular point group: c1
  Charge       = -1
  Multiplicity = 1
  Basis Set: AUG-CC-PVTZ
    Blend: AUG-CC-PVTZ
  Basis Set: (AUG-CC-PVTZ AUX)
    Blend: AUG-CC-PVTZ-JKFIT

    Orbital Energies [Eh]
    ---------------------

    Doubly Occupied:

       1A    -20.309508     2A    -20.309475     3A    -11.159094
       4A    -11.117187     5A    -11.111869     6A    -11.111723
       7A    -11.098434     8A    -11.098353     9A    -11.090173
      10A     -1.179941    11A     -1.083225    12A     -1.015946
      13A     -0.882188    14A     -0.880949    15A     -0.700982
      16A     -0.690493    17A     -0.592426    18A     -0.544487
      19A     -0.490030    20A     -0.482620    21A     -0.456390
      22A     -0.454217    23A     -0.408700    24A     -0.391418
      25A     -0.378454    26A     -0.351929    27A     -0.351606
      28A     -0.229242    29A     -0.221835    30A     -0.213740
      31A     -0.202346    32A     -0.197174

  @DF-RHF Final Energy:  -417.90727151502870

   => Energetics <=

    Nuclear Repulsion Energy =            390.7380168428450133
    One-Electron Energy =               -1355.6782672461652055
    Two-Electron Energy =                 547.0329788882914954
    Total Energy =                       -417.9072715150286967
  Basis Set: (AUG-CC-PVTZ AUX)
    Blend: AUG-CC-PVTZ-RI
    Molecular point group: c1

    Geometry (in Angstrom), charge = -1, multiplicity = 1:

       Center              X                  Y                   Z               Mass
    ------------   -----------------  -----------------  -----------------  -----------------
         O            2.296065348592     1.145774815092     0.004934717760    15.994914619570
         O            2.296066348592    -1.145774184908     0.004902717760    15.994914619570
         C            0.215794448592     0.000000515092    -0.045084282240    12.000000000000
         C           -0.499817651408    -1.203674184908     0.004840717760    12.000000000000
         C           -0.499818651408     1.203673815092     0.005069717760    12.000000000000
         C           -1.896232651408    -1.207333184908     0.004905717760    12.000000000000
         C           -1.896234651408     1.207332815092     0.005142717760    12.000000000000
         C           -2.602716651408    -0.000000184908     0.005059717760    12.000000000000
         C            1.764727348592    -0.000000184908     0.004847717760    12.000000000000
         H            0.079969348592    -2.123392184908     0.004733717760     1.007825032230
         H            0.079968348592     2.123391815092     0.005118717760     1.007825032230
         H           -2.440410651408    -2.152219184908     0.004837717760     1.007825032230
         H           -2.440412651408     2.152218815092     0.005265717760     1.007825032230
         H           -3.692452651408    -0.000002184908     0.005114717760     1.007825032230

  Basis Set: AUG-CC-PVTZ
    Blend: AUG-CC-PVTZ
  Basis Set: (AUG-CC-PVTZ AUX)
    Blend: AUG-CC-PVTZ-JKFIT
	 Reference Energy          =    -417.9072715150286967 [Eh]
	 Singles Energy            =      -0.0000000000000000 [Eh]
	 Same-Spin Energy          =      -0.4433022532813959 [Eh]
	 Opposite-Spin Energy      =      -1.3208697614250988 [Eh]
	 Correlation Energy        =      -1.7641720147064948 [Eh]
	 Total Energy              =    -419.6714435297351997 [Eh]

	 ================> DF-SCS-MP2 Energies <==================
	-----------------------------------------------------------
	 SCS Same-Spin Scale       =       0.3333333333333333 [-]
	 SCS Opposite-Spin Scale   =       1.2000000000000000 [-]
	 SCS Same-Spin Energy      =      -0.1477674177604653 [Eh]
	 SCS Opposite-Spin Energy  =      -1.5850437137101185 [Eh]
	 SCS Correlation Energy    =      -1.7328111314705839 [Eh]
	 SCS Total Energy          =    -419.6400826464993088 [Eh]
	-----------------------------------------------------------

  Dipole Moment: [D]
     X:    -8.5840      Y:    -0.0000      Z:    -0.0291     Total:     8.5840

*** Psi4 exiting successfully. Buy a developer a beer!
