                               Psi4 1.3.2 release

  ==> Input File <==

--------------------------------------------------------------------------
#psi4
#
memory 32 gb

molecule  {
-1 1
  O        2.3621300     1.1457750    -0.0000250
  O        2.3621310    -1.1457740    -0.0000570
  C        0.2818590     0.0000000    -0.0000440
  C       -0.4337530    -1.2036740    -0.0001190
  C       -0.4337540     1.2036740     0.0001100
  C       -1.8301680    -1.2073330    -0.0000540
  C       -1.8301700     1.2073330     0.0001830
  C       -2.5366520     0.0000000     0.0001000
  C        1.8307920     0.0000000    -0.0001120
  H        0.1460409    -2.1234053     0.1497740
  H        0.1460330     2.1233920     0.0001590
  H       -2.3743460    -2.1522190    -0.0001220
  H       -2.3743480     2.1522190     0.0003060
  H       -3.6263880    -0.0000020     0.0001550
units angstrom
no_reorient  #important for SAPT in psi4, default
symmetry c1  #important for SAPT in psi4, default
}

set PROPERTIES_ORIGIN ["COM"]
properties('MP2/aug-cc-pvtz', properties = ['dipole'])
--------------------------------------------------------------------------

    Molecular point group: c1
  Charge       = -1
  Multiplicity = 1
  Basis Set: AUG-CC-PVTZ
    Blend: AUG-CC-PVTZ
  Basis Set: (AUG-CC-PVTZ AUX)
    Blend: AUG-CC-PVTZ-JKFIT

    Orbital Energies [Eh]
    ---------------------

    Doubly Occupied:

       1A    -20.309486     2A    -20.309415     3A    -11.158989
       4A    -11.117195     5A    -11.112068     6A    -11.111911
       7A    -11.099177     8A    -11.098295     9A    -11.090191
      10A     -1.179930    11A     -1.083187    12A     -1.016105
      13A     -0.882364    14A     -0.880845    15A     -0.701025
      16A     -0.690186    17A     -0.592444    18A     -0.543881
      19A     -0.490291    20A     -0.482117    21A     -0.456406
      22A     -0.453703    23A     -0.408672    24A     -0.391862
      25A     -0.377937    26A     -0.353628    27A     -0.349290
      28A     -0.229219    29A     -0.221949    30A     -0.213626
      31A     -0.202325    32A     -0.197231

  @DF-RHF Final Energy:  -417.90650184524242

   => Energetics <=

    Nuclear Repulsion Energy =            390.7285395522720819
    One-Electron Energy =               -1355.6601840447847280
    Two-Electron Energy =                 547.0251426472702860
    Total Energy =                       -417.9065018452423601
  Basis Set: (AUG-CC-PVTZ AUX)
    Blend: AUG-CC-PVTZ-RI
    Molecular point group: c1

    Geometry (in Angstrom), charge = -1, multiplicity = 1:

       Center              X                  Y                   Z               Mass
    ------------   -----------------  -----------------  -----------------  -----------------
         O            2.296065301050     1.145774995247    -0.001271844617    15.994914619570
         O            2.296066301050    -1.145774004753    -0.001303844617    15.994914619570
         C            0.215794301050    -0.000000004753    -0.001290844617    12.000000000000
         C           -0.499817698950    -1.203674004753    -0.001365844617    12.000000000000
         C           -0.499818698950     1.203673995247    -0.001136844617    12.000000000000
         C           -1.896232698950    -1.207333004753    -0.001300844617    12.000000000000
         C           -1.896234698950     1.207332995247    -0.001063844617    12.000000000000
         C           -2.602716698950    -0.000000004753    -0.001146844617    12.000000000000
         C            1.764727301050    -0.000000004753    -0.001358844617    12.000000000000
         H            0.079976201050    -2.123405304753     0.148527155383     1.007825032230
         H            0.079968301050     2.123391995247    -0.001087844617     1.007825032230
         H           -2.440410698950    -2.152219004753    -0.001368844617     1.007825032230
         H           -2.440412698950     2.152218995247    -0.000940844617     1.007825032230
         H           -3.692452698950    -0.000002004753    -0.001091844617     1.007825032230

  Basis Set: AUG-CC-PVTZ
    Blend: AUG-CC-PVTZ
  Basis Set: (AUG-CC-PVTZ AUX)
    Blend: AUG-CC-PVTZ-JKFIT
	 Reference Energy          =    -417.9065018452424169 [Eh]
	 Singles Energy            =      -0.0000000000000000 [Eh]
	 Same-Spin Energy          =      -0.4433612736537006 [Eh]
	 Opposite-Spin Energy      =      -1.3210010955638052 [Eh]
	 Correlation Energy        =      -1.7643623692175059 [Eh]
	 Total Energy              =    -419.6708642144599253 [Eh]

	 ================> DF-SCS-MP2 Energies <==================
	-----------------------------------------------------------
	 SCS Same-Spin Scale       =       0.3333333333333333 [-]
	 SCS Opposite-Spin Scale   =       1.2000000000000000 [-]
	 SCS Same-Spin Energy      =      -0.1477870912179002 [Eh]
	 SCS Opposite-Spin Energy  =      -1.5852013146765662 [Eh]
	 SCS Correlation Energy    =      -1.7329884058944665 [Eh]
	 SCS Total Energy          =    -419.6394902511368628 [Eh]
	-----------------------------------------------------------

  Dipole Moment: [D]
     X:    -8.5915      Y:     0.0136      Z:     0.0922     Total:     8.5920

*** Psi4 exiting successfully. Buy a developer a beer!
