                               Psi4 1.3.2 release

  ==> Input File <==

--------------------------------------------------------------------------
#psi4
#
memory 32 gb

molecule  {
-1 1
  O        2.3621300     1.1457750    -0.0000250
  O        2.3621310    -1.1457740    -0.0000570
  C        0.2818591     0.0000014    -0.1000440
  C       -0.4337530    -1.2036740    -0.0001190
  C       -0.4337540     1.2036740     0.0001100
  C       -1.8301680    -1.2073330    -0.0000540
  C       -1.8301700     1.2073330     0.0001830
  C       -2.5366520     0.0000000     0.0001000
  C        1.8307920     0.0000000    -0.0001120
  H        0.1460340    -2.1233920    -0.0002260
  H        0.1460330     2.1233920     0.0001590
  H       -2.3743460    -2.1522190    -0.0001220
  H       -2.3743480     2.1522190     0.0003060
  H       -3.6263880    -0.0000020     0.0001550
units angstrom
no_reorient  #important for SAPT in psi4, default
symmetry c1  #important for SAPT in psi4, default
}

set PROPERTIES_ORIGIN ["COM"]
properties('MP2/aug-cc-pvtz', properties = ['dipole'])
--------------------------------------------------------------------------

    Molecular point group: c1
  Charge       = -1
  Multiplicity = 1
  Basis Set: AUG-CC-PVTZ
    Blend: AUG-CC-PVTZ
  Basis Set: (AUG-CC-PVTZ AUX)
    Blend: AUG-CC-PVTZ-JKFIT

    Orbital Energies [Eh]
    ---------------------

    Doubly Occupied:

       1A    -20.309551     2A    -20.309518     3A    -11.159373
       4A    -11.117344     5A    -11.111739     6A    -11.111599
       7A    -11.098945     8A    -11.098865     9A    -11.090695
      10A     -1.179897    11A     -1.083235    12A     -1.015665
      13A     -0.881705    14A     -0.880838    15A     -0.700769
      16A     -0.690007    17A     -0.591806    18A     -0.544436
      19A     -0.489440    20A     -0.482589    21A     -0.456200
      22A     -0.454149    23A     -0.408696    24A     -0.391133
      25A     -0.378524    26A     -0.351563    27A     -0.351380
      28A     -0.229281    29A     -0.221538    30A     -0.213588
      31A     -0.202154    32A     -0.196947

  @DF-RHF Final Energy:  -417.90486649689899

   => Energetics <=

    Nuclear Repulsion Energy =            390.6364963848579350
    One-Electron Energy =               -1355.4763880220277770
    Two-Electron Energy =                 546.9350251402707954
    Total Energy =                       -417.9048664968989897
  Basis Set: (AUG-CC-PVTZ AUX)
    Blend: AUG-CC-PVTZ-RI
    Molecular point group: c1

    Geometry (in Angstrom), charge = -1, multiplicity = 1:

       Center              X                  Y                   Z               Mass
    ------------   -----------------  -----------------  -----------------  -----------------
         O            2.296065348592     1.145774745687     0.009892209155    15.994914619570
         O            2.296066348592    -1.145774254313     0.009860209155    15.994914619570
         C            0.215794448592     0.000001145687    -0.090126790845    12.000000000000
         C           -0.499817651408    -1.203674254313     0.009798209155    12.000000000000
         C           -0.499818651408     1.203673745687     0.010027209155    12.000000000000
         C           -1.896232651408    -1.207333254313     0.009863209155    12.000000000000
         C           -1.896234651408     1.207332745687     0.010100209155    12.000000000000
         C           -2.602716651408    -0.000000254313     0.010017209155    12.000000000000
         C            1.764727348592    -0.000000254313     0.009805209155    12.000000000000
         H            0.079969348592    -2.123392254313     0.009691209155     1.007825032230
         H            0.079968348592     2.123391745687     0.010076209155     1.007825032230
         H           -2.440410651408    -2.152219254313     0.009795209155     1.007825032230
         H           -2.440412651408     2.152218745687     0.010223209155     1.007825032230
         H           -3.692452651408    -0.000002254313     0.010072209155     1.007825032230

  Basis Set: AUG-CC-PVTZ
    Blend: AUG-CC-PVTZ
  Basis Set: (AUG-CC-PVTZ AUX)
    Blend: AUG-CC-PVTZ-JKFIT
	 Reference Energy          =    -417.9048664968989897 [Eh]
	 Singles Energy            =      -0.0000000000000000 [Eh]
	 Same-Spin Energy          =      -0.4434157904240728 [Eh]
	 Opposite-Spin Energy      =      -1.3211008514186218 [Eh]
	 Correlation Energy        =      -1.7645166418426945 [Eh]
	 Total Energy              =    -419.6693831387416935 [Eh]

	 ================> DF-SCS-MP2 Energies <==================
	-----------------------------------------------------------
	 SCS Same-Spin Scale       =       0.3333333333333333 [-]
	 SCS Opposite-Spin Scale   =       1.2000000000000000 [-]
	 SCS Same-Spin Energy      =      -0.1478052634746909 [Eh]
	 SCS Opposite-Spin Energy  =      -1.5853210217023461 [Eh]
	 SCS Correlation Energy    =      -1.7331262851770370 [Eh]
	 SCS Total Energy          =    -419.6379927820760258 [Eh]
	-----------------------------------------------------------

  Dipole Moment: [D]
     X:    -8.5797      Y:    -0.0000      Z:    -0.0579     Total:     8.5799

*** Psi4 exiting successfully. Buy a developer a beer!
