                               Psi4 1.3.2 release

  ==> Input File <==

--------------------------------------------------------------------------
#psi4
#
memory 32 gb

molecule  {
-1 1
  O        2.3621300     1.1457750    -0.0000250
  O        2.3621310    -1.1457740    -0.0000570
  C        0.2818594     0.0000035    -0.2500440
  C       -0.4337530    -1.2036740    -0.0001190
  C       -0.4337540     1.2036740     0.0001100
  C       -1.8301680    -1.2073330    -0.0000540
  C       -1.8301700     1.2073330     0.0001830
  C       -2.5366520     0.0000000     0.0001000
  C        1.8307920     0.0000000    -0.0001120
  H        0.1460340    -2.1233920    -0.0002260
  H        0.1460330     2.1233920     0.0001590
  H       -2.3743460    -2.1522190    -0.0001220
  H       -2.3743480     2.1522190     0.0003060
  H       -3.6263880    -0.0000020     0.0001550
units angstrom
no_reorient  #important for SAPT in psi4, default
symmetry c1  #important for SAPT in psi4, default
}

set PROPERTIES_ORIGIN ["COM"]
properties('MP2/aug-cc-pvtz', properties = ['dipole'])
--------------------------------------------------------------------------

    Molecular point group: c1
  Charge       = -1
  Multiplicity = 1
  Basis Set: AUG-CC-PVTZ
    Blend: AUG-CC-PVTZ
  Basis Set: (AUG-CC-PVTZ AUX)
    Blend: AUG-CC-PVTZ-JKFIT

    Orbital Energies [Eh]
    ---------------------

    Doubly Occupied:

       1A    -20.309912     2A    -20.309879     3A    -11.161295
       4A    -11.118549     5A    -11.110914     6A    -11.110807
       7A    -11.102432     8A    -11.102366     9A    -11.094174
      10A     -1.179643    11A     -1.083349    12A     -1.013812
      13A     -0.880155    14A     -0.878310    15A     -0.699321
      16A     -0.686845    17A     -0.587780    18A     -0.544081
      19A     -0.485534    20A     -0.482456    21A     -0.454850
      22A     -0.453665    23A     -0.408713    24A     -0.389272
      25A     -0.378984    26A     -0.349881    27A     -0.348891
      28A     -0.229567    29A     -0.219584    30A     -0.212779
      31A     -0.200726    32A     -0.195360

  @DF-RHF Final Energy:  -417.88790890996722

   => Energetics <=

    Nuclear Repulsion Energy =            389.9381692547185025
    One-Electron Energy =               -1354.0843874658082768
    Two-Electron Energy =                 546.2583093011224946
    Total Energy =                       -417.8879089099672228
  Basis Set: (AUG-CC-PVTZ AUX)
    Blend: AUG-CC-PVTZ-RI
    Molecular point group: c1

    Geometry (in Angstrom), charge = -1, multiplicity = 1:

       Center              X                  Y                   Z               Mass
    ------------   -----------------  -----------------  -----------------  -----------------
         O            2.296065318848     1.145774537472     0.024764683340    15.994914619570
         O            2.296066318848    -1.145774462528     0.024732683340    15.994914619570
         C            0.215794718848     0.000003037472    -0.225254316660    12.000000000000
         C           -0.499817681152    -1.203674462528     0.024670683340    12.000000000000
         C           -0.499818681152     1.203673537472     0.024899683340    12.000000000000
         C           -1.896232681152    -1.207333462528     0.024735683340    12.000000000000
         C           -1.896234681152     1.207332537472     0.024972683340    12.000000000000
         C           -2.602716681152    -0.000000462528     0.024889683340    12.000000000000
         C            1.764727318848    -0.000000462528     0.024677683340    12.000000000000
         H            0.079969318848    -2.123392462528     0.024563683340     1.007825032230
         H            0.079968318848     2.123391537472     0.024948683340     1.007825032230
         H           -2.440410681152    -2.152219462528     0.024667683340     1.007825032230
         H           -2.440412681152     2.152218537472     0.025095683340     1.007825032230
         H           -3.692452681152    -0.000002462528     0.024944683340     1.007825032230

  Basis Set: AUG-CC-PVTZ
    Blend: AUG-CC-PVTZ
  Basis Set: (AUG-CC-PVTZ AUX)
    Blend: AUG-CC-PVTZ-JKFIT
	 Reference Energy          =    -417.8879089099672228 [Eh]
	 Singles Energy            =      -0.0000000000000000 [Eh]
	 Same-Spin Energy          =      -0.4441934371009981 [Eh]
	 Opposite-Spin Energy      =      -1.3229689244524636 [Eh]
	 Correlation Energy        =      -1.7671623615534617 [Eh]
	 Total Energy              =    -419.6550712715206828 [Eh]

	 ================> DF-SCS-MP2 Energies <==================
	-----------------------------------------------------------
	 SCS Same-Spin Scale       =       0.3333333333333333 [-]
	 SCS Opposite-Spin Scale   =       1.2000000000000000 [-]
	 SCS Same-Spin Energy      =      -0.1480644790336660 [Eh]
	 SCS Opposite-Spin Energy  =      -1.5875627093429563 [Eh]
	 SCS Correlation Energy    =      -1.7356271883766223 [Eh]
	 SCS Total Energy          =    -419.6235360983438341 [Eh]
	-----------------------------------------------------------

  Dipole Moment: [D]
     X:    -8.5478      Y:    -0.0000      Z:    -0.1356     Total:     8.5488

*** Psi4 exiting successfully. Buy a developer a beer!
