                               Psi4 1.3.2 release

  ==> Input File <==

--------------------------------------------------------------------------
#psi4
#
memory 32 gb

molecule  {
-1 1
  O        2.3621300     1.1457750    -0.0000250
  O        2.3621310    -1.1457740    -0.0000570
  C        0.2818590     0.0000000    -0.0000440
  C       -0.4337530    -1.2036740    -0.0001190
  C       -0.4337540     1.2036740     0.0001100
  C       -1.8301680    -1.2073330    -0.0000540
  C       -1.8301700     1.2073330     0.0001830
  C       -2.5366520     0.0000000     0.0001000
  C        1.8307920     0.0000000    -0.0001120
  H        0.1460340    -2.1233920    -0.0002260
  H        0.1460330     2.1233920     0.0001590
  H       -2.3743460    -2.1522190    -0.0001220
  H       -2.3743480     2.1522190     0.0003060
  H       -3.6263729    -0.0000314     0.3001550
units angstrom
no_reorient  #important for SAPT in psi4, default
symmetry c1  #important for SAPT in psi4, default
}

set PROPERTIES_ORIGIN ["COM"]
properties('MP2/aug-cc-pvtz', properties = ['dipole'])
--------------------------------------------------------------------------

    Molecular point group: c1
  Charge       = -1
  Multiplicity = 1
  Basis Set: AUG-CC-PVTZ
    Blend: AUG-CC-PVTZ
  Basis Set: (AUG-CC-PVTZ AUX)
    Blend: AUG-CC-PVTZ-JKFIT

    Orbital Energies [Eh]
    ---------------------

    Doubly Occupied:

       1A    -20.310075     2A    -20.310042     3A    -11.159614
       4A    -11.120764     5A    -11.112809     6A    -11.112706
       7A    -11.098704     8A    -11.098614     9A    -11.091139
      10A     -1.180535    11A     -1.083789    12A     -1.016388
      13A     -0.881585    14A     -0.881551    15A     -0.698785
      16A     -0.691171    17A     -0.592968    18A     -0.538727
      19A     -0.490758    20A     -0.483183    21A     -0.454806
      22A     -0.454265    23A     -0.409246    24A     -0.393644
      25A     -0.376469    26A     -0.352633    27A     -0.348812
      28A     -0.229787    29A     -0.222587    30A     -0.214303
      31A     -0.202904    32A     -0.197233

  @DF-RHF Final Energy:  -417.90204581204216

   => Energetics <=

    Nuclear Repulsion Energy =            390.6239596763325608
    One-Electron Energy =               -1355.4308202218862789
    Two-Electron Energy =                 546.9048147335115573
    Total Energy =                       -417.9020458120421608
  Basis Set: (AUG-CC-PVTZ AUX)
    Blend: AUG-CC-PVTZ-RI
    Molecular point group: c1

    Geometry (in Angstrom), charge = -1, multiplicity = 1:

       Center              X                  Y                   Z               Mass
    ------------   -----------------  -----------------  -----------------  -----------------
         O            2.296065232768     1.145775129314    -0.002520915598    15.994914619570
         O            2.296066232768    -1.145773870686    -0.002552915598    15.994914619570
         C            0.215794232768     0.000000129314    -0.002539915598    12.000000000000
         C           -0.499817767232    -1.203673870686    -0.002614915598    12.000000000000
         C           -0.499818767232     1.203674129314    -0.002385915598    12.000000000000
         C           -1.896232767232    -1.207332870686    -0.002549915598    12.000000000000
         C           -1.896234767232     1.207333129314    -0.002312915598    12.000000000000
         C           -2.602716767232     0.000000129314    -0.002395915598    12.000000000000
         C            1.764727232768     0.000000129314    -0.002607915598    12.000000000000
         H            0.079969232768    -2.123391870686    -0.002721915598     1.007825032230
         H            0.079968232768     2.123392129314    -0.002336915598     1.007825032230
         H           -2.440410767232    -2.152218870686    -0.002617915598     1.007825032230
         H           -2.440412767232     2.152219129314    -0.002189915598     1.007825032230
         H           -3.692437667232    -0.000031270686     0.297659084402     1.007825032230

  Basis Set: AUG-CC-PVTZ
    Blend: AUG-CC-PVTZ
  Basis Set: (AUG-CC-PVTZ AUX)
    Blend: AUG-CC-PVTZ-JKFIT
	 Reference Energy          =    -417.9020458120421608 [Eh]
	 Singles Energy            =      -0.0000000000000000 [Eh]
	 Same-Spin Energy          =      -0.4435690205713073 [Eh]
	 Opposite-Spin Energy      =      -1.3216280115076193 [Eh]
	 Correlation Energy        =      -1.7651970320789268 [Eh]
	 Total Energy              =    -419.6672428441210627 [Eh]

	 ================> DF-SCS-MP2 Energies <==================
	-----------------------------------------------------------
	 SCS Same-Spin Scale       =       0.3333333333333333 [-]
	 SCS Opposite-Spin Scale   =       1.2000000000000000 [-]
	 SCS Same-Spin Energy      =      -0.1478563401904358 [Eh]
	 SCS Opposite-Spin Energy  =      -1.5859536138091432 [Eh]
	 SCS Correlation Energy    =      -1.7338099539995790 [Eh]
	 SCS Total Energy          =    -419.6358557660417432 [Eh]
	-----------------------------------------------------------

  Dipole Moment: [D]
     X:    -8.4727      Y:    -0.0000      Z:     0.1994     Total:     8.4751

*** Psi4 exiting successfully. Buy a developer a beer!
