                               Psi4 1.3.2 release

  ==> Input File <==

--------------------------------------------------------------------------
#psi4
#
memory 32 gb

molecule  {
-1 1
  O        2.3621300     1.1457750    -0.0000250
  O        2.3621310    -1.1457740    -0.0000570
  C        0.2818590     0.0000000    -0.0000440
  C       -0.4337530    -1.2036740    -0.0001190
  C       -0.4337540     1.2036740     0.0001100
  C       -1.8301680    -1.2073330    -0.0000540
  C       -1.8301700     1.2073330     0.0001830
  C       -2.5366520     0.0000000     0.0001000
  C        1.8307849     0.0000143    -0.1501120
  H        0.1460340    -2.1233920    -0.0002260
  H        0.1460330     2.1233920     0.0001590
  H       -2.3743460    -2.1522190    -0.0001220
  H       -2.3743480     2.1522190     0.0003060
  H       -3.6263880    -0.0000020     0.0001550
units angstrom
no_reorient  #important for SAPT in psi4, default
symmetry c1  #important for SAPT in psi4, default
}

set PROPERTIES_ORIGIN ["COM"]
properties('MP2/aug-cc-pvtz', properties = ['dipole'])
--------------------------------------------------------------------------

    Molecular point group: c1
  Charge       = -1
  Multiplicity = 1
  Basis Set: AUG-CC-PVTZ
    Blend: AUG-CC-PVTZ
  Basis Set: (AUG-CC-PVTZ AUX)
    Blend: AUG-CC-PVTZ-JKFIT

    Orbital Energies [Eh]
    ---------------------

    Doubly Occupied:

       1A    -20.311000     2A    -20.310967     3A    -11.162400
       4A    -11.116976     5A    -11.111945     6A    -11.111791
       7A    -11.098198     8A    -11.098090     9A    -11.091793
      10A     -1.176158    11A     -1.078102    12A     -1.015977
      13A     -0.882004    14A     -0.880961    15A     -0.700282
      16A     -0.690650    17A     -0.592108    18A     -0.544648
      19A     -0.490121    20A     -0.482819    21A     -0.454726
      22A     -0.454200    23A     -0.406113    24A     -0.390346
      25A     -0.377264    26A     -0.351993    27A     -0.350224
      28A     -0.228633    29A     -0.222530    30A     -0.212492
      31A     -0.201279    32A     -0.195374

  @DF-RHF Final Energy:  -417.89576325910031

   => Energetics <=

    Nuclear Repulsion Energy =            390.3937717245997305
    One-Electron Energy =               -1354.9947391575776692
    Two-Electron Energy =                 546.7052041738777461
    Total Energy =                       -417.8957632591002493
  Basis Set: (AUG-CC-PVTZ AUX)
    Blend: AUG-CC-PVTZ-RI
    Molecular point group: c1

    Geometry (in Angstrom), charge = -1, multiplicity = 1:

       Center              X                  Y                   Z               Mass
    ------------   -----------------  -----------------  -----------------  -----------------
         O            2.296066062471     1.145773466654     0.014849700550    15.994914619570
         O            2.296067062471    -1.145775533346     0.014817700550    15.994914619570
         C            0.215795062471    -0.000001533346     0.014830700550    12.000000000000
         C           -0.499816937529    -1.203675533346     0.014755700550    12.000000000000
         C           -0.499817937529     1.203672466654     0.014984700550    12.000000000000
         C           -1.896231937529    -1.207334533346     0.014820700550    12.000000000000
         C           -1.896233937529     1.207331466654     0.015057700550    12.000000000000
         C           -2.602715937529    -0.000001533346     0.014974700550    12.000000000000
         C            1.764720962471     0.000012766654    -0.135237299450    12.000000000000
         H            0.079970062471    -2.123393533346     0.014648700550     1.007825032230
         H            0.079969062471     2.123390466654     0.015033700550     1.007825032230
         H           -2.440409937529    -2.152220533346     0.014752700550     1.007825032230
         H           -2.440411937529     2.152217466654     0.015180700550     1.007825032230
         H           -3.692451937529    -0.000003533346     0.015029700550     1.007825032230

  Basis Set: AUG-CC-PVTZ
    Blend: AUG-CC-PVTZ
  Basis Set: (AUG-CC-PVTZ AUX)
    Blend: AUG-CC-PVTZ-JKFIT
	 Reference Energy          =    -417.8957632591003062 [Eh]
	 Singles Energy            =      -0.0000000000000000 [Eh]
	 Same-Spin Energy          =      -0.4441512444128267 [Eh]
	 Opposite-Spin Energy      =      -1.3228364148178937 [Eh]
	 Correlation Energy        =      -1.7669876592307205 [Eh]
	 Total Energy              =    -419.6627509183310281 [Eh]

	 ================> DF-SCS-MP2 Energies <==================
	-----------------------------------------------------------
	 SCS Same-Spin Scale       =       0.3333333333333333 [-]
	 SCS Opposite-Spin Scale   =       1.2000000000000000 [-]
	 SCS Same-Spin Energy      =      -0.1480504148042756 [Eh]
	 SCS Opposite-Spin Energy  =      -1.5874036977814725 [Eh]
	 SCS Correlation Energy    =      -1.7354541125857481 [Eh]
	 SCS Total Energy          =    -419.6312173716860343 [Eh]
	-----------------------------------------------------------

  Dipole Moment: [D]
     X:    -8.5756      Y:     0.0001      Z:    -0.1240     Total:     8.5765

*** Psi4 exiting successfully. Buy a developer a beer!
