                               Psi4 1.3.2 release

  ==> Input File <==

--------------------------------------------------------------------------
#psi4
#
memory 32 gb

molecule  {
-1 1
  O        2.3621300     1.1457750    -0.0000250
  O        2.3621310    -1.1457740    -0.0000570
  C        0.2818590     0.0000000    -0.0000440
  C       -0.4337530    -1.2036740    -0.0001190
  C       -0.4337540     1.2036740     0.0001100
  C       -1.8301680    -1.2073330    -0.0000540
  C       -1.8301700     1.2073330     0.0001830
  C       -2.5366520     0.0000000     0.0001000
  C        1.8307920     0.0000000    -0.0001120
  H        0.1460340    -2.1233920    -0.0002260
  H        0.1460330     2.1233920     0.0001590
  H       -2.3743460    -2.1522190    -0.0001220
  H       -2.3743480     2.1522190     0.0003060
  H       -3.6263880    -0.0000020     0.0001550
units angstrom
no_reorient  #important for SAPT in psi4, default
symmetry c1  #important for SAPT in psi4, default
}

set PROPERTIES_ORIGIN ["COM"]
properties('MP2/aug-cc-pvtz', properties = ['dipole'])
--------------------------------------------------------------------------

    Molecular point group: c1
  Charge       = -1
  Multiplicity = 1
  Basis Set: AUG-CC-PVTZ
    Blend: AUG-CC-PVTZ
  Basis Set: (AUG-CC-PVTZ AUX)
    Blend: AUG-CC-PVTZ-JKFIT

    Orbital Energies [Eh]
    ---------------------

    Doubly Occupied:

       1A    -20.309495     2A    -20.309462     3A    -11.159002
       4A    -11.117138     5A    -11.111917     6A    -11.111768
       7A    -11.098266     8A    -11.098184     9A    -11.090001
      10A     -1.179957    11A     -1.083223    12A     -1.016044
      13A     -0.882352    14A     -0.880989    15A     -0.701056
      16A     -0.690659    17A     -0.592637    18A     -0.544505
      19A     -0.490232    20A     -0.482633    21A     -0.456454
      22A     -0.454242    23A     -0.408702    24A     -0.391514
      25A     -0.378432    26A     -0.352053    27A     -0.351683
      28A     -0.229230    29A     -0.221936    30A     -0.213794
      31A     -0.202411    32A     -0.197253

  @DF-RHF Final Energy:  -417.90807018746716

   => Energetics <=

    Nuclear Repulsion Energy =            390.7719782450647585
    One-Electron Energy =               -1355.7456446145531572
    Two-Electron Energy =                 547.0655961820212951
    Total Energy =                       -417.9080701874671604
  Basis Set: (AUG-CC-PVTZ AUX)
    Blend: AUG-CC-PVTZ-RI
    Molecular point group: c1

    Geometry (in Angstrom), charge = -1, multiplicity = 1:

       Center              X                  Y                   Z               Mass
    ------------   -----------------  -----------------  -----------------  -----------------
         O            2.296065358507     1.145774884497    -0.000022773635    15.994914619570
         O            2.296066358507    -1.145774115503    -0.000054773635    15.994914619570
         C            0.215794358507    -0.000000115503    -0.000041773635    12.000000000000
         C           -0.499817641493    -1.203674115503    -0.000116773635    12.000000000000
         C           -0.499818641493     1.203673884497     0.000112226365    12.000000000000
         C           -1.896232641493    -1.207333115503    -0.000051773635    12.000000000000
         C           -1.896234641493     1.207332884497     0.000185226365    12.000000000000
         C           -2.602716641493    -0.000000115503     0.000102226365    12.000000000000
         C            1.764727358507    -0.000000115503    -0.000109773635    12.000000000000
         H            0.079969358507    -2.123392115503    -0.000223773635     1.007825032230
         H            0.079968358507     2.123391884497     0.000161226365     1.007825032230
         H           -2.440410641493    -2.152219115503    -0.000119773635     1.007825032230
         H           -2.440412641493     2.152218884497     0.000308226365     1.007825032230
         H           -3.692452641493    -0.000002115503     0.000157226365     1.007825032230

  Basis Set: AUG-CC-PVTZ
    Blend: AUG-CC-PVTZ
  Basis Set: (AUG-CC-PVTZ AUX)
    Blend: AUG-CC-PVTZ-JKFIT
	 Reference Energy          =    -417.9080701874671604 [Eh]
	 Singles Energy            =      -0.0000000000000000 [Eh]
	 Same-Spin Energy          =      -0.4432610088039070 [Eh]
	 Opposite-Spin Energy      =      -1.3208032811464787 [Eh]
	 Correlation Energy        =      -1.7640642899503858 [Eh]
	 Total Energy              =    -419.6721344774175577 [Eh]

	 ================> DF-SCS-MP2 Energies <==================
	-----------------------------------------------------------
	 SCS Same-Spin Scale       =       0.3333333333333333 [-]
	 SCS Opposite-Spin Scale   =       1.2000000000000000 [-]
	 SCS Same-Spin Energy      =      -0.1477536696013023 [Eh]
	 SCS Opposite-Spin Energy  =      -1.5849639373757745 [Eh]
	 SCS Correlation Energy    =      -1.7327176069770767 [Eh]
	 SCS Total Energy          =    -419.6407877944442362 [Eh]
	-----------------------------------------------------------

  Dipole Moment: [D]
     X:    -8.5855      Y:    -0.0000      Z:     0.0001     Total:     8.5855

*** Psi4 exiting successfully. Buy a developer a beer!
