                               Psi4 1.3.2 release

  ==> Input File <==

--------------------------------------------------------------------------
#psi4
#
memory 32 gb

molecule  {
-1 1
  O        2.3621300     1.1457750    -0.0000250
  O        2.3621310    -1.1457740    -0.0000570
  C        0.2818590     0.0000000    -0.0000440
  C       -0.4337530    -1.2036740    -0.0001190
  C       -0.4337540     1.2036740     0.0001100
  C       -1.8301680    -1.2073330    -0.0000540
  C       -1.8301700     1.2073330     0.0001830
  C       -2.5366520     0.0000000     0.0001000
  C        1.8307920     0.0000000    -0.0001120
  H        0.1460340    -2.1233920    -0.0002260
  H        0.1460330     2.1233920     0.0001590
  H       -2.3743460    -2.1522190    -0.0001220
  H       -2.3743480     2.1522190     0.0003060
  H       -3.6263779    -0.0000216     0.2001550
units angstrom
no_reorient  #important for SAPT in psi4, default
symmetry c1  #important for SAPT in psi4, default
}

set PROPERTIES_ORIGIN ["COM"]
properties('MP2/aug-cc-pvtz', properties = ['dipole'])
--------------------------------------------------------------------------

    Molecular point group: c1
  Charge       = -1
  Multiplicity = 1
  Basis Set: AUG-CC-PVTZ
    Blend: AUG-CC-PVTZ
  Basis Set: (AUG-CC-PVTZ AUX)
    Blend: AUG-CC-PVTZ-JKFIT

    Orbital Energies [Eh]
    ---------------------

    Doubly Occupied:

       1A    -20.309753     2A    -20.309721     3A    -11.159274
       4A    -11.118763     5A    -11.112308     6A    -11.112184
       7A    -11.098455     8A    -11.098369     9A    -11.090509
      10A     -1.180215    11A     -1.083475    12A     -1.016187
      13A     -0.881962    14A     -0.881249    15A     -0.699972
      16A     -0.690882    17A     -0.592765    18A     -0.541827
      19A     -0.490460    20A     -0.482875    21A     -0.455493
      22A     -0.454488    23A     -0.408943    24A     -0.392568
      25A     -0.377453    26A     -0.352307    27A     -0.350415
      28A     -0.229478    29A     -0.222226    30A     -0.214019
      31A     -0.202628    32A     -0.197233

  @DF-RHF Final Energy:  -417.90554866774801

   => Energetics <=

    Nuclear Repulsion Energy =            390.7046537578823973
    One-Electron Energy =               -1355.6034919719768368
    Two-Electron Energy =                 546.9932895463464320
    Total Energy =                       -417.9055486677480076
  Basis Set: (AUG-CC-PVTZ AUX)
    Blend: AUG-CC-PVTZ-RI
    Molecular point group: c1

    Geometry (in Angstrom), charge = -1, multiplicity = 1:

       Center              X                  Y                   Z               Mass
    ------------   -----------------  -----------------  -----------------  -----------------
         O            2.296065274403     1.145775047708    -0.001688201610    15.994914619570
         O            2.296066274403    -1.145773952292    -0.001720201610    15.994914619570
         C            0.215794274403     0.000000047708    -0.001707201610    12.000000000000
         C           -0.499817725597    -1.203673952292    -0.001782201610    12.000000000000
         C           -0.499818725597     1.203674047708    -0.001553201610    12.000000000000
         C           -1.896232725597    -1.207332952292    -0.001717201610    12.000000000000
         C           -1.896234725597     1.207333047708    -0.001480201610    12.000000000000
         C           -2.602716725597     0.000000047708    -0.001563201610    12.000000000000
         C            1.764727274403     0.000000047708    -0.001775201610    12.000000000000
         H            0.079969274403    -2.123391952292    -0.001889201610     1.007825032230
         H            0.079968274403     2.123392047708    -0.001504201610     1.007825032230
         H           -2.440410725597    -2.152218952292    -0.001785201610     1.007825032230
         H           -2.440412725597     2.152219047708    -0.001357201610     1.007825032230
         H           -3.692442625597    -0.000021552292     0.198491798390     1.007825032230

  Basis Set: AUG-CC-PVTZ
    Blend: AUG-CC-PVTZ
  Basis Set: (AUG-CC-PVTZ AUX)
    Blend: AUG-CC-PVTZ-JKFIT
	 Reference Energy          =    -417.9055486677480076 [Eh]
	 Singles Energy            =      -0.0000000000000000 [Eh]
	 Same-Spin Energy          =      -0.4434025368593865 [Eh]
	 Opposite-Spin Energy      =      -1.3211535488249648 [Eh]
	 Correlation Energy        =      -1.7645560856843514 [Eh]
	 Total Energy              =    -419.6701047534323834 [Eh]

	 ================> DF-SCS-MP2 Energies <==================
	-----------------------------------------------------------
	 SCS Same-Spin Scale       =       0.3333333333333333 [-]
	 SCS Opposite-Spin Scale   =       1.2000000000000000 [-]
	 SCS Same-Spin Energy      =      -0.1478008456197955 [Eh]
	 SCS Opposite-Spin Energy  =      -1.5853842585899578 [Eh]
	 SCS Correlation Energy    =      -1.7331851042097532 [Eh]
	 SCS Total Energy          =    -419.6387337719577886 [Eh]
	-----------------------------------------------------------

  Dipole Moment: [D]
     X:    -8.5346      Y:    -0.0000      Z:     0.1363     Total:     8.5356

*** Psi4 exiting successfully. Buy a developer a beer!
