                               Psi4 1.3.2 release

  ==> Input File <==

--------------------------------------------------------------------------
#psi4
#
memory 32 gb

molecule  {
-1 1
  O        2.3621300     1.1457750    -0.0000250
  O        2.3621310    -1.1457740    -0.0000570
  C        0.2818590     0.0000000    -0.0000440
  C       -0.4337530    -1.2036740    -0.0001190
  C       -0.4337540     1.2036740     0.0001100
  C       -1.8301680    -1.2073330    -0.0000540
  C       -1.8301700     1.2073330     0.0001830
  C       -2.5366520     0.0000000     0.0001000
  C        1.8307920     0.0000000    -0.0001120
  H        0.1460340    -2.1233920    -0.0002260
  H        0.1460330     2.1233920     0.0001590
  H       -2.3743319    -2.1522489     0.2998780
  H       -2.3743480     2.1522190     0.0003060
  H       -3.6263880    -0.0000020     0.0001550
units angstrom
no_reorient  #important for SAPT in psi4, default
symmetry c1  #important for SAPT in psi4, default
}

set PROPERTIES_ORIGIN ["COM"]
properties('MP2/aug-cc-pvtz', properties = ['dipole'])
--------------------------------------------------------------------------

    Molecular point group: c1
  Charge       = -1
  Multiplicity = 1
  Basis Set: AUG-CC-PVTZ
    Blend: AUG-CC-PVTZ
  Basis Set: (AUG-CC-PVTZ AUX)
    Blend: AUG-CC-PVTZ-JKFIT

    Orbital Energies [Eh]
    ---------------------

    Doubly Occupied:

       1A    -20.309850     2A    -20.309793     3A    -11.159377
       4A    -11.118099     5A    -11.115550     6A    -11.112338
       7A    -11.099308     8A    -11.099177     9A    -11.090452
      10A     -1.180307    11A     -1.083569    12A     -1.016461
      13A     -0.882821    14A     -0.880324    15A     -0.701154
      16A     -0.689195    17A     -0.589714    18A     -0.545069
      19A     -0.490799    20A     -0.480050    21A     -0.456882
      22A     -0.451183    23A     -0.409006    24A     -0.392052
      25A     -0.378524    26A     -0.356832    27A     -0.345099
      28A     -0.229577    29A     -0.222574    30A     -0.213755
      31A     -0.202426    32A     -0.197601

  @DF-RHF Final Energy:  -417.90197193280397

   => Energetics <=

    Nuclear Repulsion Energy =            390.6225685567061987
    One-Electron Energy =               -1355.4312396475888818
    Two-Electron Energy =                 546.9066991580787089
    Total Energy =                       -417.9019719328039173
  Basis Set: (AUG-CC-PVTZ AUX)
    Blend: AUG-CC-PVTZ-RI
    Molecular point group: c1

    Geometry (in Angstrom), charge = -1, multiplicity = 1:

       Center              X                  Y                   Z               Mass
    ------------   -----------------  -----------------  -----------------  -----------------
         O            2.296065241095     1.145775133478    -0.002520915598    15.994914619570
         O            2.296066241095    -1.145773866522    -0.002552915598    15.994914619570
         C            0.215794241095     0.000000133478    -0.002539915598    12.000000000000
         C           -0.499817758905    -1.203673866522    -0.002614915598    12.000000000000
         C           -0.499818758905     1.203674133478    -0.002385915598    12.000000000000
         C           -1.896232758905    -1.207332866522    -0.002549915598    12.000000000000
         C           -1.896234758905     1.207333133478    -0.002312915598    12.000000000000
         C           -2.602716758905     0.000000133478    -0.002395915598    12.000000000000
         C            1.764727241095     0.000000133478    -0.002607915598    12.000000000000
         H            0.079969241095    -2.123391866522    -0.002721915598     1.007825032230
         H            0.079968241095     2.123392133478    -0.002336915598     1.007825032230
         H           -2.440396658905    -2.152248766522     0.297382084402     1.007825032230
         H           -2.440412758905     2.152219133478    -0.002189915598     1.007825032230
         H           -3.692452758905    -0.000001866522    -0.002340915598     1.007825032230

  Basis Set: AUG-CC-PVTZ
    Blend: AUG-CC-PVTZ
  Basis Set: (AUG-CC-PVTZ AUX)
    Blend: AUG-CC-PVTZ-JKFIT
	 Reference Energy          =    -417.9019719328039741 [Eh]
	 Singles Energy            =      -0.0000000000000000 [Eh]
	 Same-Spin Energy          =      -0.4435472912045233 [Eh]
	 Opposite-Spin Energy      =      -1.3215687474489628 [Eh]
	 Correlation Energy        =      -1.7651160386534861 [Eh]
	 Total Energy              =    -419.6670879714574767 [Eh]

	 ================> DF-SCS-MP2 Energies <==================
	-----------------------------------------------------------
	 SCS Same-Spin Scale       =       0.3333333333333333 [-]
	 SCS Opposite-Spin Scale   =       1.2000000000000000 [-]
	 SCS Same-Spin Energy      =      -0.1478490970681744 [Eh]
	 SCS Opposite-Spin Energy  =      -1.5858824969387553 [Eh]
	 SCS Correlation Energy    =      -1.7337315940069298 [Eh]
	 SCS Total Energy          =    -419.6357035268109144 [Eh]
	-----------------------------------------------------------

  Dipole Moment: [D]
     X:    -8.5252      Y:     0.0841      Z:     0.1888     Total:     8.5277

*** Psi4 exiting successfully. Buy a developer a beer!
