                               Psi4 1.3.2 release

  ==> Input File <==

--------------------------------------------------------------------------
#psi4
#
memory 32 gb

molecule  {
-1 1
  O        2.3621300     1.1457750    -0.0000250
  O        2.3621310    -1.1457740    -0.0000570
  C        0.2818590     0.0000000    -0.0000440
  C       -0.4337530    -1.2036740    -0.0001190
  C       -0.4337540     1.2036740     0.0001100
  C       -1.8301680    -1.2073330    -0.0000540
  C       -1.8301700     1.2073330     0.0001830
  C       -2.5366520     0.0000000     0.0001000
  C        1.8307920     0.0000000    -0.0001120
  H        0.1460432    -2.1234097     0.1997740
  H        0.1460330     2.1233920     0.0001590
  H       -2.3743460    -2.1522190    -0.0001220
  H       -2.3743480     2.1522190     0.0003060
  H       -3.6263880    -0.0000020     0.0001550
units angstrom
no_reorient  #important for SAPT in psi4, default
symmetry c1  #important for SAPT in psi4, default
}

set PROPERTIES_ORIGIN ["COM"]
properties('MP2/aug-cc-pvtz', properties = ['dipole'])
--------------------------------------------------------------------------

    Molecular point group: c1
  Charge       = -1
  Multiplicity = 1
  Basis Set: AUG-CC-PVTZ
    Blend: AUG-CC-PVTZ
  Basis Set: (AUG-CC-PVTZ AUX)
    Blend: AUG-CC-PVTZ-JKFIT

    Orbital Energies [Eh]
    ---------------------

    Doubly Occupied:

       1A    -20.309488     2A    -20.309371     3A    -11.158979
       4A    -11.117242     5A    -11.112190     6A    -11.112022
       7A    -11.099907     8A    -11.098354     9A    -11.090339
      10A     -1.179910    11A     -1.083160    12A     -1.016154
      13A     -0.882393    14A     -0.880725    15A     -0.701012
      16A     -0.689832    17A     -0.592309    18A     -0.543418
      19A     -0.490342    20A     -0.481734    21A     -0.456384
      22A     -0.453260    23A     -0.408648    24A     -0.392109
      25A     -0.377586    26A     -0.354064    27A     -0.348206
      28A     -0.229209    29A     -0.221959    30A     -0.213500
      31A     -0.202263    32A     -0.197214

  @DF-RHF Final Energy:  -417.90522159304817

   => Energetics <=

    Nuclear Repulsion Energy =            390.6953374989366807
    One-Electron Energy =               -1355.5945516496562959
    Two-Electron Energy =                 546.9939925576715041
    Total Energy =                       -417.9052215930481680
  Basis Set: (AUG-CC-PVTZ AUX)
    Blend: AUG-CC-PVTZ-RI
    Molecular point group: c1

    Geometry (in Angstrom), charge = -1, multiplicity = 1:

       Center              X                  Y                   Z               Mass
    ------------   -----------------  -----------------  -----------------  -----------------
         O            2.296065281898     1.145775031887    -0.001688201610    15.994914619570
         O            2.296066281898    -1.145773968113    -0.001720201610    15.994914619570
         C            0.215794281898     0.000000031887    -0.001707201610    12.000000000000
         C           -0.499817718102    -1.203673968113    -0.001782201610    12.000000000000
         C           -0.499818718102     1.203674031887    -0.001553201610    12.000000000000
         C           -1.896232718102    -1.207332968113    -0.001717201610    12.000000000000
         C           -1.896234718102     1.207333031887    -0.001480201610    12.000000000000
         C           -2.602716718102     0.000000031887    -0.001563201610    12.000000000000
         C            1.764727281898     0.000000031887    -0.001775201610    12.000000000000
         H            0.079978481898    -2.123409668113     0.198110798390     1.007825032230
         H            0.079968281898     2.123392031887    -0.001504201610     1.007825032230
         H           -2.440410718102    -2.152218968113    -0.001785201610     1.007825032230
         H           -2.440412718102     2.152219031887    -0.001357201610     1.007825032230
         H           -3.692452718102    -0.000001968113    -0.001508201610     1.007825032230

  Basis Set: AUG-CC-PVTZ
    Blend: AUG-CC-PVTZ
  Basis Set: (AUG-CC-PVTZ AUX)
    Blend: AUG-CC-PVTZ-JKFIT
	 Reference Energy          =    -417.9052215930481680 [Eh]
	 Singles Energy            =      -0.0000000000000000 [Eh]
	 Same-Spin Energy          =      -0.4434377381636162 [Eh]
	 Opposite-Spin Energy      =      -1.3211622433417425 [Eh]
	 Correlation Energy        =      -1.7645999815053588 [Eh]
	 Total Energy              =    -419.6698215745535094 [Eh]

	 ================> DF-SCS-MP2 Energies <==================
	-----------------------------------------------------------
	 SCS Same-Spin Scale       =       0.3333333333333333 [-]
	 SCS Opposite-Spin Scale   =       1.2000000000000000 [-]
	 SCS Same-Spin Energy      =      -0.1478125793878721 [Eh]
	 SCS Opposite-Spin Energy  =      -1.5853946920100910 [Eh]
	 SCS Correlation Energy    =      -1.7332072713979629 [Eh]
	 SCS Total Energy          =    -419.6384288644461549 [Eh]
	-----------------------------------------------------------

  Dipole Moment: [D]
     X:    -8.5961      Y:     0.0241      Z:     0.1222     Total:     8.5970

*** Psi4 exiting successfully. Buy a developer a beer!
