                               Psi4 1.3.2 release

  ==> Input File <==

--------------------------------------------------------------------------
#psi4
#
memory 32 gb

molecule  {
-1 1
  O        2.3621300     1.1457750    -0.0000250
  O        2.3621310    -1.1457740    -0.0000570
  C        0.2818590     0.0000000    -0.0000440
  C       -0.4337530    -1.2036740    -0.0001190
  C       -0.4337540     1.2036740     0.0001100
  C       -1.8301680    -1.2073330    -0.0000540
  C       -1.8301700     1.2073330     0.0001830
  C       -2.5366520     0.0000000     0.0001000
  C        1.8307920     0.0000000    -0.0001120
  H        0.1460340    -2.1233920    -0.0002260
  H        0.1460330     2.1233920     0.0001590
  H       -2.3743342    -2.1522439     0.2498780
  H       -2.3743480     2.1522190     0.0003060
  H       -3.6263880    -0.0000020     0.0001550
units angstrom
no_reorient  #important for SAPT in psi4, default
symmetry c1  #important for SAPT in psi4, default
}

set PROPERTIES_ORIGIN ["COM"]
properties('MP2/aug-cc-pvtz', properties = ['dipole'])
--------------------------------------------------------------------------

    Molecular point group: c1
  Charge       = -1
  Multiplicity = 1
  Basis Set: AUG-CC-PVTZ
    Blend: AUG-CC-PVTZ
  Basis Set: (AUG-CC-PVTZ AUX)
    Blend: AUG-CC-PVTZ-JKFIT

    Orbital Energies [Eh]
    ---------------------

    Doubly Occupied:

       1A    -20.309739     2A    -20.309693     3A    -11.159261
       4A    -11.117789     5A    -11.114451     6A    -11.112182
       7A    -11.098987     8A    -11.098876     9A    -11.090310
      10A     -1.180199    11A     -1.083462    12A     -1.016328
      13A     -0.882653    14A     -0.880522    15A     -0.701097
      16A     -0.689608    17A     -0.590540    18A     -0.544896
      19A     -0.490621    20A     -0.480747    21A     -0.456747
      22A     -0.452177    23A     -0.408915    24A     -0.391886
      25A     -0.378495    26A     -0.356103    27A     -0.346386
      28A     -0.229470    29A     -0.222384    30A     -0.213756
      31A     -0.202413    32A     -0.197495

  @DF-RHF Final Energy:  -417.90396233307308

   => Energetics <=

    Nuclear Repulsion Energy =            390.6669194806427754
    One-Electron Energy =               -1355.5253832290713945
    Two-Electron Energy =                 546.9545014153555940
    Total Energy =                       -417.9039623330730819
  Basis Set: (AUG-CC-PVTZ AUX)
    Blend: AUG-CC-PVTZ-RI
    Molecular point group: c1

    Geometry (in Angstrom), charge = -1, multiplicity = 1:

       Center              X                  Y                   Z               Mass
    ------------   -----------------  -----------------  -----------------  -----------------
         O            2.296065260247     1.145775091842    -0.002104558604    15.994914619570
         O            2.296066260247    -1.145773908158    -0.002136558604    15.994914619570
         C            0.215794260247     0.000000091842    -0.002123558604    12.000000000000
         C           -0.499817739753    -1.203673908158    -0.002198558604    12.000000000000
         C           -0.499818739753     1.203674091842    -0.001969558604    12.000000000000
         C           -1.896232739753    -1.207332908158    -0.002133558604    12.000000000000
         C           -1.896234739753     1.207333091842    -0.001896558604    12.000000000000
         C           -2.602716739753     0.000000091842    -0.001979558604    12.000000000000
         C            1.764727260247     0.000000091842    -0.002191558604    12.000000000000
         H            0.079969260247    -2.123391908158    -0.002305558604     1.007825032230
         H            0.079968260247     2.123392091842    -0.001920558604     1.007825032230
         H           -2.440398939753    -2.152243808158     0.247798441396     1.007825032230
         H           -2.440412739753     2.152219091842    -0.001773558604     1.007825032230
         H           -3.692452739753    -0.000001908158    -0.001924558604     1.007825032230

  Basis Set: AUG-CC-PVTZ
    Blend: AUG-CC-PVTZ
  Basis Set: (AUG-CC-PVTZ AUX)
    Blend: AUG-CC-PVTZ-JKFIT
	 Reference Energy          =    -417.9039623330730819 [Eh]
	 Singles Energy            =      -0.0000000000000000 [Eh]
	 Same-Spin Energy          =      -0.4434632001034821 [Eh]
	 Opposite-Spin Energy      =      -1.3213270027758524 [Eh]
	 Correlation Energy        =      -1.7647902028793345 [Eh]
	 Total Energy              =    -419.6687525359524216 [Eh]

	 ================> DF-SCS-MP2 Energies <==================
	-----------------------------------------------------------
	 SCS Same-Spin Scale       =       0.3333333333333333 [-]
	 SCS Opposite-Spin Scale   =       1.2000000000000000 [-]
	 SCS Same-Spin Energy      =      -0.1478210667011607 [Eh]
	 SCS Opposite-Spin Energy  =      -1.5855924033310227 [Eh]
	 SCS Correlation Energy    =      -1.7334134700321835 [Eh]
	 SCS Total Energy          =    -419.6373758031052716 [Eh]
	-----------------------------------------------------------

  Dipole Moment: [D]
     X:    -8.5434      Y:     0.0588      Z:     0.1595     Total:     8.5450

*** Psi4 exiting successfully. Buy a developer a beer!
