                               Psi4 1.3.2 release

  ==> Input File <==

--------------------------------------------------------------------------
#psi4
#
memory 32 gb

molecule  {
-1 1
  O        2.3621300     1.1457750    -0.0000250
  O        2.3621310    -1.1457740    -0.0000570
  C        0.2818593     0.0000028    -0.2000440
  C       -0.4337530    -1.2036740    -0.0001190
  C       -0.4337540     1.2036740     0.0001100
  C       -1.8301680    -1.2073330    -0.0000540
  C       -1.8301700     1.2073330     0.0001830
  C       -2.5366520     0.0000000     0.0001000
  C        1.8307920     0.0000000    -0.0001120
  H        0.1460340    -2.1233920    -0.0002260
  H        0.1460330     2.1233920     0.0001590
  H       -2.3743460    -2.1522190    -0.0001220
  H       -2.3743480     2.1522190     0.0003060
  H       -3.6263880    -0.0000020     0.0001550
units angstrom
no_reorient  #important for SAPT in psi4, default
symmetry c1  #important for SAPT in psi4, default
}

set PROPERTIES_ORIGIN ["COM"]
properties('MP2/aug-cc-pvtz', properties = ['dipole'])
--------------------------------------------------------------------------

    Molecular point group: c1
  Charge       = -1
  Multiplicity = 1
  Basis Set: AUG-CC-PVTZ
    Blend: AUG-CC-PVTZ
  Basis Set: (AUG-CC-PVTZ AUX)
    Blend: AUG-CC-PVTZ-JKFIT

    Orbital Energies [Eh]
    ---------------------

    Doubly Occupied:

       1A    -20.309746     2A    -20.309713     3A    -11.160480
       4A    -11.118019     5A    -11.111255     6A    -11.111137
       7A    -11.100964     8A    -11.100893     9A    -11.092728
      10A     -1.179743    11A     -1.083292    12A     -1.014588
      13A     -0.880436    14A     -0.879775    15A     -0.699938
      16A     -0.688157    17A     -0.589444    18A     -0.544239
      19A     -0.487163    20A     -0.482502    21A     -0.455437
      22A     -0.453881    23A     -0.408699    24A     -0.390042
      25A     -0.378798    26A     -0.350509    27A     -0.350065
      28A     -0.229442    29A     -0.220393    30A     -0.213078
      31A     -0.201359    32A     -0.196049

  @DF-RHF Final Energy:  -417.89519540919167

   => Energetics <=

    Nuclear Repulsion Energy =            390.2348676591412300
    One-Electron Energy =               -1354.6761996728066606
    Two-Electron Energy =                 546.5461366044738725
    Total Energy =                       -417.8951954091916150
  Basis Set: (AUG-CC-PVTZ AUX)
    Blend: AUG-CC-PVTZ-RI
    Molecular point group: c1

    Geometry (in Angstrom), charge = -1, multiplicity = 1:

       Center              X                  Y                   Z               Mass
    ------------   -----------------  -----------------  -----------------  -----------------
         O            2.296065328762     1.145774606877     0.019807191945    15.994914619570
         O            2.296066328762    -1.145774393123     0.019775191945    15.994914619570
         C            0.215794628762     0.000002406877    -0.180211808055    12.000000000000
         C           -0.499817671238    -1.203674393123     0.019713191945    12.000000000000
         C           -0.499818671238     1.203673606877     0.019942191945    12.000000000000
         C           -1.896232671238    -1.207333393123     0.019778191945    12.000000000000
         C           -1.896234671238     1.207332606877     0.020015191945    12.000000000000
         C           -2.602716671238    -0.000000393123     0.019932191945    12.000000000000
         C            1.764727328762    -0.000000393123     0.019720191945    12.000000000000
         H            0.079969328762    -2.123392393123     0.019606191945     1.007825032230
         H            0.079968328762     2.123391606877     0.019991191945     1.007825032230
         H           -2.440410671238    -2.152219393123     0.019710191945     1.007825032230
         H           -2.440412671238     2.152218606877     0.020138191945     1.007825032230
         H           -3.692452671238    -0.000002393123     0.019987191945     1.007825032230

  Basis Set: AUG-CC-PVTZ
    Blend: AUG-CC-PVTZ
  Basis Set: (AUG-CC-PVTZ AUX)
    Blend: AUG-CC-PVTZ-JKFIT
	 Reference Energy          =    -417.8951954091916718 [Eh]
	 Singles Energy            =      -0.0000000000000000 [Eh]
	 Same-Spin Energy          =      -0.4438582367904340 [Eh]
	 Opposite-Spin Energy      =      -1.3221341942812186 [Eh]
	 Correlation Energy        =      -1.7659924310716526 [Eh]
	 Total Energy              =    -419.6611878402633238 [Eh]

	 ================> DF-SCS-MP2 Energies <==================
	-----------------------------------------------------------
	 SCS Same-Spin Scale       =       0.3333333333333333 [-]
	 SCS Opposite-Spin Scale   =       1.2000000000000000 [-]
	 SCS Same-Spin Energy      =      -0.1479527455968113 [Eh]
	 SCS Opposite-Spin Energy  =      -1.5865610331374622 [Eh]
	 SCS Correlation Energy    =      -1.7345137787342735 [Eh]
	 SCS Total Energy          =    -419.6297091879259256 [Eh]
	-----------------------------------------------------------

  Dipole Moment: [D]
     X:    -8.5622      Y:    -0.0000      Z:    -0.1116     Total:     8.5629

*** Psi4 exiting successfully. Buy a developer a beer!
