                               Psi4 1.3.2 release

  ==> Input File <==

--------------------------------------------------------------------------
#psi4
#
memory 32 gb

molecule  {
-1 1
  O        2.3621300     1.1457750    -0.0000250
  O        2.3621310    -1.1457740    -0.0000570
  C        0.2818590     0.0000000    -0.0000440
  C       -0.4337530    -1.2036740    -0.0001190
  C       -0.4337540     1.2036740     0.0001100
  C       -1.8301680    -1.2073330    -0.0000540
  C       -1.8301700     1.2073330     0.0001830
  C       -2.5366520     0.0000000     0.0001000
  C        1.8307825     0.0000190    -0.2001120
  H        0.1460340    -2.1233920    -0.0002260
  H        0.1460330     2.1233920     0.0001590
  H       -2.3743460    -2.1522190    -0.0001220
  H       -2.3743480     2.1522190     0.0003060
  H       -3.6263880    -0.0000020     0.0001550
units angstrom
no_reorient  #important for SAPT in psi4, default
symmetry c1  #important for SAPT in psi4, default
}

set PROPERTIES_ORIGIN ["COM"]
properties('MP2/aug-cc-pvtz', properties = ['dipole'])
--------------------------------------------------------------------------

    Molecular point group: c1
  Charge       = -1
  Multiplicity = 1
  Basis Set: AUG-CC-PVTZ
    Blend: AUG-CC-PVTZ
  Basis Set: (AUG-CC-PVTZ AUX)
    Blend: AUG-CC-PVTZ-JKFIT

    Orbital Energies [Eh]
    ---------------------

    Doubly Occupied:

       1A    -20.312158     2A    -20.312125     3A    -11.164917
       4A    -11.116854     5A    -11.111968     6A    -11.111810
       7A    -11.098164     8A    -11.098022     9A    -11.093152
      10A     -1.173227    11A     -1.074266    12A     -1.015927
      13A     -0.881743    14A     -0.880941    15A     -0.699701
      16A     -0.690644    17A     -0.591710    18A     -0.544761
      19A     -0.490042    20A     -0.482962    21A     -0.454170
      22A     -0.453398    23A     -0.404109    24A     -0.389577
      25A     -0.376286    26A     -0.351937    27A     -0.349079
      28A     -0.228169    29A     -0.222926    30A     -0.211711
      31A     -0.200268    32A     -0.194028

  @DF-RHF Final Energy:  -417.88619472677863

   => Energetics <=

    Nuclear Repulsion Energy =            390.1044586498083504
    One-Electron Energy =               -1354.4198031275334415
    Two-Electron Energy =                 546.4291497509465216
    Total Energy =                       -417.8861947267786263
  Basis Set: (AUG-CC-PVTZ AUX)
    Blend: AUG-CC-PVTZ-RI
    Molecular point group: c1

    Geometry (in Angstrom), charge = -1, multiplicity = 1:

       Center              X                  Y                   Z               Mass
    ------------   -----------------  -----------------  -----------------  -----------------
         O            2.296066300431     1.145773000650     0.019807191945    15.994914619570
         O            2.296067300431    -1.145775999350     0.019775191945    15.994914619570
         C            0.215795300431    -0.000001999350     0.019788191945    12.000000000000
         C           -0.499816699569    -1.203675999350     0.019713191945    12.000000000000
         C           -0.499817699569     1.203672000650     0.019942191945    12.000000000000
         C           -1.896231699569    -1.207334999350     0.019778191945    12.000000000000
         C           -1.896233699569     1.207331000650     0.020015191945    12.000000000000
         C           -2.602715699569    -0.000001999350     0.019932191945    12.000000000000
         C            1.764718800431     0.000017000650    -0.180279808055    12.000000000000
         H            0.079970300431    -2.123393999350     0.019606191945     1.007825032230
         H            0.079969300431     2.123390000650     0.019991191945     1.007825032230
         H           -2.440409699569    -2.152220999350     0.019710191945     1.007825032230
         H           -2.440411699569     2.152217000650     0.020138191945     1.007825032230
         H           -3.692451699569    -0.000003999350     0.019987191945     1.007825032230

  Basis Set: AUG-CC-PVTZ
    Blend: AUG-CC-PVTZ
  Basis Set: (AUG-CC-PVTZ AUX)
    Blend: AUG-CC-PVTZ-JKFIT
	 Reference Energy          =    -417.8861947267786263 [Eh]
	 Singles Energy            =      -0.0000000000000000 [Eh]
	 Same-Spin Energy          =      -0.4448422887494912 [Eh]
	 Opposite-Spin Energy      =      -1.3245272938631487 [Eh]
	 Correlation Energy        =      -1.7693695826126399 [Eh]
	 Total Energy              =    -419.6555643093912522 [Eh]

	 ================> DF-SCS-MP2 Energies <==================
	-----------------------------------------------------------
	 SCS Same-Spin Scale       =       0.3333333333333333 [-]
	 SCS Opposite-Spin Scale   =       1.2000000000000000 [-]
	 SCS Same-Spin Energy      =      -0.1482807629164971 [Eh]
	 SCS Opposite-Spin Energy  =      -1.5894327526357783 [Eh]
	 SCS Correlation Energy    =      -1.7377135155522754 [Eh]
	 SCS Total Energy          =    -419.6239082423309128 [Eh]
	-----------------------------------------------------------

  Dipole Moment: [D]
     X:    -8.5685      Y:     0.0001      Z:    -0.1595     Total:     8.5700

*** Psi4 exiting successfully. Buy a developer a beer!
