                               Psi4 1.3.2 release

  ==> Input File <==

--------------------------------------------------------------------------
#psi4
#
memory 32 gb

molecule  {
-1 1
  O        2.3621300     1.1457750    -0.0000250
  O        2.3621310    -1.1457740    -0.0000570
  C        0.2818590     0.0000000    -0.0000440
  C       -0.4337530    -1.2036740    -0.0001190
  C       -0.4337540     1.2036740     0.0001100
  C       -1.8301680    -1.2073330    -0.0000540
  C       -1.8301700     1.2073330     0.0001830
  C       -2.5366520     0.0000000     0.0001000
  C        1.8307920     0.0000000    -0.0001120
  H        0.1460340    -2.1233920    -0.0002260
  H        0.1460330     2.1233920     0.0001590
  H       -2.3743436    -2.1522240     0.0498780
  H       -2.3743480     2.1522190     0.0003060
  H       -3.6263880    -0.0000020     0.0001550
units angstrom
no_reorient  #important for SAPT in psi4, default
symmetry c1  #important for SAPT in psi4, default
}

set PROPERTIES_ORIGIN ["COM"]
properties('MP2/aug-cc-pvtz', properties = ['dipole'])
--------------------------------------------------------------------------

    Molecular point group: c1
  Charge       = -1
  Multiplicity = 1
  Basis Set: AUG-CC-PVTZ
    Blend: AUG-CC-PVTZ
  Basis Set: (AUG-CC-PVTZ AUX)
    Blend: AUG-CC-PVTZ-JKFIT

    Orbital Energies [Eh]
    ---------------------

    Doubly Occupied:

       1A    -20.309504     2A    -20.309471     3A    -11.159012
       4A    -11.117163     5A    -11.111990     6A    -11.111814
       7A    -11.098294     8A    -11.098212     9A    -11.090013
      10A     -1.179967    11A     -1.083232    12A     -1.016055
      13A     -0.882359    14A     -0.880972    15A     -0.701054
      16A     -0.690614    17A     -0.592547    18A     -0.544521
      19A     -0.490246    20A     -0.482549    21A     -0.456465
      22A     -0.454165    23A     -0.408711    24A     -0.391528
      25A     -0.378434    26A     -0.352819    27A     -0.350868
      28A     -0.229240    29A     -0.221954    30A     -0.213791
      31A     -0.202410    32A     -0.197262

  @DF-RHF Final Energy:  -417.90791890522030

   => Energetics <=

    Nuclear Repulsion Energy =            390.7676559375668148
    One-Electron Energy =               -1355.7366757635395516
    Two-Electron Energy =                 547.0611009207524376
    Total Energy =                       -417.9079189052202992
  Basis Set: (AUG-CC-PVTZ AUX)
    Blend: AUG-CC-PVTZ-RI
    Molecular point group: c1

    Geometry (in Angstrom), charge = -1, multiplicity = 1:

       Center              X                  Y                   Z               Mass
    ------------   -----------------  -----------------  -----------------  -----------------
         O            2.296065338522     1.145774926132    -0.000439130629    15.994914619570
         O            2.296066338522    -1.145774073868    -0.000471130629    15.994914619570
         C            0.215794338522    -0.000000073868    -0.000458130629    12.000000000000
         C           -0.499817661478    -1.203674073868    -0.000533130629    12.000000000000
         C           -0.499818661478     1.203673926132    -0.000304130629    12.000000000000
         C           -1.896232661478    -1.207333073868    -0.000468130629    12.000000000000
         C           -1.896234661478     1.207332926132    -0.000231130629    12.000000000000
         C           -2.602716661478    -0.000000073868    -0.000314130629    12.000000000000
         C            1.764727338522    -0.000000073868    -0.000526130629    12.000000000000
         H            0.079969338522    -2.123392073868    -0.000640130629     1.007825032230
         H            0.079968338522     2.123391926132    -0.000255130629     1.007825032230
         H           -2.440408261478    -2.152224073868     0.049463869371     1.007825032230
         H           -2.440412661478     2.152218926132    -0.000108130629     1.007825032230
         H           -3.692452661478    -0.000002073868    -0.000259130629     1.007825032230

  Basis Set: AUG-CC-PVTZ
    Blend: AUG-CC-PVTZ
  Basis Set: (AUG-CC-PVTZ AUX)
    Blend: AUG-CC-PVTZ-JKFIT
	 Reference Energy          =    -417.9079189052202992 [Eh]
	 Singles Energy            =      -0.0000000000000000 [Eh]
	 Same-Spin Energy          =      -0.4432695394130145 [Eh]
	 Opposite-Spin Energy      =      -1.3208222750384899 [Eh]
	 Correlation Energy        =      -1.7640918144515045 [Eh]
	 Total Energy              =    -419.6720107196717890 [Eh]

	 ================> DF-SCS-MP2 Energies <==================
	-----------------------------------------------------------
	 SCS Same-Spin Scale       =       0.3333333333333333 [-]
	 SCS Opposite-Spin Scale   =       1.2000000000000000 [-]
	 SCS Same-Spin Energy      =      -0.1477565131376715 [Eh]
	 SCS Opposite-Spin Energy  =      -1.5849867300461880 [Eh]
	 SCS Correlation Energy    =      -1.7327432431838594 [Eh]
	 SCS Total Energy          =    -419.6406621484041466 [Eh]
	-----------------------------------------------------------

  Dipole Moment: [D]
     X:    -8.5837      Y:     0.0024      Z:     0.0329     Total:     8.5838

*** Psi4 exiting successfully. Buy a developer a beer!
