                               Psi4 1.3.2 release

  ==> Input File <==

--------------------------------------------------------------------------
#psi4
#
memory 32 gb

molecule  {
-1 1
  O        2.3621300     1.1457750    -0.0000250
  O        2.3621310    -1.1457740    -0.0000570
  C        0.2818590     0.0000000    -0.0000440
  C       -0.4337530    -1.2036740    -0.0001190
  C       -0.4337540     1.2036740     0.0001100
  C       -1.8301680    -1.2073330    -0.0000540
  C       -1.8301700     1.2073330     0.0001830
  C       -2.5366520     0.0000000     0.0001000
  C        1.8307920     0.0000000    -0.0001120
  H        0.1460340    -2.1233920    -0.0002260
  H        0.1460330     2.1233920     0.0001590
  H       -2.3743366    -2.1522389     0.1998780
  H       -2.3743480     2.1522190     0.0003060
  H       -3.6263880    -0.0000020     0.0001550
units angstrom
no_reorient  #important for SAPT in psi4, default
symmetry c1  #important for SAPT in psi4, default
}

set PROPERTIES_ORIGIN ["COM"]
properties('MP2/aug-cc-pvtz', properties = ['dipole'])
--------------------------------------------------------------------------

    Molecular point group: c1
  Charge       = -1
  Multiplicity = 1
  Basis Set: AUG-CC-PVTZ
    Blend: AUG-CC-PVTZ
  Basis Set: (AUG-CC-PVTZ AUX)
    Blend: AUG-CC-PVTZ-JKFIT

    Orbital Energies [Eh]
    ---------------------

    Doubly Occupied:

       1A    -20.309649     2A    -20.309610     3A    -11.159167
       4A    -11.117547     5A    -11.113527     6A    -11.112055
       7A    -11.098724     8A    -11.098629     9A    -11.090196
      10A     -1.180112    11A     -1.083375    12A     -1.016222
      13A     -0.882526    14A     -0.880691    15A     -0.701066
      16A     -0.689968    17A     -0.591259    18A     -0.544755
      19A     -0.490477    20A     -0.481377    21A     -0.456638
      22A     -0.452953    23A     -0.408839    24A     -0.391751
      25A     -0.378472    26A     -0.355339    27A     -0.347602
      28A     -0.229383    29A     -0.222225    30A     -0.213763
      31A     -0.202408    32A     -0.197407

  @DF-RHF Final Energy:  -417.90551365340156

   => Energetics <=

    Nuclear Repulsion Energy =            390.7040371433980113
    One-Electron Energy =               -1355.6036760343797596
    Two-Electron Energy =                 546.9941252375801923
    Total Energy =                       -417.9055136534016128
  Basis Set: (AUG-CC-PVTZ AUX)
    Blend: AUG-CC-PVTZ-RI
    Molecular point group: c1

    Geometry (in Angstrom), charge = -1, multiplicity = 1:

       Center              X                  Y                   Z               Mass
    ------------   -----------------  -----------------  -----------------  -----------------
         O            2.296065280232     1.145775050207    -0.001688201610    15.994914619570
         O            2.296066280232    -1.145773949793    -0.001720201610    15.994914619570
         C            0.215794280232     0.000000050207    -0.001707201610    12.000000000000
         C           -0.499817719768    -1.203673949793    -0.001782201610    12.000000000000
         C           -0.499818719768     1.203674050207    -0.001553201610    12.000000000000
         C           -1.896232719768    -1.207332949793    -0.001717201610    12.000000000000
         C           -1.896234719768     1.207333050207    -0.001480201610    12.000000000000
         C           -2.602716719768     0.000000050207    -0.001563201610    12.000000000000
         C            1.764727280232     0.000000050207    -0.001775201610    12.000000000000
         H            0.079969280232    -2.123391949793    -0.001889201610     1.007825032230
         H            0.079968280232     2.123392050207    -0.001504201610     1.007825032230
         H           -2.440401319768    -2.152238849793     0.198214798390     1.007825032230
         H           -2.440412719768     2.152219050207    -0.001357201610     1.007825032230
         H           -3.692452719768    -0.000001949793    -0.001508201610     1.007825032230

  Basis Set: AUG-CC-PVTZ
    Blend: AUG-CC-PVTZ
  Basis Set: (AUG-CC-PVTZ AUX)
    Blend: AUG-CC-PVTZ-JKFIT
	 Reference Energy          =    -417.9055136534015560 [Eh]
	 Singles Energy            =      -0.0000000000000000 [Eh]
	 Same-Spin Energy          =      -0.4433924590432181 [Eh]
	 Opposite-Spin Energy      =      -1.3211320526593253 [Eh]
	 Correlation Energy        =      -1.7645245117025434 [Eh]
	 Total Energy              =    -419.6700381651040743 [Eh]

	 ================> DF-SCS-MP2 Energies <==================
	-----------------------------------------------------------
	 SCS Same-Spin Scale       =       0.3333333333333333 [-]
	 SCS Opposite-Spin Scale   =       1.2000000000000000 [-]
	 SCS Same-Spin Energy      =      -0.1477974863477394 [Eh]
	 SCS Opposite-Spin Energy  =      -1.5853584631911903 [Eh]
	 SCS Correlation Energy    =      -1.7331559495389297 [Eh]
	 SCS Total Energy          =    -419.6386696029404675 [Eh]
	-----------------------------------------------------------

  Dipole Moment: [D]
     X:    -8.5583      Y:     0.0379      Z:     0.1290     Total:     8.5594

*** Psi4 exiting successfully. Buy a developer a beer!
