                               Psi4 1.3.2 release

  ==> Input File <==

--------------------------------------------------------------------------
#psi4
#
memory 32 gb

molecule  {
-1 1
  O        2.3621300     1.1457750    -0.0000250
  O        2.3621310    -1.1457740    -0.0000570
  C        0.2818590     0.0000000    -0.0000440
  C       -0.4337530    -1.2036740    -0.0001190
  C       -0.4337540     1.2036740     0.0001100
  C       -1.8301680    -1.2073330    -0.0000540
  C       -1.8301700     1.2073330     0.0001830
  C       -2.5366520     0.0000000     0.0001000
  C        1.8307896     0.0000048    -0.0501120
  H        0.1460340    -2.1233920    -0.0002260
  H        0.1460330     2.1233920     0.0001590
  H       -2.3743460    -2.1522190    -0.0001220
  H       -2.3743480     2.1522190     0.0003060
  H       -3.6263880    -0.0000020     0.0001550
units angstrom
no_reorient  #important for SAPT in psi4, default
symmetry c1  #important for SAPT in psi4, default
}

set PROPERTIES_ORIGIN ["COM"]
properties('MP2/aug-cc-pvtz', properties = ['dipole'])
--------------------------------------------------------------------------

    Molecular point group: c1
  Charge       = -1
  Multiplicity = 1
  Basis Set: AUG-CC-PVTZ
    Blend: AUG-CC-PVTZ
  Basis Set: (AUG-CC-PVTZ AUX)
    Blend: AUG-CC-PVTZ-JKFIT

    Orbital Energies [Eh]
    ---------------------

    Doubly Occupied:

       1A    -20.309663     2A    -20.309630     3A    -11.159390
       4A    -11.117120     5A    -11.111920     6A    -11.111770
       7A    -11.098258     8A    -11.098173     9A    -11.090203
      10A     -1.179533    11A     -1.082642    12A     -1.016037
      13A     -0.882312    14A     -0.880986    15A     -0.700968
      16A     -0.690658    17A     -0.592578    18A     -0.544521
      19A     -0.490219    20A     -0.482654    21A     -0.456261
      22A     -0.454238    23A     -0.408413    24A     -0.391373
      25A     -0.378308    26A     -0.352047    27A     -0.351522
      28A     -0.229164    29A     -0.222008    30A     -0.213631
      31A     -0.202295    32A     -0.197034

  @DF-RHF Final Energy:  -417.90670064706313

   => Energetics <=

    Nuclear Repulsion Energy =            390.7295341740677941
    One-Electron Energy =               -1355.6614106479566999
    Two-Electron Energy =                 547.0251758268258300
    Total Energy =                       -417.9067006470630758
  Basis Set: (AUG-CC-PVTZ AUX)
    Blend: AUG-CC-PVTZ-RI
    Molecular point group: c1

    Geometry (in Angstrom), charge = -1, multiplicity = 1:

       Center              X                  Y                   Z               Mass
    ------------   -----------------  -----------------  -----------------  -----------------
         O            2.296065596467     1.145774408577     0.004934717760    15.994914619570
         O            2.296066596467    -1.145774591423     0.004902717760    15.994914619570
         C            0.215794596467    -0.000000591423     0.004915717760    12.000000000000
         C           -0.499817403533    -1.203674591423     0.004840717760    12.000000000000
         C           -0.499818403533     1.203673408577     0.005069717760    12.000000000000
         C           -1.896232403533    -1.207333591423     0.004905717760    12.000000000000
         C           -1.896234403533     1.207332408577     0.005142717760    12.000000000000
         C           -2.602716403533    -0.000000591423     0.005059717760    12.000000000000
         C            1.764725196467     0.000004208577    -0.045152282240    12.000000000000
         H            0.079969596467    -2.123392591423     0.004733717760     1.007825032230
         H            0.079968596467     2.123391408577     0.005118717760     1.007825032230
         H           -2.440410403533    -2.152219591423     0.004837717760     1.007825032230
         H           -2.440412403533     2.152218408577     0.005265717760     1.007825032230
         H           -3.692452403533    -0.000002591423     0.005114717760     1.007825032230

  Basis Set: AUG-CC-PVTZ
    Blend: AUG-CC-PVTZ
  Basis Set: (AUG-CC-PVTZ AUX)
    Blend: AUG-CC-PVTZ-JKFIT
	 Reference Energy          =    -417.9067006470631327 [Eh]
	 Singles Energy            =      -0.0000000000000000 [Eh]
	 Same-Spin Energy          =      -0.4433600815289915 [Eh]
	 Opposite-Spin Energy      =      -1.3210141367077513 [Eh]
	 Correlation Energy        =      -1.7643742182367428 [Eh]
	 Total Energy              =    -419.6710748652998859 [Eh]

	 ================> DF-SCS-MP2 Energies <==================
	-----------------------------------------------------------
	 SCS Same-Spin Scale       =       0.3333333333333333 [-]
	 SCS Opposite-Spin Scale   =       1.2000000000000000 [-]
	 SCS Same-Spin Energy      =      -0.1477866938429972 [Eh]
	 SCS Opposite-Spin Energy  =      -1.5852169640493015 [Eh]
	 SCS Correlation Energy    =      -1.7330036578922987 [Eh]
	 SCS Total Energy          =    -419.6397043049554441 [Eh]
	-----------------------------------------------------------

  Dipole Moment: [D]
     X:    -8.5843      Y:     0.0000      Z:    -0.0430     Total:     8.5844

*** Psi4 exiting successfully. Buy a developer a beer!
