                               Psi4 1.3.2 release

  ==> Input File <==

--------------------------------------------------------------------------
#psi4
#
memory 32 gb

molecule  {
-1 1
  O        2.3621300     1.1457750    -0.0000250
  O        2.3621310    -1.1457740    -0.0000570
  C        0.2818590     0.0000000    -0.0000440
  C       -0.4337530    -1.2036740    -0.0001190
  C       -0.4337540     1.2036740     0.0001100
  C       -1.8301680    -1.2073330    -0.0000540
  C       -1.8301700     1.2073330     0.0001830
  C       -2.5366520     0.0000000     0.0001000
  C        1.8307801     0.0000238    -0.2501120
  H        0.1460340    -2.1233920    -0.0002260
  H        0.1460330     2.1233920     0.0001590
  H       -2.3743460    -2.1522190    -0.0001220
  H       -2.3743480     2.1522190     0.0003060
  H       -3.6263880    -0.0000020     0.0001550
units angstrom
no_reorient  #important for SAPT in psi4, default
symmetry c1  #important for SAPT in psi4, default
}

set PROPERTIES_ORIGIN ["COM"]
properties('MP2/aug-cc-pvtz', properties = ['dipole'])
--------------------------------------------------------------------------

    Molecular point group: c1
  Charge       = -1
  Multiplicity = 1
  Basis Set: AUG-CC-PVTZ
    Blend: AUG-CC-PVTZ
  Basis Set: (AUG-CC-PVTZ AUX)
    Blend: AUG-CC-PVTZ-JKFIT

    Orbital Energies [Eh]
    ---------------------

    Doubly Occupied:

       1A    -20.313632     2A    -20.313598     3A    -11.168000
       4A    -11.116704     5A    -11.111999     6A    -11.111836
       7A    -11.098168     8A    -11.097943     9A    -11.094835
      10A     -1.169489    11A     -1.069513    12A     -1.015866
      13A     -0.881421    14A     -0.880919    15A     -0.698981
      16A     -0.690640    17A     -0.591219    18A     -0.544910
      19A     -0.489948    20A     -0.483142    21A     -0.454137
      22A     -0.451713    23A     -0.401544    24A     -0.388736
      25A     -0.374959    26A     -0.351854    27A     -0.347595
      28A     -0.227581    29A     -0.223375    30A     -0.210946
      31A     -0.198842    32A     -0.192419

  @DF-RHF Final Energy:  -417.87390300231141

   => Energetics <=

    Nuclear Repulsion Energy =            389.7383644824621456
    One-Electron Energy =               -1353.6916080768496613
    Two-Electron Energy =                 546.0793405920760506
    Total Energy =                       -417.8739030023114083
  Basis Set: (AUG-CC-PVTZ AUX)
    Blend: AUG-CC-PVTZ-RI
    Molecular point group: c1

    Geometry (in Angstrom), charge = -1, multiplicity = 1:

       Center              X                  Y                   Z               Mass
    ------------   -----------------  -----------------  -----------------  -----------------
         O            2.296066538390     1.145772524731     0.024764683340    15.994914619570
         O            2.296067538390    -1.145776475269     0.024732683340    15.994914619570
         C            0.215795538390    -0.000002475269     0.024745683340    12.000000000000
         C           -0.499816461610    -1.203676475269     0.024670683340    12.000000000000
         C           -0.499817461610     1.203671524731     0.024899683340    12.000000000000
         C           -1.896231461610    -1.207335475269     0.024735683340    12.000000000000
         C           -1.896233461610     1.207330524731     0.024972683340    12.000000000000
         C           -2.602715461610    -0.000002475269     0.024889683340    12.000000000000
         C            1.764716638390     0.000021324731    -0.225322316660    12.000000000000
         H            0.079970538390    -2.123394475269     0.024563683340     1.007825032230
         H            0.079969538390     2.123389524731     0.024948683340     1.007825032230
         H           -2.440409461610    -2.152221475269     0.024667683340     1.007825032230
         H           -2.440411461610     2.152216524731     0.025095683340     1.007825032230
         H           -3.692451461610    -0.000004475269     0.024944683340     1.007825032230

  Basis Set: AUG-CC-PVTZ
    Blend: AUG-CC-PVTZ
  Basis Set: (AUG-CC-PVTZ AUX)
    Blend: AUG-CC-PVTZ-JKFIT
	 Reference Energy          =    -417.8739030023114083 [Eh]
	 Singles Energy            =      -0.0000000000000000 [Eh]
	 Same-Spin Energy          =      -0.4457279115231650 [Eh]
	 Opposite-Spin Energy      =      -1.3267645382465985 [Eh]
	 Correlation Energy        =      -1.7724924497697634 [Eh]
	 Total Energy              =    -419.6463954520811512 [Eh]

	 ================> DF-SCS-MP2 Energies <==================
	-----------------------------------------------------------
	 SCS Same-Spin Scale       =       0.3333333333333333 [-]
	 SCS Opposite-Spin Scale   =       1.2000000000000000 [-]
	 SCS Same-Spin Energy      =      -0.1485759705077216 [Eh]
	 SCS Opposite-Spin Energy  =      -1.5921174458959182 [Eh]
	 SCS Correlation Energy    =      -1.7406934164036398 [Eh]
	 SCS Total Energy          =    -419.6145964187150526 [Eh]
	-----------------------------------------------------------

  Dipole Moment: [D]
     X:    -8.5604      Y:     0.0002      Z:    -0.1902     Total:     8.5625

*** Psi4 exiting successfully. Buy a developer a beer!
