                               Psi4 1.3.2 release

  ==> Input File <==

--------------------------------------------------------------------------
#psi4
#
memory 32 gb

molecule  {
-1 1
  O        2.3621300     1.1457750    -0.0000250
  O        2.3621310    -1.1457740    -0.0000570
  C        0.2818590     0.0000000    -0.0000440
  C       -0.4337530    -1.2036740    -0.0001190
  C       -0.4337540     1.2036740     0.0001100
  C       -1.8301680    -1.2073330    -0.0000540
  C       -1.8301700     1.2073330     0.0001830
  C       -2.5366520     0.0000000     0.0001000
  C        1.8307873     0.0000095    -0.1001120
  H        0.1460340    -2.1233920    -0.0002260
  H        0.1460330     2.1233920     0.0001590
  H       -2.3743460    -2.1522190    -0.0001220
  H       -2.3743480     2.1522190     0.0003060
  H       -3.6263880    -0.0000020     0.0001550
units angstrom
no_reorient  #important for SAPT in psi4, default
symmetry c1  #important for SAPT in psi4, default
}

set PROPERTIES_ORIGIN ["COM"]
properties('MP2/aug-cc-pvtz', properties = ['dipole'])
--------------------------------------------------------------------------

    Molecular point group: c1
  Charge       = -1
  Multiplicity = 1
  Basis Set: AUG-CC-PVTZ
    Blend: AUG-CC-PVTZ
  Basis Set: (AUG-CC-PVTZ AUX)
    Blend: AUG-CC-PVTZ-JKFIT

    Orbital Energies [Eh]
    ---------------------

    Doubly Occupied:

       1A    -20.310166     2A    -20.310134     3A    -11.160536
       4A    -11.117065     5A    -11.111930     6A    -11.111778
       7A    -11.098234     8A    -11.098142     9A    -11.090803
      10A     -1.178264    11A     -1.080919    12A     -1.016014
      13A     -0.882195    14A     -0.880976    15A     -0.700708
      16A     -0.690655    17A     -0.592399    18A     -0.544568
      19A     -0.490182    20A     -0.482716    21A     -0.455683
      22A     -0.454223    23A     -0.407550    24A     -0.390968
      25A     -0.377927    26A     -0.352028    27A     -0.351037
      28A     -0.228965    29A     -0.222214    30A     -0.213171
      31A     -0.201933    32A     -0.196395

  @DF-RHF Final Energy:  -417.90259877832455

   => Energetics <=

    Nuclear Repulsion Energy =            390.6029566630086265
    One-Electron Energy =               -1355.4101548356543390
    Two-Electron Energy =                 546.9045993943211670
    Total Energy =                       -417.9025987783245455
  Basis Set: (AUG-CC-PVTZ AUX)
    Blend: AUG-CC-PVTZ-RI
    Molecular point group: c1

    Geometry (in Angstrom), charge = -1, multiplicity = 1:

       Center              X                  Y                   Z               Mass
    ------------   -----------------  -----------------  -----------------  -----------------
         O            2.296065824512     1.145773942573     0.009892209155    15.994914619570
         O            2.296066824512    -1.145775057427     0.009860209155    15.994914619570
         C            0.215794824512    -0.000001057427     0.009873209155    12.000000000000
         C           -0.499817175488    -1.203675057427     0.009798209155    12.000000000000
         C           -0.499818175488     1.203672942573     0.010027209155    12.000000000000
         C           -1.896232175488    -1.207334057427     0.009863209155    12.000000000000
         C           -1.896234175488     1.207331942573     0.010100209155    12.000000000000
         C           -2.602716175488    -0.000001057427     0.010017209155    12.000000000000
         C            1.764723124512     0.000008442573    -0.090194790845    12.000000000000
         H            0.079969824512    -2.123393057427     0.009691209155     1.007825032230
         H            0.079968824512     2.123390942573     0.010076209155     1.007825032230
         H           -2.440410175488    -2.152220057427     0.009795209155     1.007825032230
         H           -2.440412175488     2.152217942573     0.010223209155     1.007825032230
         H           -3.692452175488    -0.000003057427     0.010072209155     1.007825032230

  Basis Set: AUG-CC-PVTZ
    Blend: AUG-CC-PVTZ
  Basis Set: (AUG-CC-PVTZ AUX)
    Blend: AUG-CC-PVTZ-JKFIT
	 Reference Energy          =    -417.9025987783245455 [Eh]
	 Singles Energy            =      -0.0000000000000000 [Eh]
	 Same-Spin Energy          =      -0.4436568465496932 [Eh]
	 Opposite-Spin Energy      =      -1.3216754072071306 [Eh]
	 Correlation Energy        =      -1.7653322537568239 [Eh]
	 Total Energy              =    -419.6679310320813556 [Eh]

	 ================> DF-SCS-MP2 Energies <==================
	-----------------------------------------------------------
	 SCS Same-Spin Scale       =       0.3333333333333333 [-]
	 SCS Opposite-Spin Scale   =       1.2000000000000000 [-]
	 SCS Same-Spin Energy      =      -0.1478856155165644 [Eh]
	 SCS Opposite-Spin Energy  =      -1.5860104886485566 [Eh]
	 SCS Correlation Energy    =      -1.7338961041651211 [Eh]
	 SCS Total Energy          =    -419.6364948824896715 [Eh]
	-----------------------------------------------------------

  Dipole Moment: [D]
     X:    -8.5810      Y:     0.0001      Z:    -0.0847     Total:     8.5814

*** Psi4 exiting successfully. Buy a developer a beer!
