                               Psi4 1.3.2 release

  ==> Input File <==

--------------------------------------------------------------------------
#psi4
#
memory 32 gb

molecule  {
-1 1
  O        2.3621300     1.1457750    -0.0000250
  O        2.3621310    -1.1457740    -0.0000570
  C        0.2818590     0.0000000    -0.0000440
  C       -0.4337530    -1.2036740    -0.0001190
  C       -0.4337540     1.2036740     0.0001100
  C       -1.8301680    -1.2073330    -0.0000540
  C       -1.8301700     1.2073330     0.0001830
  C       -2.5366520     0.0000000     0.0001000
  C        1.8307920     0.0000000    -0.0001120
  H        0.1460340    -2.1233920    -0.0002260
  H        0.1460330     2.1233920     0.0001590
  H       -2.3743460    -2.1522190    -0.0001220
  H       -2.3743480     2.1522190     0.0003060
  H       -3.6263855    -0.0000069     0.0501550
units angstrom
no_reorient  #important for SAPT in psi4, default
symmetry c1  #important for SAPT in psi4, default
}

set PROPERTIES_ORIGIN ["COM"]
properties('MP2/aug-cc-pvtz', properties = ['dipole'])
--------------------------------------------------------------------------

    Molecular point group: c1
  Charge       = -1
  Multiplicity = 1
  Basis Set: AUG-CC-PVTZ
    Blend: AUG-CC-PVTZ
  Basis Set: (AUG-CC-PVTZ AUX)
    Blend: AUG-CC-PVTZ-JKFIT

    Orbital Energies [Eh]
    ---------------------

    Doubly Occupied:

       1A    -20.309511     2A    -20.309478     3A    -11.159019
       4A    -11.117240     5A    -11.111941     6A    -11.111793
       7A    -11.098278     8A    -11.098195     9A    -11.090032
      10A     -1.179973    11A     -1.083239    12A     -1.016052
      13A     -0.882325    14A     -0.881005    15A     -0.700984
      16A     -0.690673    17A     -0.592644    18A     -0.544333
      19A     -0.490245    20A     -0.482647    21A     -0.456394
      22A     -0.454257    23A     -0.408717    24A     -0.391586
      25A     -0.378364    26A     -0.352069    27A     -0.351604
      28A     -0.229246    29A     -0.221954    30A     -0.213808
      31A     -0.202425    32A     -0.197251

  @DF-RHF Final Energy:  -417.90792122552500

   => Energetics <=

    Nuclear Repulsion Energy =            390.7676942419917054
    One-Electron Energy =               -1355.7366672132341137
    Two-Electron Energy =                 547.0610517457174637
    Total Energy =                       -417.9079212255250013
  Basis Set: (AUG-CC-PVTZ AUX)
    Blend: AUG-CC-PVTZ-RI
    Molecular point group: c1

    Geometry (in Angstrom), charge = -1, multiplicity = 1:

       Center              X                  Y                   Z               Mass
    ------------   -----------------  -----------------  -----------------  -----------------
         O            2.296065337690     1.145774925300    -0.000439130629    15.994914619570
         O            2.296066337690    -1.145774074700    -0.000471130629    15.994914619570
         C            0.215794337690    -0.000000074700    -0.000458130629    12.000000000000
         C           -0.499817662310    -1.203674074700    -0.000533130629    12.000000000000
         C           -0.499818662310     1.203673925300    -0.000304130629    12.000000000000
         C           -1.896232662310    -1.207333074700    -0.000468130629    12.000000000000
         C           -1.896234662310     1.207332925300    -0.000231130629    12.000000000000
         C           -2.602716662310    -0.000000074700    -0.000314130629    12.000000000000
         C            1.764727337690    -0.000000074700    -0.000526130629    12.000000000000
         H            0.079969337690    -2.123392074700    -0.000640130629     1.007825032230
         H            0.079968337690     2.123391925300    -0.000255130629     1.007825032230
         H           -2.440410662310    -2.152219074700    -0.000536130629     1.007825032230
         H           -2.440412662310     2.152218925300    -0.000108130629     1.007825032230
         H           -3.692450162310    -0.000006974700     0.049740869371     1.007825032230

  Basis Set: AUG-CC-PVTZ
    Blend: AUG-CC-PVTZ
  Basis Set: (AUG-CC-PVTZ AUX)
    Blend: AUG-CC-PVTZ-JKFIT
	 Reference Energy          =    -417.9079212255250013 [Eh]
	 Singles Energy            =      -0.0000000000000000 [Eh]
	 Same-Spin Energy          =      -0.4432701855198570 [Eh]
	 Opposite-Spin Energy      =      -1.3208224036141565 [Eh]
	 Correlation Energy        =      -1.7640925891340136 [Eh]
	 Total Energy              =    -419.6720138146590102 [Eh]

	 ================> DF-SCS-MP2 Energies <==================
	-----------------------------------------------------------
	 SCS Same-Spin Scale       =       0.3333333333333333 [-]
	 SCS Opposite-Spin Scale   =       1.2000000000000000 [-]
	 SCS Same-Spin Energy      =      -0.1477567285066190 [Eh]
	 SCS Opposite-Spin Energy  =      -1.5849868843369876 [Eh]
	 SCS Correlation Energy    =      -1.7327436128436067 [Eh]
	 SCS Total Energy          =    -419.6406648383685933 [Eh]
	-----------------------------------------------------------

  Dipole Moment: [D]
     X:    -8.5822      Y:    -0.0000      Z:     0.0348     Total:     8.5823

*** Psi4 exiting successfully. Buy a developer a beer!
