                               Psi4 1.3.2 release

  ==> Input File <==

--------------------------------------------------------------------------
#psi4
#
memory 32 gb

molecule  {
-1 1
  O        2.3621300     1.1457750    -0.0000250
  O        2.3621310    -1.1457740    -0.0000570
  C        0.2818590     0.0000000    -0.0000440
  C       -0.4337530    -1.2036740    -0.0001190
  C       -0.4337540     1.2036740     0.0001100
  C       -1.8301680    -1.2073330    -0.0000540
  C       -1.8301700     1.2073330     0.0001830
  C       -2.5366520     0.0000000     0.0001000
  C        1.8307778     0.0000285    -0.3001120
  H        0.1460340    -2.1233920    -0.0002260
  H        0.1460330     2.1233920     0.0001590
  H       -2.3743460    -2.1522190    -0.0001220
  H       -2.3743480     2.1522190     0.0003060
  H       -3.6263880    -0.0000020     0.0001550
units angstrom
no_reorient  #important for SAPT in psi4, default
symmetry c1  #important for SAPT in psi4, default
}

set PROPERTIES_ORIGIN ["COM"]
properties('MP2/aug-cc-pvtz', properties = ['dipole'])
--------------------------------------------------------------------------

    Molecular point group: c1
  Charge       = -1
  Multiplicity = 1
  Basis Set: AUG-CC-PVTZ
    Blend: AUG-CC-PVTZ
  Basis Set: (AUG-CC-PVTZ AUX)
    Blend: AUG-CC-PVTZ-JKFIT

    Orbital Energies [Eh]
    ---------------------

    Doubly Occupied:

       1A    -20.315410     2A    -20.315375     3A    -11.171543
       4A    -11.116530     5A    -11.112041     6A    -11.111870
       7A    -11.098429     8A    -11.097859     9A    -11.096613
      10A     -1.164973    11A     -1.063968    12A     -1.015798
      13A     -0.881049    14A     -0.880898    15A     -0.698140
      16A     -0.690642    17A     -0.590647    18A     -0.545096
      19A     -0.489847    20A     -0.483360    21A     -0.454103
      22A     -0.449692    23A     -0.398434    24A     -0.387890
      25A     -0.373264    26A     -0.351733    27A     -0.345771
      28A     -0.226882    29A     -0.223855    30A     -0.210287
      31A     -0.196979    32A     -0.190611

  @DF-RHF Final Energy:  -417.85891628570295

   => Energetics <=

    Nuclear Repulsion Energy =            389.2995898752226935
    One-Electron Energy =               -1352.8178340223510077
    Two-Electron Energy =                 545.6593278614253677
    Total Energy =                       -417.8589162857030033
  Basis Set: (AUG-CC-PVTZ AUX)
    Blend: AUG-CC-PVTZ-RI
    Molecular point group: c1

    Geometry (in Angstrom), charge = -1, multiplicity = 1:

       Center              X                  Y                   Z               Mass
    ------------   -----------------  -----------------  -----------------  -----------------
         O            2.296066766435     1.145772058726     0.029722174735    15.994914619570
         O            2.296067766435    -1.145776941274     0.029690174735    15.994914619570
         C            0.215795766435    -0.000002941274     0.029703174735    12.000000000000
         C           -0.499816233565    -1.203676941274     0.029628174735    12.000000000000
         C           -0.499817233565     1.203671058726     0.029857174735    12.000000000000
         C           -1.896231233565    -1.207335941274     0.029693174735    12.000000000000
         C           -1.896233233565     1.207330058726     0.029930174735    12.000000000000
         C           -2.602715233565    -0.000002941274     0.029847174735    12.000000000000
         C            1.764714566435     0.000025558726    -0.270364825265    12.000000000000
         H            0.079970766435    -2.123394941274     0.029521174735     1.007825032230
         H            0.079969766435     2.123389058726     0.029906174735     1.007825032230
         H           -2.440409233565    -2.152221941274     0.029625174735     1.007825032230
         H           -2.440411233565     2.152216058726     0.030053174735     1.007825032230
         H           -3.692451233565    -0.000004941274     0.029902174735     1.007825032230

  Basis Set: AUG-CC-PVTZ
    Blend: AUG-CC-PVTZ
  Basis Set: (AUG-CC-PVTZ AUX)
    Blend: AUG-CC-PVTZ-JKFIT
	 Reference Energy          =    -417.8589162857029464 [Eh]
	 Singles Energy            =      -0.0000000000000000 [Eh]
	 Same-Spin Energy          =      -0.4468051219826928 [Eh]
	 Opposite-Spin Energy      =      -1.3295581326942238 [Eh]
	 Correlation Energy        =      -1.7763632546769168 [Eh]
	 Total Energy              =    -419.6352795403798837 [Eh]

	 ================> DF-SCS-MP2 Energies <==================
	-----------------------------------------------------------
	 SCS Same-Spin Scale       =       0.3333333333333333 [-]
	 SCS Opposite-Spin Scale   =       1.2000000000000000 [-]
	 SCS Same-Spin Energy      =      -0.1489350406608976 [Eh]
	 SCS Opposite-Spin Energy  =      -1.5954697592330687 [Eh]
	 SCS Correlation Energy    =      -1.7444047998939662 [Eh]
	 SCS Total Energy          =    -419.6033210855969173 [Eh]
	-----------------------------------------------------------

  Dipole Moment: [D]
     X:    -8.5521      Y:     0.0002      Z:    -0.2151     Total:     8.5548

*** Psi4 exiting successfully. Buy a developer a beer!
