                               Psi4 1.3.2 release

  ==> Input File <==

--------------------------------------------------------------------------
#psi4
#
memory 32 gb

molecule  {
-1 1
  O        2.3621300     1.1457750    -0.0000250
  O        2.3621310    -1.1457740    -0.0000570
  C        0.2818590     0.0000000    -0.0000440
  C       -0.4337530    -1.2036740    -0.0001190
  C       -0.4337540     1.2036740     0.0001100
  C       -1.8301680    -1.2073330    -0.0000540
  C       -1.8301700     1.2073330     0.0001830
  C       -2.5366520     0.0000000     0.0001000
  C        1.8307920     0.0000000    -0.0001120
  H        0.1460340    -2.1233920    -0.0002260
  H        0.1460330     2.1233920     0.0001590
  H       -2.3743389    -2.1522339     0.1498780
  H       -2.3743480     2.1522190     0.0003060
  H       -3.6263880    -0.0000020     0.0001550
units angstrom
no_reorient  #important for SAPT in psi4, default
symmetry c1  #important for SAPT in psi4, default
}

set PROPERTIES_ORIGIN ["COM"]
properties('MP2/aug-cc-pvtz', properties = ['dipole'])
--------------------------------------------------------------------------

    Molecular point group: c1
  Charge       = -1
  Multiplicity = 1
  Basis Set: AUG-CC-PVTZ
    Blend: AUG-CC-PVTZ
  Basis Set: (AUG-CC-PVTZ AUX)
    Blend: AUG-CC-PVTZ-JKFIT

    Orbital Energies [Eh]
    ---------------------

    Doubly Occupied:

       1A    -20.309580     2A    -20.309546     3A    -11.159094
       4A    -11.117365     5A    -11.112799     6A    -11.111956
       7A    -11.098521     8A    -11.098435     9A    -11.090109
      10A     -1.180044    11A     -1.083308    12A     -1.016142
      13A     -0.882439    14A     -0.880823    15A     -0.701053
      16A     -0.690262    17A     -0.591845    18A     -0.544645
      19A     -0.490368    20A     -0.481904    21A     -0.456556
      22A     -0.453532    23A     -0.408780    24A     -0.391647
      25A     -0.378454    26A     -0.354537    27A     -0.348752
      28A     -0.229316    29A     -0.222100    30A     -0.213773
      31A     -0.202407    32A     -0.197339

  @DF-RHF Final Energy:  -417.90666627974826

   => Energetics <=

    Nuclear Repulsion Energy =            390.7334459785564604
    One-Electron Energy =               -1355.6653632034833663
    Two-Electron Energy =                 547.0252509451786409
    Total Energy =                       -417.9066662797482650
  Basis Set: (AUG-CC-PVTZ AUX)
    Blend: AUG-CC-PVTZ-RI
    Molecular point group: c1

    Geometry (in Angstrom), charge = -1, multiplicity = 1:

       Center              X                  Y                   Z               Mass
    ------------   -----------------  -----------------  -----------------  -----------------
         O            2.296065299385     1.145775008571    -0.001271844617    15.994914619570
         O            2.296066299385    -1.145773991429    -0.001303844617    15.994914619570
         C            0.215794299385     0.000000008571    -0.001290844617    12.000000000000
         C           -0.499817700615    -1.203673991429    -0.001365844617    12.000000000000
         C           -0.499818700615     1.203674008571    -0.001136844617    12.000000000000
         C           -1.896232700615    -1.207332991429    -0.001300844617    12.000000000000
         C           -1.896234700615     1.207333008571    -0.001063844617    12.000000000000
         C           -2.602716700615     0.000000008571    -0.001146844617    12.000000000000
         C            1.764727299385     0.000000008571    -0.001358844617    12.000000000000
         H            0.079969299385    -2.123391991429    -0.001472844617     1.007825032230
         H            0.079968299385     2.123392008571    -0.001087844617     1.007825032230
         H           -2.440403600615    -2.152233891429     0.148631155383     1.007825032230
         H           -2.440412700615     2.152219008571    -0.000940844617     1.007825032230
         H           -3.692452700615    -0.000001991429    -0.001091844617     1.007825032230

  Basis Set: AUG-CC-PVTZ
    Blend: AUG-CC-PVTZ
  Basis Set: (AUG-CC-PVTZ AUX)
    Blend: AUG-CC-PVTZ-JKFIT
	 Reference Energy          =    -417.9066662797482650 [Eh]
	 Singles Energy            =      -0.0000000000000000 [Eh]
	 Same-Spin Energy          =      -0.4433360270152138 [Eh]
	 Opposite-Spin Energy      =      -1.3209838715347897 [Eh]
	 Correlation Energy        =      -1.7643198985500035 [Eh]
	 Total Energy              =    -419.6709861782982784 [Eh]

	 ================> DF-SCS-MP2 Energies <==================
	-----------------------------------------------------------
	 SCS Same-Spin Scale       =       0.3333333333333333 [-]
	 SCS Opposite-Spin Scale   =       1.2000000000000000 [-]
	 SCS Same-Spin Energy      =      -0.1477786756717379 [Eh]
	 SCS Opposite-Spin Energy  =      -1.5851806458417477 [Eh]
	 SCS Correlation Energy    =      -1.7329593215134855 [Eh]
	 SCS Total Energy          =    -419.6396256012617414 [Eh]
	-----------------------------------------------------------

  Dipole Moment: [D]
     X:    -8.5701      Y:     0.0214      Z:     0.0976     Total:     8.5707

*** Psi4 exiting successfully. Buy a developer a beer!
