                               Psi4 1.3.2 release

  ==> Input File <==

--------------------------------------------------------------------------
#psi4
#
memory 32 gb

molecule  {
-1 1
  O        2.3621300     1.1457750    -0.0000250
  O        2.3621310    -1.1457740    -0.0000570
  C        0.2818590     0.0000000    -0.0000440
  C       -0.4337530    -1.2036740    -0.0001190
  C       -0.4337540     1.2036740     0.0001100
  C       -1.8301680    -1.2073330    -0.0000540
  C       -1.8301700     1.2073330     0.0001830
  C       -2.5366520     0.0000000     0.0001000
  C        1.8307920     0.0000000    -0.0001120
  H        0.1460340    -2.1233920    -0.0002260
  H        0.1460330     2.1233920     0.0001590
  H       -2.3743460    -2.1522190    -0.0001220
  H       -2.3743480     2.1522190     0.0003060
  H       -3.6263754    -0.0000265     0.2501550
units angstrom
no_reorient  #important for SAPT in psi4, default
symmetry c1  #important for SAPT in psi4, default
}

set PROPERTIES_ORIGIN ["COM"]
properties('MP2/aug-cc-pvtz', properties = ['dipole'])
--------------------------------------------------------------------------

    Molecular point group: c1
  Charge       = -1
  Multiplicity = 1
  Basis Set: AUG-CC-PVTZ
    Blend: AUG-CC-PVTZ
  Basis Set: (AUG-CC-PVTZ AUX)
    Blend: AUG-CC-PVTZ-JKFIT

    Orbital Energies [Eh]
    ---------------------

    Doubly Occupied:

       1A    -20.309898     2A    -20.309866     3A    -11.159428
       4A    -11.119669     5A    -11.112532     6A    -11.112419
       7A    -11.098566     8A    -11.098478     9A    -11.090794
      10A     -1.180359    11A     -1.083617    12A     -1.016275
      13A     -0.881768    14A     -0.881400    15A     -0.699417
      16A     -0.691011    17A     -0.592852    18A     -0.540399
      19A     -0.490593    20A     -0.483014    21A     -0.454944
      22A     -0.454630    23A     -0.409080    24A     -0.393079
      25A     -0.376985    26A     -0.352453    27A     -0.349696
      28A     -0.229618    29A     -0.222389    30A     -0.214146
      31A     -0.202752    32A     -0.197230

  @DF-RHF Final Energy:  -417.90401540720256

   => Energetics <=

    Nuclear Repulsion Energy =            390.6678840320821564
    One-Electron Energy =               -1355.5250881362571818
    Two-Electron Energy =                 546.9531886969724610
    Total Energy =                       -417.9040154072025643
  Basis Set: (AUG-CC-PVTZ AUX)
    Blend: AUG-CC-PVTZ-RI
    Molecular point group: c1

    Geometry (in Angstrom), charge = -1, multiplicity = 1:

       Center              X                  Y                   Z               Mass
    ------------   -----------------  -----------------  -----------------  -----------------
         O            2.296065253585     1.145775088511    -0.002104558604    15.994914619570
         O            2.296066253585    -1.145773911489    -0.002136558604    15.994914619570
         C            0.215794253585     0.000000088511    -0.002123558604    12.000000000000
         C           -0.499817746415    -1.203673911489    -0.002198558604    12.000000000000
         C           -0.499818746415     1.203674088511    -0.001969558604    12.000000000000
         C           -1.896232746415    -1.207332911489    -0.002133558604    12.000000000000
         C           -1.896234746415     1.207333088511    -0.001896558604    12.000000000000
         C           -2.602716746415     0.000000088511    -0.001979558604    12.000000000000
         C            1.764727253585     0.000000088511    -0.002191558604    12.000000000000
         H            0.079969253585    -2.123391911489    -0.002305558604     1.007825032230
         H            0.079968253585     2.123392088511    -0.001920558604     1.007825032230
         H           -2.440410746415    -2.152218911489    -0.002201558604     1.007825032230
         H           -2.440412746415     2.152219088511    -0.001773558604     1.007825032230
         H           -3.692440146415    -0.000026411489     0.248075441396     1.007825032230

  Basis Set: AUG-CC-PVTZ
    Blend: AUG-CC-PVTZ
  Basis Set: (AUG-CC-PVTZ AUX)
    Blend: AUG-CC-PVTZ-JKFIT
	 Reference Energy          =    -417.9040154072025643 [Eh]
	 Singles Energy            =      -0.0000000000000000 [Eh]
	 Same-Spin Energy          =      -0.4434786456711100 [Eh]
	 Opposite-Spin Energy      =      -1.3213654990775296 [Eh]
	 Correlation Energy        =      -1.7648441447486396 [Eh]
	 Total Energy              =    -419.6688595519511864 [Eh]

	 ================> DF-SCS-MP2 Energies <==================
	-----------------------------------------------------------
	 SCS Same-Spin Scale       =       0.3333333333333333 [-]
	 SCS Opposite-Spin Scale   =       1.2000000000000000 [-]
	 SCS Same-Spin Energy      =      -0.1478262152237033 [Eh]
	 SCS Opposite-Spin Energy  =      -1.5856385988930355 [Eh]
	 SCS Correlation Energy    =      -1.7334648141167388 [Eh]
	 SCS Total Energy          =    -419.6374802213193220 [Eh]
	-----------------------------------------------------------

  Dipole Moment: [D]
     X:    -8.5065      Y:    -0.0000      Z:     0.1685     Total:     8.5082

*** Psi4 exiting successfully. Buy a developer a beer!
