                               Psi4 1.3.2 release

  ==> Input File <==

--------------------------------------------------------------------------
#psi4
#
memory 32 gb

molecule  {
-1 1
  O        2.3621300     1.1457750    -0.0000250
  O        2.3621310    -1.1457740    -0.0000570
  C        0.2818592     0.0000021    -0.1500440
  C       -0.4337530    -1.2036740    -0.0001190
  C       -0.4337540     1.2036740     0.0001100
  C       -1.8301680    -1.2073330    -0.0000540
  C       -1.8301700     1.2073330     0.0001830
  C       -2.5366520     0.0000000     0.0001000
  C        1.8307920     0.0000000    -0.0001120
  H        0.1460340    -2.1233920    -0.0002260
  H        0.1460330     2.1233920     0.0001590
  H       -2.3743460    -2.1522190    -0.0001220
  H       -2.3743480     2.1522190     0.0003060
  H       -3.6263880    -0.0000020     0.0001550
units angstrom
no_reorient  #important for SAPT in psi4, default
symmetry c1  #important for SAPT in psi4, default
}

set PROPERTIES_ORIGIN ["COM"]
properties('MP2/aug-cc-pvtz', properties = ['dipole'])
--------------------------------------------------------------------------

    Molecular point group: c1
  Charge       = -1
  Multiplicity = 1
  Basis Set: AUG-CC-PVTZ
    Blend: AUG-CC-PVTZ
  Basis Set: (AUG-CC-PVTZ AUX)
    Blend: AUG-CC-PVTZ-JKFIT

    Orbital Energies [Eh]
    ---------------------

    Doubly Occupied:

       1A    -20.309628     2A    -20.309596     3A    -11.159837
       4A    -11.117620     5A    -11.111533     6A    -11.111402
       7A    -11.099794     8A    -11.099718     9A    -11.091557
      10A     -1.179830    11A     -1.083256    12A     -1.015210
      13A     -0.880904    14A     -0.880666    15A     -0.700420
      16A     -0.689221    17A     -0.590802    18A     -0.544355
      19A     -0.488476    20A     -0.482548    21A     -0.455884
      22A     -0.454039    23A     -0.408695    24A     -0.390670
      25A     -0.378641    26A     -0.351011    27A     -0.350947
      28A     -0.229347    29A     -0.221052    30A     -0.213358
      31A     -0.201830    32A     -0.196574

  @DF-RHF Final Energy:  -417.90084467651315

   => Energetics <=

    Nuclear Repulsion Energy =            390.4682987032176129
    One-Electron Energy =               -1355.1414475178364683
    Two-Electron Energy =                 546.7723041381055964
    Total Energy =                       -417.9008446765132021
  Basis Set: (AUG-CC-PVTZ AUX)
    Blend: AUG-CC-PVTZ-RI
    Molecular point group: c1

    Geometry (in Angstrom), charge = -1, multiplicity = 1:

       Center              X                  Y                   Z               Mass
    ------------   -----------------  -----------------  -----------------  -----------------
         O            2.296065338677     1.145774676282     0.014849700550    15.994914619570
         O            2.296066338677    -1.145774323718     0.014817700550    15.994914619570
         C            0.215794538677     0.000001776282    -0.135169299450    12.000000000000
         C           -0.499817661323    -1.203674323718     0.014755700550    12.000000000000
         C           -0.499818661323     1.203673676282     0.014984700550    12.000000000000
         C           -1.896232661323    -1.207333323718     0.014820700550    12.000000000000
         C           -1.896234661323     1.207332676282     0.015057700550    12.000000000000
         C           -2.602716661323    -0.000000323718     0.014974700550    12.000000000000
         C            1.764727338677    -0.000000323718     0.014762700550    12.000000000000
         H            0.079969338677    -2.123392323718     0.014648700550     1.007825032230
         H            0.079968338677     2.123391676282     0.015033700550     1.007825032230
         H           -2.440410661323    -2.152219323718     0.014752700550     1.007825032230
         H           -2.440412661323     2.152218676282     0.015180700550     1.007825032230
         H           -3.692452661323    -0.000002323718     0.015029700550     1.007825032230

  Basis Set: AUG-CC-PVTZ
    Blend: AUG-CC-PVTZ
  Basis Set: (AUG-CC-PVTZ AUX)
    Blend: AUG-CC-PVTZ-JKFIT
	 Reference Energy          =    -417.9008446765131453 [Eh]
	 Singles Energy            =      -0.0000000000000000 [Eh]
	 Same-Spin Energy          =      -0.4435998920948614 [Eh]
	 Opposite-Spin Energy      =      -1.3215175297265902 [Eh]
	 Correlation Energy        =      -1.7651174218214516 [Eh]
	 Total Energy              =    -419.6659620983346031 [Eh]

	 ================> DF-SCS-MP2 Energies <==================
	-----------------------------------------------------------
	 SCS Same-Spin Scale       =       0.3333333333333333 [-]
	 SCS Opposite-Spin Scale   =       1.2000000000000000 [-]
	 SCS Same-Spin Energy      =      -0.1478666306982871 [Eh]
	 SCS Opposite-Spin Energy  =      -1.5858210356719082 [Eh]
	 SCS Correlation Energy    =      -1.7336876663701954 [Eh]
	 SCS Total Energy          =    -419.6345323428833467 [Eh]
	-----------------------------------------------------------

  Dipole Moment: [D]
     X:    -8.5726      Y:    -0.0000      Z:    -0.0856     Total:     8.5730

*** Psi4 exiting successfully. Buy a developer a beer!
