                               Psi4 1.3.2 release

  ==> Input File <==

--------------------------------------------------------------------------
#psi4
#
memory 32 gb

molecule  {
-1 1
  O        2.3621300     1.1457750    -0.0000250
  O        2.3621310    -1.1457740    -0.0000570
  C        0.2818590     0.0000000    -0.0000440
  C       -0.4337530    -1.2036740    -0.0001190
  C       -0.4337540     1.2036740     0.0001100
  C       -1.8301680    -1.2073330    -0.0000540
  C       -1.8301700     1.2073330     0.0001830
  C       -2.5366520     0.0000000     0.0001000
  C        1.8307920     0.0000000    -0.0001120
  H        0.1460478    -2.1234186     0.2997740
  H        0.1460330     2.1233920     0.0001590
  H       -2.3743460    -2.1522190    -0.0001220
  H       -2.3743480     2.1522190     0.0003060
  H       -3.6263880    -0.0000020     0.0001550
units angstrom
no_reorient  #important for SAPT in psi4, default
symmetry c1  #important for SAPT in psi4, default
}

set PROPERTIES_ORIGIN ["COM"]
properties('MP2/aug-cc-pvtz', properties = ['dipole'])
--------------------------------------------------------------------------

    Molecular point group: c1
  Charge       = -1
  Multiplicity = 1
  Basis Set: AUG-CC-PVTZ
    Blend: AUG-CC-PVTZ
  Basis Set: (AUG-CC-PVTZ AUX)
    Blend: AUG-CC-PVTZ-JKFIT

    Orbital Energies [Eh]
    ---------------------

    Doubly Occupied:

       1A    -20.309498     2A    -20.309240     3A    -11.158952
       4A    -11.117383     5A    -11.112551     6A    -11.112340
       7A    -11.101951     8A    -11.098527     9A    -11.090765
      10A     -1.179852    11A     -1.083084    12A     -1.016305
      13A     -0.882529    14A     -0.880380    15A     -0.701016
      16A     -0.688891    17A     -0.591981    18A     -0.542200
      19A     -0.490504    20A     -0.480733    21A     -0.456364
      22A     -0.451922    23A     -0.408571    24A     -0.392726
      25A     -0.376723    26A     -0.354751    27A     -0.345607
      28A     -0.229183    29A     -0.221981    30A     -0.213165
      31A     -0.202113    32A     -0.197154

  @DF-RHF Final Energy:  -417.90131370531219

   => Energetics <=

    Nuclear Repulsion Energy =            390.6031483517771790
    One-Electron Energy =               -1355.4110384015227737
    Two-Electron Energy =                 546.9065763444333470
    Total Energy =                       -417.9013137053121909
  Basis Set: (AUG-CC-PVTZ AUX)
    Blend: AUG-CC-PVTZ-RI
    Molecular point group: c1

    Geometry (in Angstrom), charge = -1, multiplicity = 1:

       Center              X                  Y                   Z               Mass
    ------------   -----------------  -----------------  -----------------  -----------------
         O            2.296065243593     1.145775105998    -0.002520915598    15.994914619570
         O            2.296066243593    -1.145773894002    -0.002552915598    15.994914619570
         C            0.215794243593     0.000000105998    -0.002539915598    12.000000000000
         C           -0.499817756407    -1.203673894002    -0.002614915598    12.000000000000
         C           -0.499818756407     1.203674105998    -0.002385915598    12.000000000000
         C           -1.896232756407    -1.207332894002    -0.002549915598    12.000000000000
         C           -1.896234756407     1.207333105998    -0.002312915598    12.000000000000
         C           -2.602716756407     0.000000105998    -0.002395915598    12.000000000000
         C            1.764727243593     0.000000105998    -0.002607915598    12.000000000000
         H            0.079983043593    -2.123418494002     0.297278084402     1.007825032230
         H            0.079968243593     2.123392105998    -0.002336915598     1.007825032230
         H           -2.440410756407    -2.152218894002    -0.002617915598     1.007825032230
         H           -2.440412756407     2.152219105998    -0.002189915598     1.007825032230
         H           -3.692452756407    -0.000001894002    -0.002340915598     1.007825032230

  Basis Set: AUG-CC-PVTZ
    Blend: AUG-CC-PVTZ
  Basis Set: (AUG-CC-PVTZ AUX)
    Blend: AUG-CC-PVTZ-JKFIT
	 Reference Energy          =    -417.9013137053121909 [Eh]
	 Singles Energy            =      -0.0000000000000000 [Eh]
	 Same-Spin Energy          =      -0.4436494920741440 [Eh]
	 Opposite-Spin Energy      =      -1.3216412612721560 [Eh]
	 Correlation Energy        =      -1.7652907533463000 [Eh]
	 Total Energy              =    -419.6666044586584690 [Eh]

	 ================> DF-SCS-MP2 Energies <==================
	-----------------------------------------------------------
	 SCS Same-Spin Scale       =       0.3333333333333333 [-]
	 SCS Opposite-Spin Scale   =       1.2000000000000000 [-]
	 SCS Same-Spin Energy      =      -0.1478831640247147 [Eh]
	 SCS Opposite-Spin Energy  =      -1.5859695135265872 [Eh]
	 SCS Correlation Energy    =      -1.7338526775513019 [Eh]
	 SCS Total Energy          =    -419.6351663828634742 [Eh]
	-----------------------------------------------------------

  Dipole Moment: [D]
     X:    -8.6094      Y:     0.0537      Z:     0.1808     Total:     8.6115

*** Psi4 exiting successfully. Buy a developer a beer!
