                               Psi4 1.3.2 release

  ==> Input File <==

--------------------------------------------------------------------------
#psi4
#
memory 32 gb

molecule  {
-1 1
  O        2.3621300     1.1457750    -0.0000250
  O        2.3621310    -1.1457740    -0.0000570
  C        0.2818590     0.0000000    -0.0000440
  C       -0.4337530    -1.2036740    -0.0001190
  C       -0.4337540     1.2036740     0.0001100
  C       -1.8301680    -1.2073330    -0.0000540
  C       -1.8301700     1.2073330     0.0001830
  C       -2.5366520     0.0000000     0.0001000
  C        1.8307920     0.0000000    -0.0001120
  H        0.1460340    -2.1233920    -0.0002260
  H        0.1460330     2.1233920     0.0001590
  H       -2.3743413    -2.1522290     0.0998780
  H       -2.3743480     2.1522190     0.0003060
  H       -3.6263880    -0.0000020     0.0001550
units angstrom
no_reorient  #important for SAPT in psi4, default
symmetry c1  #important for SAPT in psi4, default
}

set PROPERTIES_ORIGIN ["COM"]
properties('MP2/aug-cc-pvtz', properties = ['dipole'])
--------------------------------------------------------------------------

    Molecular point group: c1
  Charge       = -1
  Multiplicity = 1
  Basis Set: AUG-CC-PVTZ
    Blend: AUG-CC-PVTZ
  Basis Set: (AUG-CC-PVTZ AUX)
    Blend: AUG-CC-PVTZ-JKFIT

    Orbital Energies [Eh]
    ---------------------

    Doubly Occupied:

       1A    -20.309532     2A    -20.309499     3A    -11.159043
       4A    -11.117238     5A    -11.112280     6A    -11.111880
       7A    -11.098379     8A    -11.098296     9A    -11.090048
      10A     -1.179996    11A     -1.083261    12A     -1.016087
      13A     -0.882386    14A     -0.880917    15A     -0.701051
      16A     -0.690480    17A     -0.592280    18A     -0.544567
      19A     -0.490291    20A     -0.482302    21A     -0.456498
      22A     -0.453931    23A     -0.408737    24A     -0.391573
      25A     -0.378441    26A     -0.353697    27A     -0.349841
      28A     -0.229268    29A     -0.222009    30A     -0.213784
      31A     -0.202409    32A     -0.197291

  @DF-RHF Final Energy:  -417.90745775862604

   => Energetics <=

    Nuclear Repulsion Energy =            390.7547504034424719
    One-Electron Energy =               -1355.7098370211051588
    Two-Electron Energy =                 547.0476288590366494
    Total Energy =                       -417.9074577586260375
  Basis Set: (AUG-CC-PVTZ AUX)
    Blend: AUG-CC-PVTZ-RI
    Molecular point group: c1

    Geometry (in Angstrom), charge = -1, multiplicity = 1:

       Center              X                  Y                   Z               Mass
    ------------   -----------------  -----------------  -----------------  -----------------
         O            2.296065319370     1.145774967768    -0.000855487623    15.994914619570
         O            2.296066319370    -1.145774032232    -0.000887487623    15.994914619570
         C            0.215794319370    -0.000000032232    -0.000874487623    12.000000000000
         C           -0.499817680630    -1.203674032232    -0.000949487623    12.000000000000
         C           -0.499818680630     1.203673967768    -0.000720487623    12.000000000000
         C           -1.896232680630    -1.207333032232    -0.000884487623    12.000000000000
         C           -1.896234680630     1.207332967768    -0.000647487623    12.000000000000
         C           -2.602716680630    -0.000000032232    -0.000730487623    12.000000000000
         C            1.764727319370    -0.000000032232    -0.000942487623    12.000000000000
         H            0.079969319370    -2.123392032232    -0.001056487623     1.007825032230
         H            0.079968319370     2.123391967768    -0.000671487623     1.007825032230
         H           -2.440405980630    -2.152229032232     0.099047512377     1.007825032230
         H           -2.440412680630     2.152218967768    -0.000524487623     1.007825032230
         H           -3.692452680630    -0.000002032232    -0.000675487623     1.007825032230

  Basis Set: AUG-CC-PVTZ
    Blend: AUG-CC-PVTZ
  Basis Set: (AUG-CC-PVTZ AUX)
    Blend: AUG-CC-PVTZ-JKFIT
	 Reference Energy          =    -417.9074577586260375 [Eh]
	 Singles Energy            =      -0.0000000000000000 [Eh]
	 Same-Spin Energy          =      -0.4432948050321939 [Eh]
	 Opposite-Spin Energy      =      -1.3208811980730353 [Eh]
	 Correlation Energy        =      -1.7641760031052292 [Eh]
	 Total Energy              =    -419.6716337617312433 [Eh]

	 ================> DF-SCS-MP2 Energies <==================
	-----------------------------------------------------------
	 SCS Same-Spin Scale       =       0.3333333333333333 [-]
	 SCS Opposite-Spin Scale   =       1.2000000000000000 [-]
	 SCS Same-Spin Energy      =      -0.1477649350107313 [Eh]
	 SCS Opposite-Spin Energy  =      -1.5850574376876423 [Eh]
	 SCS Correlation Energy    =      -1.7328223726983736 [Eh]
	 SCS Total Energy          =    -419.6402801313244026 [Eh]
	-----------------------------------------------------------

  Dipole Moment: [D]
     X:    -8.5786      Y:     0.0096      Z:     0.0655     Total:     8.5788

*** Psi4 exiting successfully. Buy a developer a beer!
