                               Psi4 1.3.2 release

  ==> Input File <==

--------------------------------------------------------------------------
#psi4
#
memory 32 gb

molecule  {
-1 1
  O        2.3621300     1.1457750    -0.0000250
  O        2.3621310    -1.1457740    -0.0000570
  C        0.2818590     0.0000000    -0.0000440
  C       -0.4337530    -1.2036740    -0.0001190
  C       -0.4337540     1.2036740     0.0001100
  C       -1.8301680    -1.2073330    -0.0000540
  C       -1.8301700     1.2073330     0.0001830
  C       -2.5366520     0.0000000     0.0001000
  C        1.8307920     0.0000000    -0.0001120
  H        0.1460363    -2.1233964     0.0497740
  H        0.1460330     2.1233920     0.0001590
  H       -2.3743460    -2.1522190    -0.0001220
  H       -2.3743480     2.1522190     0.0003060
  H       -3.6263880    -0.0000020     0.0001550
units angstrom
no_reorient  #important for SAPT in psi4, default
symmetry c1  #important for SAPT in psi4, default
}

set PROPERTIES_ORIGIN ["COM"]
properties('MP2/aug-cc-pvtz', properties = ['dipole'])
--------------------------------------------------------------------------

    Molecular point group: c1
  Charge       = -1
  Multiplicity = 1
  Basis Set: AUG-CC-PVTZ
    Blend: AUG-CC-PVTZ
  Basis Set: (AUG-CC-PVTZ AUX)
    Blend: AUG-CC-PVTZ-JKFIT

    Orbital Energies [Eh]
    ---------------------

    Doubly Occupied:

       1A    -20.309492     2A    -20.309459     3A    -11.159001
       4A    -11.117144     5A    -11.111933     6A    -11.111784
       7A    -11.098346     8A    -11.098218     9A    -11.090022
      10A     -1.179954    11A     -1.083219    12A     -1.016051
      13A     -0.882351    14A     -0.880974    15A     -0.701051
      16A     -0.690606    17A     -0.592615    18A     -0.544434
      19A     -0.490238    20A     -0.482574    21A     -0.456447
      22A     -0.454184    23A     -0.408699    24A     -0.391554
      25A     -0.378374    26A     -0.352556    27A     -0.351091
      28A     -0.229229    29A     -0.221938    30A     -0.213775
      31A     -0.202401    32A     -0.197250

  @DF-RHF Final Energy:  -417.90790053626353

   => Energetics <=

    Nuclear Repulsion Energy =            390.7671108204503412
    One-Electron Energy =               -1355.7360936449156270
    Two-Electron Energy =                 547.0610822882017601
    Total Energy =                       -417.9079005362634689
  Basis Set: (AUG-CC-PVTZ AUX)
    Blend: AUG-CC-PVTZ-RI
    Molecular point group: c1

    Geometry (in Angstrom), charge = -1, multiplicity = 1:

       Center              X                  Y                   Z               Mass
    ------------   -----------------  -----------------  -----------------  -----------------
         O            2.296065339355     1.145774921136    -0.000439130629    15.994914619570
         O            2.296066339355    -1.145774078864    -0.000471130629    15.994914619570
         C            0.215794339355    -0.000000078864    -0.000458130629    12.000000000000
         C           -0.499817660645    -1.203674078864    -0.000533130629    12.000000000000
         C           -0.499818660645     1.203673921136    -0.000304130629    12.000000000000
         C           -1.896232660645    -1.207333078864    -0.000468130629    12.000000000000
         C           -1.896234660645     1.207332921136    -0.000231130629    12.000000000000
         C           -2.602716660645    -0.000000078864    -0.000314130629    12.000000000000
         C            1.764727339355    -0.000000078864    -0.000526130629    12.000000000000
         H            0.079971639355    -2.123396478864     0.049359869371     1.007825032230
         H            0.079968339355     2.123391921136    -0.000255130629     1.007825032230
         H           -2.440410660645    -2.152219078864    -0.000536130629     1.007825032230
         H           -2.440412660645     2.152218921136    -0.000108130629     1.007825032230
         H           -3.692452660645    -0.000002078864    -0.000259130629     1.007825032230

  Basis Set: AUG-CC-PVTZ
    Blend: AUG-CC-PVTZ
  Basis Set: (AUG-CC-PVTZ AUX)
    Blend: AUG-CC-PVTZ-JKFIT
	 Reference Energy          =    -417.9079005362635257 [Eh]
	 Singles Energy            =      -0.0000000000000000 [Eh]
	 Same-Spin Energy          =      -0.4432722650346607 [Eh]
	 Opposite-Spin Energy      =      -1.3208243862097446 [Eh]
	 Correlation Energy        =      -1.7640966512444054 [Eh]
	 Total Energy              =    -419.6719971875079409 [Eh]

	 ================> DF-SCS-MP2 Energies <==================
	-----------------------------------------------------------
	 SCS Same-Spin Scale       =       0.3333333333333333 [-]
	 SCS Opposite-Spin Scale   =       1.2000000000000000 [-]
	 SCS Same-Spin Energy      =      -0.1477574216782202 [Eh]
	 SCS Opposite-Spin Energy  =      -1.5849892634516936 [Eh]
	 SCS Correlation Energy    =      -1.7327466851299138 [Eh]
	 SCS Total Energy          =    -419.6406472213934649 [Eh]
	-----------------------------------------------------------

  Dipole Moment: [D]
     X:    -8.5861      Y:     0.0015      Z:     0.0310     Total:     8.5862

*** Psi4 exiting successfully. Buy a developer a beer!
