                               Psi4 1.3.2 release

  ==> Input File <==

--------------------------------------------------------------------------
#psi4
#
memory 32 gb

molecule  {
-1 1
  O        2.3621300     1.1457750    -0.0000250
  O        2.3621310    -1.1457740    -0.0000570
  C        0.2818590     0.0000000    -0.0000440
  C       -0.4337530    -1.2036740    -0.0001190
  C       -0.4337540     1.2036740     0.0001100
  C       -1.8301680    -1.2073330    -0.0000540
  C       -1.8301700     1.2073330     0.0001830
  C       -2.5366520     0.0000000     0.0001000
  C        1.8307920     0.0000000    -0.0001120
  H        0.1460455    -2.1234142     0.2497740
  H        0.1460330     2.1233920     0.0001590
  H       -2.3743460    -2.1522190    -0.0001220
  H       -2.3743480     2.1522190     0.0003060
  H       -3.6263880    -0.0000020     0.0001550
units angstrom
no_reorient  #important for SAPT in psi4, default
symmetry c1  #important for SAPT in psi4, default
}

set PROPERTIES_ORIGIN ["COM"]
properties('MP2/aug-cc-pvtz', properties = ['dipole'])
--------------------------------------------------------------------------

    Molecular point group: c1
  Charge       = -1
  Multiplicity = 1
  Basis Set: AUG-CC-PVTZ
    Blend: AUG-CC-PVTZ
  Basis Set: (AUG-CC-PVTZ AUX)
    Blend: AUG-CC-PVTZ-JKFIT

    Orbital Energies [Eh]
    ---------------------

    Doubly Occupied:

       1A    -20.309492     2A    -20.309312     3A    -11.158966
       4A    -11.117304     5A    -11.112351     6A    -11.112165
       7A    -11.100835     8A    -11.098431     9A    -11.090530
      10A     -1.179883    11A     -1.083125    12A     -1.016221
      13A     -0.882447    14A     -0.880569    15A     -0.701007
      16A     -0.689396    17A     -0.592151    18A     -0.542852
      19A     -0.490412    20A     -0.481267    21A     -0.456369
      22A     -0.452669    23A     -0.408614    24A     -0.392401
      25A     -0.377175    26A     -0.354437    27A     -0.346983
      28A     -0.229198    29A     -0.221970    30A     -0.213345
      31A     -0.202190    32A     -0.197188

  @DF-RHF Final Energy:  -417.90350581116581

   => Energetics <=

    Nuclear Repulsion Energy =            390.6533737030489419
    One-Electron Energy =               -1355.5112445317572565
    Two-Electron Energy =                 546.9543650175425000
    Total Energy =                       -417.9035058111658145
  Basis Set: (AUG-CC-PVTZ AUX)
    Blend: AUG-CC-PVTZ-RI
    Molecular point group: c1

    Geometry (in Angstrom), charge = -1, multiplicity = 1:

       Center              X                  Y                   Z               Mass
    ------------   -----------------  -----------------  -----------------  -----------------
         O            2.296065262745     1.145775069359    -0.002104558604    15.994914619570
         O            2.296066262745    -1.145773930641    -0.002136558604    15.994914619570
         C            0.215794262745     0.000000069359    -0.002123558604    12.000000000000
         C           -0.499817737255    -1.203673930641    -0.002198558604    12.000000000000
         C           -0.499818737255     1.203674069359    -0.001969558604    12.000000000000
         C           -1.896232737255    -1.207332930641    -0.002133558604    12.000000000000
         C           -1.896234737255     1.207333069359    -0.001896558604    12.000000000000
         C           -2.602716737255     0.000000069359    -0.001979558604    12.000000000000
         C            1.764727262745     0.000000069359    -0.002191558604    12.000000000000
         H            0.079980762745    -2.123414130641     0.247694441396     1.007825032230
         H            0.079968262745     2.123392069359    -0.001920558604     1.007825032230
         H           -2.440410737255    -2.152218930641    -0.002201558604     1.007825032230
         H           -2.440412737255     2.152219069359    -0.001773558604     1.007825032230
         H           -3.692452737255    -0.000001930641    -0.001924558604     1.007825032230

  Basis Set: AUG-CC-PVTZ
    Blend: AUG-CC-PVTZ
  Basis Set: (AUG-CC-PVTZ AUX)
    Blend: AUG-CC-PVTZ-JKFIT
	 Reference Energy          =    -417.9035058111658145 [Eh]
	 Singles Energy            =      -0.0000000000000000 [Eh]
	 Same-Spin Energy          =      -0.4435341997814021 [Eh]
	 Opposite-Spin Energy      =      -1.3213751091425279 [Eh]
	 Correlation Energy        =      -1.7649093089239298 [Eh]
	 Total Energy              =    -419.6684151200897190 [Eh]

	 ================> DF-SCS-MP2 Energies <==================
	-----------------------------------------------------------
	 SCS Same-Spin Scale       =       0.3333333333333333 [-]
	 SCS Opposite-Spin Scale   =       1.2000000000000000 [-]
	 SCS Same-Spin Energy      =      -0.1478447332604673 [Eh]
	 SCS Opposite-Spin Energy  =      -1.5856501309710334 [Eh]
	 SCS Correlation Energy    =      -1.7334948642315007 [Eh]
	 SCS Total Energy          =    -419.6370006753973030 [Eh]
	-----------------------------------------------------------

  Dipole Moment: [D]
     X:    -8.6021      Y:     0.0374      Z:     0.1518     Total:     8.6035

*** Psi4 exiting successfully. Buy a developer a beer!
