                               Psi4 1.3.2 release

  ==> Input File <==

--------------------------------------------------------------------------
#psi4
#
memory 32 gb

molecule  {
-1 1
  O        2.3621300     1.1457750    -0.0000250
  O        2.3621310    -1.1457740    -0.0000570
  C        0.2818590     0.0000000    -0.0000440
  C       -0.4337530    -1.2036740    -0.0001190
  C       -0.4337540     1.2036740     0.0001100
  C       -1.8301680    -1.2073330    -0.0000540
  C       -1.8301700     1.2073330     0.0001830
  C       -2.5366520     0.0000000     0.0001000
  C        1.8307920     0.0000000    -0.0001120
  H        0.1460340    -2.1233920    -0.0002260
  H        0.1460330     2.1233920     0.0001590
  H       -2.3743460    -2.1522190    -0.0001220
  H       -2.3743480     2.1522190     0.0003060
  H       -3.6263830    -0.0000118     0.1001550
units angstrom
no_reorient  #important for SAPT in psi4, default
symmetry c1  #important for SAPT in psi4, default
}

set PROPERTIES_ORIGIN ["COM"]
properties('MP2/aug-cc-pvtz', properties = ['dipole'])
--------------------------------------------------------------------------

    Molecular point group: c1
  Charge       = -1
  Multiplicity = 1
  Basis Set: AUG-CC-PVTZ
    Blend: AUG-CC-PVTZ
  Basis Set: (AUG-CC-PVTZ AUX)
    Blend: AUG-CC-PVTZ-JKFIT

    Orbital Energies [Eh]
    ---------------------

    Doubly Occupied:

       1A    -20.309559     2A    -20.309527     3A    -11.159070
       4A    -11.117545     5A    -11.112013     6A    -11.111871
       7A    -11.098312     8A    -11.098229     9A    -11.090127
      10A     -1.180022    11A     -1.083286    12A     -1.016077
      13A     -0.882248    14A     -0.881053    15A     -0.700772
      16A     -0.690713    17A     -0.592665    18A     -0.543819
      19A     -0.490287    20A     -0.482692    21A     -0.456215
      22A     -0.454302    23A     -0.408762    24A     -0.391799
      25A     -0.378166    26A     -0.352115    27A     -0.351367
      28A     -0.229292    29A     -0.222008    30A     -0.213849
      31A     -0.202465    32A     -0.197245

  @DF-RHF Final Energy:  -417.90746692626857

   => Energetics <=

    Nuclear Repulsion Energy =            390.7549042402988562
    One-Electron Energy =               -1355.7097989866281296
    Two-Electron Energy =                 547.0474278200606477
    Total Energy =                       -417.9074669262686257
  Basis Set: (AUG-CC-PVTZ AUX)
    Blend: AUG-CC-PVTZ-RI
    Molecular point group: c1

    Geometry (in Angstrom), charge = -1, multiplicity = 1:

       Center              X                  Y                   Z               Mass
    ------------   -----------------  -----------------  -----------------  -----------------
         O            2.296065316872     1.145774966102    -0.000855487623    15.994914619570
         O            2.296066316872    -1.145774033898    -0.000887487623    15.994914619570
         C            0.215794316872    -0.000000033898    -0.000874487623    12.000000000000
         C           -0.499817683128    -1.203674033898    -0.000949487623    12.000000000000
         C           -0.499818683128     1.203673966102    -0.000720487623    12.000000000000
         C           -1.896232683128    -1.207333033898    -0.000884487623    12.000000000000
         C           -1.896234683128     1.207332966102    -0.000647487623    12.000000000000
         C           -2.602716683128    -0.000000033898    -0.000730487623    12.000000000000
         C            1.764727316872    -0.000000033898    -0.000942487623    12.000000000000
         H            0.079969316872    -2.123392033898    -0.001056487623     1.007825032230
         H            0.079968316872     2.123391966102    -0.000671487623     1.007825032230
         H           -2.440410683128    -2.152219033898    -0.000952487623     1.007825032230
         H           -2.440412683128     2.152218966102    -0.000524487623     1.007825032230
         H           -3.692447683128    -0.000011833898     0.099324512377     1.007825032230

  Basis Set: AUG-CC-PVTZ
    Blend: AUG-CC-PVTZ
  Basis Set: (AUG-CC-PVTZ AUX)
    Blend: AUG-CC-PVTZ-JKFIT
	 Reference Energy          =    -417.9074669262685688 [Eh]
	 Singles Energy            =      -0.0000000000000000 [Eh]
	 Same-Spin Energy          =      -0.4432973820626708 [Eh]
	 Opposite-Spin Energy      =      -1.3208835376578165 [Eh]
	 Correlation Energy        =      -1.7641809197204874 [Eh]
	 Total Energy              =    -419.6716478459890709 [Eh]

	 ================> DF-SCS-MP2 Energies <==================
	-----------------------------------------------------------
	 SCS Same-Spin Scale       =       0.3333333333333333 [-]
	 SCS Opposite-Spin Scale   =       1.2000000000000000 [-]
	 SCS Same-Spin Energy      =      -0.1477657940208902 [Eh]
	 SCS Opposite-Spin Energy  =      -1.5850602451893798 [Eh]
	 SCS Correlation Energy    =      -1.7328260392102701 [Eh]
	 SCS Total Energy          =    -419.6402929654788636 [Eh]
	-----------------------------------------------------------

  Dipole Moment: [D]
     X:    -8.5725      Y:    -0.0000      Z:     0.0693     Total:     8.5728

*** Psi4 exiting successfully. Buy a developer a beer!
