                               Psi4 1.3.2 release

  ==> Input File <==

--------------------------------------------------------------------------
#psi4
#
memory 32 gb

molecule  {
-1 1
  O        2.3621300     1.1457750    -0.0000250
  O        2.3621310    -1.1457740    -0.0000570
  C        0.2818590     0.0000000    -0.0000440
  C       -0.4337530    -1.2036740    -0.0001190
  C       -0.4337540     1.2036740     0.0001100
  C       -1.8301680    -1.2073330    -0.0000540
  C       -1.8301700     1.2073330     0.0001830
  C       -2.5366520     0.0000000     0.0001000
  C        1.8307920     0.0000000    -0.0001120
  H        0.1460386    -2.1234009     0.0997740
  H        0.1460330     2.1233920     0.0001590
  H       -2.3743460    -2.1522190    -0.0001220
  H       -2.3743480     2.1522190     0.0003060
  H       -3.6263880    -0.0000020     0.0001550
units angstrom
no_reorient  #important for SAPT in psi4, default
symmetry c1  #important for SAPT in psi4, default
}

set PROPERTIES_ORIGIN ["COM"]
properties('MP2/aug-cc-pvtz', properties = ['dipole'])
--------------------------------------------------------------------------

    Molecular point group: c1
  Charge       = -1
  Multiplicity = 1
  Basis Set: AUG-CC-PVTZ
    Blend: AUG-CC-PVTZ
  Basis Set: (AUG-CC-PVTZ AUX)
    Blend: AUG-CC-PVTZ-JKFIT

    Orbital Energies [Eh]
    ---------------------

    Doubly Occupied:

       1A    -20.309488     2A    -20.309445     3A    -11.158996
       4A    -11.117163     5A    -11.111983     6A    -11.111832
       7A    -11.098653     8A    -11.098253     9A    -11.090085
      10A     -1.179945    11A     -1.083207    12A     -1.016070
      13A     -0.882353    14A     -0.880927    15A     -0.701040
      16A     -0.690446    17A     -0.592549    18A     -0.544224
      19A     -0.490257    20A     -0.482400    21A     -0.456429
      22A     -0.454008    23A     -0.408689    24A     -0.391673
      25A     -0.378205    26A     -0.353125    27A     -0.350249
      28A     -0.229225    29A     -0.221942    30A     -0.213718
      31A     -0.202372    32A     -0.197243

  @DF-RHF Final Energy:  -417.90738451660559

   => Energetics <=

    Nuclear Repulsion Energy =            390.7525670183042621
    One-Electron Energy =               -1355.7075161798275076
    Two-Electron Energy =                 547.0475646449176566
    Total Energy =                       -417.9073845166055889
  Basis Set: (AUG-CC-PVTZ AUX)
    Blend: AUG-CC-PVTZ-RI
    Molecular point group: c1

    Geometry (in Angstrom), charge = -1, multiplicity = 1:

       Center              X                  Y                   Z               Mass
    ------------   -----------------  -----------------  -----------------  -----------------
         O            2.296065320203     1.145774958608    -0.000855487623    15.994914619570
         O            2.296066320203    -1.145774041392    -0.000887487623    15.994914619570
         C            0.215794320203    -0.000000041392    -0.000874487623    12.000000000000
         C           -0.499817679797    -1.203674041392    -0.000949487623    12.000000000000
         C           -0.499818679797     1.203673958608    -0.000720487623    12.000000000000
         C           -1.896232679797    -1.207333041392    -0.000884487623    12.000000000000
         C           -1.896234679797     1.207332958608    -0.000647487623    12.000000000000
         C           -2.602716679797    -0.000000041392    -0.000730487623    12.000000000000
         C            1.764727320203    -0.000000041392    -0.000942487623    12.000000000000
         H            0.079973920203    -2.123400941392     0.098943512377     1.007825032230
         H            0.079968320203     2.123391958608    -0.000671487623     1.007825032230
         H           -2.440410679797    -2.152219041392    -0.000952487623     1.007825032230
         H           -2.440412679797     2.152218958608    -0.000524487623     1.007825032230
         H           -3.692452679797    -0.000002041392    -0.000675487623     1.007825032230

  Basis Set: AUG-CC-PVTZ
    Blend: AUG-CC-PVTZ
  Basis Set: (AUG-CC-PVTZ AUX)
    Blend: AUG-CC-PVTZ-JKFIT
	 Reference Energy          =    -417.9073845166055889 [Eh]
	 Singles Energy            =      -0.0000000000000000 [Eh]
	 Same-Spin Energy          =      -0.4433058692264694 [Eh]
	 Opposite-Spin Energy      =      -1.3208892065673865 [Eh]
	 Correlation Energy        =      -1.7641950757938560 [Eh]
	 Total Energy              =    -419.6715795923994392 [Eh]

	 ================> DF-SCS-MP2 Energies <==================
	-----------------------------------------------------------
	 SCS Same-Spin Scale       =       0.3333333333333333 [-]
	 SCS Opposite-Spin Scale   =       1.2000000000000000 [-]
	 SCS Same-Spin Energy      =      -0.1477686230754898 [Eh]
	 SCS Opposite-Spin Energy  =      -1.5850670478808637 [Eh]
	 SCS Correlation Energy    =      -1.7328356709563535 [Eh]
	 SCS Total Energy          =    -419.6402201875619653 [Eh]
	-----------------------------------------------------------

  Dipole Moment: [D]
     X:    -8.5881      Y:     0.0061      Z:     0.0617     Total:     8.5884

*** Psi4 exiting successfully. Buy a developer a beer!
