                               Psi4 1.3.2 release

  ==> Input File <==

--------------------------------------------------------------------------
#psi4
#
memory 32 gb

molecule  {
0 1
  F        1.7208570    -1.0902790    -0.8752740
  F        3.1532380    -0.0000170     0.3563710
  F        1.7208700     1.0903230    -0.8752070
  C        0.8974370    -0.0000310     1.0591370
  C       -0.5302430    -0.0000150     0.5808570
  C        1.8276757     0.0887782    -0.1227975
  C       -1.1941760     1.2077490     0.3361880
  C       -1.1942010    -1.2077630     0.3361780
  C       -2.5084950     1.2080460    -0.1321620
  C       -2.5085200    -1.2080290    -0.1321720
  C       -3.1681670     0.0000160    -0.3683210
  H        1.1172230    -0.8840660     1.6657090
  H        1.1172220     0.8839640     1.6657670
  H       -0.6807710     2.1502980     0.5162590
  H       -0.6808140    -2.1503240     0.5162400
  H       -3.0168760     2.1516900    -0.3146600
  H       -3.0169200    -2.1516620    -0.3146780
  H       -4.1931340     0.0000280    -0.7308390
units angstrom
no_reorient  #important for SAPT in psi4, default
symmetry c1  #important for SAPT in psi4, default
}

set PROPERTIES_ORIGIN ["COM"]
properties('MP2/aug-cc-pvtz', properties = ['dipole'])
--------------------------------------------------------------------------

    Molecular point group: c1
  Charge       = 0
  Multiplicity = 1
  Basis Set: AUG-CC-PVTZ
    Blend: AUG-CC-PVTZ
  Basis Set: (AUG-CC-PVTZ AUX)
    Blend: AUG-CC-PVTZ-JKFIT

    Orbital Energies [Eh]
    ---------------------

    Doubly Occupied:

       1A    -26.371975     2A    -26.312527     3A    -26.310442
       4A    -11.505556     5A    -11.268753     6A    -11.259247
       7A    -11.248907     8A    -11.248009     9A    -11.247510
      10A    -11.246789    11A    -11.245862    12A     -1.748681
      13A     -1.630364    14A     -1.590315    15A     -1.171576
      16A     -1.096293    17A     -1.025651    18A     -1.006385
      19A     -0.927124    20A     -0.841948    21A     -0.833661
      22A     -0.822043    23A     -0.814572    24A     -0.776229
      25A     -0.710850    26A     -0.701728    27A     -0.688196
      28A     -0.667085    29A     -0.648923    30A     -0.645819
      31A     -0.642764    32A     -0.624375    33A     -0.597767
      34A     -0.588591    35A     -0.578941    36A     -0.564563
      37A     -0.507005    38A     -0.503632    39A     -0.501884
      40A     -0.347628    41A     -0.344550

  @DF-RHF Final Energy:  -605.57212616595757

   => Energetics <=

    Nuclear Repulsion Energy =            617.2171393923399592
    One-Electron Energy =               -2058.7490853243061792
    Two-Electron Energy =                 835.9598197660086498
    Total Energy =                       -605.5721261659575703
  Basis Set: (AUG-CC-PVTZ AUX)
    Blend: AUG-CC-PVTZ-RI
    Molecular point group: c1

    Geometry (in Angstrom), charge = 0, multiplicity = 1:

       Center              X                  Y                   Z               Mass
    ------------   -----------------  -----------------  -----------------  -----------------
         F            1.625122742716    -1.096936012779    -0.845435377862    18.998403162730
         F            3.057503742716    -0.006674012779     0.386209622138    18.998403162730
         F            1.625135742716     1.083665987221    -0.845368377862    18.998403162730
         C            0.801702742716    -0.006688012779     1.088975622138    12.000000000000
         C           -0.625977257284    -0.006672012779     0.610695622138    12.000000000000
         C            1.731941442716     0.082121187221    -0.092958877862    12.000000000000
         C           -1.289910257284     1.201091987221     0.366026622138    12.000000000000
         C           -1.289935257284    -1.214420012779     0.366016622138    12.000000000000
         C           -2.604229257284     1.201388987221    -0.102323377862    12.000000000000
         C           -2.604254257284    -1.214686012779    -0.102333377862    12.000000000000
         C           -3.263901257284    -0.006641012779    -0.338482377862    12.000000000000
         H            1.021488742716    -0.890723012779     1.695547622138     1.007825032230
         H            1.021487742716     0.877306987221     1.695605622138     1.007825032230
         H           -0.776505257284     2.143640987221     0.546097622138     1.007825032230
         H           -0.776548257284    -2.156981012779     0.546078622138     1.007825032230
         H           -3.112610257284     2.145032987221    -0.284821377862     1.007825032230
         H           -3.112654257284    -2.158319012779    -0.284839377862     1.007825032230
         H           -4.288868257284    -0.006629012779    -0.701000377862     1.007825032230

  Basis Set: AUG-CC-PVTZ
    Blend: AUG-CC-PVTZ
  Basis Set: (AUG-CC-PVTZ AUX)
    Blend: AUG-CC-PVTZ-JKFIT
	 Reference Energy          =    -605.5721261659575703 [Eh]
	 Singles Energy            =      -0.0000000000000000 [Eh]
	 Same-Spin Energy          =      -0.5620889494630005 [Eh]
	 Opposite-Spin Energy      =      -1.6945252882469108 [Eh]
	 Correlation Energy        =      -2.2566142377099112 [Eh]
	 Total Energy              =    -607.8287404036674388 [Eh]

	 ================> DF-SCS-MP2 Energies <==================
	-----------------------------------------------------------
	 SCS Same-Spin Scale       =       0.3333333333333333 [-]
	 SCS Opposite-Spin Scale   =       1.2000000000000000 [-]
	 SCS Same-Spin Energy      =      -0.1873629831543335 [Eh]
	 SCS Opposite-Spin Energy  =      -2.0334303458962930 [Eh]
	 SCS Correlation Energy    =      -2.2207933290506263 [Eh]
	 SCS Total Energy          =    -607.7929194950081637 [Eh]
	-----------------------------------------------------------

  Dipole Moment: [D]
     X:    -2.1859      Y:     0.6159      Z:     1.2216     Total:     2.5787

*** Psi4 exiting successfully. Buy a developer a beer!
