                               Psi4 1.3.2 release

  ==> Input File <==

--------------------------------------------------------------------------
#psi4
#
memory 32 gb

molecule  {
0 1
  F        1.7033702    -1.0976939    -0.8612525
  F        3.1532380    -0.0000170     0.3563710
  F        1.7208700     1.0903230    -0.8752070
  C        0.8974370    -0.0000310     1.0591370
  C       -0.5302430    -0.0000150     0.5808570
  C        1.8729300     0.0000000    -0.0891720
  C       -1.1941760     1.2077490     0.3361880
  C       -1.1942010    -1.2077630     0.3361780
  C       -2.5084950     1.2080460    -0.1321620
  C       -2.5085200    -1.2080290    -0.1321720
  C       -3.1681670     0.0000160    -0.3683210
  H        1.1172230    -0.8840660     1.6657090
  H        1.1172220     0.8839640     1.6657670
  H       -0.6807710     2.1502980     0.5162590
  H       -0.6808140    -2.1503240     0.5162400
  H       -3.0168760     2.1516900    -0.3146600
  H       -3.0169200    -2.1516620    -0.3146780
  H       -4.1931340     0.0000280    -0.7308390
units angstrom
no_reorient  #important for SAPT in psi4, default
symmetry c1  #important for SAPT in psi4, default
}

set PROPERTIES_ORIGIN ["COM"]
properties('MP2/aug-cc-pvtz', properties = ['dipole'])
--------------------------------------------------------------------------

    Molecular point group: c1
  Charge       = 0
  Multiplicity = 1
  Basis Set: AUG-CC-PVTZ
    Blend: AUG-CC-PVTZ
  Basis Set: (AUG-CC-PVTZ AUX)
    Blend: AUG-CC-PVTZ-JKFIT

    Orbital Energies [Eh]
    ---------------------

    Doubly Occupied:

       1A    -26.333936     2A    -26.333169     3A    -26.332924
       4A    -11.503706     5A    -11.267003     6A    -11.258090
       7A    -11.246944     8A    -11.246903     9A    -11.245951
      10A    -11.245270    11A    -11.244427    12A     -1.716584
      13A     -1.626326    14A     -1.625463    15A     -1.169534
      16A     -1.094149    17A     -1.024032    18A     -1.005308
      19A     -0.916881    20A     -0.839647    21A     -0.829213
      22A     -0.814509    23A     -0.810152    24A     -0.767268
      25A     -0.710131    26A     -0.705900    27A     -0.697681
      28A     -0.663247    29A     -0.659106    30A     -0.644809
      31A     -0.643709    32A     -0.642951    33A     -0.596032
      34A     -0.584323    35A     -0.576396    36A     -0.568235
      37A     -0.504933    38A     -0.503913    39A     -0.500817
      40A     -0.345848    41A     -0.343087

  @DF-RHF Final Energy:  -605.58379496326916

   => Energetics <=

    Nuclear Repulsion Energy =            617.0518648700927997
    One-Electron Energy =               -2058.4943020771620468
    Two-Electron Energy =                 835.8586422438002046
    Total Energy =                       -605.5837949632691561
  Basis Set: (AUG-CC-PVTZ AUX)
    Blend: AUG-CC-PVTZ-RI
    Molecular point group: c1

    Geometry (in Angstrom), charge = 0, multiplicity = 1:

       Center              X                  Y                   Z               Mass
    ------------   -----------------  -----------------  -----------------  -----------------
         F            1.606318664717    -1.096814456829    -0.835599395975    18.998403162730
         F            3.056186464717     0.000862443171     0.382024104025    18.998403162730
         F            1.623818464717     1.091202443171    -0.849553895975    18.998403162730
         C            0.800385464717     0.000848443171     1.084790104025    12.000000000000
         C           -0.627294535283     0.000864443171     0.606510104025    12.000000000000
         C            1.775878464717     0.000879443171    -0.063518895975    12.000000000000
         C           -1.291227535283     1.208628443171     0.361841104025    12.000000000000
         C           -1.291252535283    -1.206883556829     0.361831104025    12.000000000000
         C           -2.605546535283     1.208925443171    -0.106508895975    12.000000000000
         C           -2.605571535283    -1.207149556829    -0.106518895975    12.000000000000
         C           -3.265218535283     0.000895443171    -0.342667895975    12.000000000000
         H            1.020171464717    -0.883186556829     1.691362104025     1.007825032230
         H            1.020170464717     0.884843443171     1.691420104025     1.007825032230
         H           -0.777822535283     2.151177443171     0.541912104025     1.007825032230
         H           -0.777865535283    -2.149444556829     0.541893104025     1.007825032230
         H           -3.113927535283     2.152569443171    -0.289006895975     1.007825032230
         H           -3.113971535283    -2.150782556829    -0.289024895975     1.007825032230
         H           -4.290185535283     0.000907443171    -0.705185895975     1.007825032230

  Basis Set: AUG-CC-PVTZ
    Blend: AUG-CC-PVTZ
  Basis Set: (AUG-CC-PVTZ AUX)
    Blend: AUG-CC-PVTZ-JKFIT
	 Reference Energy          =    -605.5837949632691561 [Eh]
	 Singles Energy            =      -0.0000000000000000 [Eh]
	 Same-Spin Energy          =      -0.5616746863948618 [Eh]
	 Opposite-Spin Energy      =      -1.6938220431458331 [Eh]
	 Correlation Energy        =      -2.2554967295406949 [Eh]
	 Total Energy              =    -607.8392916928098657 [Eh]

	 ================> DF-SCS-MP2 Energies <==================
	-----------------------------------------------------------
	 SCS Same-Spin Scale       =       0.3333333333333333 [-]
	 SCS Opposite-Spin Scale   =       1.2000000000000000 [-]
	 SCS Same-Spin Energy      =      -0.1872248954649539 [Eh]
	 SCS Opposite-Spin Energy  =      -2.0325864517749994 [Eh]
	 SCS Correlation Energy    =      -2.2198113472399532 [Eh]
	 SCS Total Energy          =    -607.8036063105090534 [Eh]
	-----------------------------------------------------------

  Dipole Moment: [D]
     X:    -1.7651      Y:     0.0018      Z:     1.4315     Total:     2.2726

*** Psi4 exiting successfully. Buy a developer a beer!
