                               Psi4 1.3.2 release

  ==> Input File <==

--------------------------------------------------------------------------
#psi4
#
memory 32 gb

molecule  {
0 1
  F        1.7208570    -1.0902790    -0.8752740
  F        3.1532380    -0.0000170     0.3563710
  F        1.7208700     1.0903230    -0.8752070
  C        0.8974370    -0.0000310     1.0591370
  C       -0.5216784    -0.0000143     0.5560134
  C        1.8729300     0.0000000    -0.0891720
  C       -1.1941760     1.2077490     0.3361880
  C       -1.1942010    -1.2077630     0.3361780
  C       -2.5084950     1.2080460    -0.1321620
  C       -2.5085200    -1.2080290    -0.1321720
  C       -3.1681670     0.0000160    -0.3683210
  H        1.1172230    -0.8840660     1.6657090
  H        1.1172220     0.8839640     1.6657670
  H       -0.6807710     2.1502980     0.5162590
  H       -0.6808140    -2.1503240     0.5162400
  H       -3.0168760     2.1516900    -0.3146600
  H       -3.0169200    -2.1516620    -0.3146780
  H       -4.1931340     0.0000280    -0.7308390
units angstrom
no_reorient  #important for SAPT in psi4, default
symmetry c1  #important for SAPT in psi4, default
}

set PROPERTIES_ORIGIN ["COM"]
properties('MP2/aug-cc-pvtz', properties = ['dipole'])
--------------------------------------------------------------------------

    Molecular point group: c1
  Charge       = 0
  Multiplicity = 1
  Basis Set: AUG-CC-PVTZ
    Blend: AUG-CC-PVTZ
  Basis Set: (AUG-CC-PVTZ AUX)
    Blend: AUG-CC-PVTZ-JKFIT

    Orbital Energies [Eh]
    ---------------------

    Doubly Occupied:

       1A    -26.332676     2A    -26.332272     3A    -26.332250
       4A    -11.503076     5A    -11.267961     6A    -11.258386
       7A    -11.247115     8A    -11.247107     9A    -11.246105
      10A    -11.245456    11A    -11.244567    12A     -1.716420
      13A     -1.625103    14A     -1.624613    15A     -1.169870
      16A     -1.094729    17A     -1.024223    18A     -1.005225
      19A     -0.916728    20A     -0.839828    21A     -0.829272
      22A     -0.813560    23A     -0.809463    24A     -0.767181
      25A     -0.710227    26A     -0.705083    27A     -0.697474
      28A     -0.662134    29A     -0.658180    30A     -0.644162
      31A     -0.644028    32A     -0.642342    33A     -0.596268
      34A     -0.585598    35A     -0.576682    36A     -0.568978
      37A     -0.506001    38A     -0.503307    39A     -0.501127
      40A     -0.346019    41A     -0.343259

  @DF-RHF Final Energy:  -605.58383975795414

   => Energetics <=

    Nuclear Repulsion Energy =            617.0521602405609656
    One-Electron Energy =               -2058.5038888122576282
    Two-Electron Energy =                 835.8678888137424110
    Total Energy =                       -605.5838397579541379
  Basis Set: (AUG-CC-PVTZ AUX)
    Blend: AUG-CC-PVTZ-RI
    Molecular point group: c1

    Geometry (in Angstrom), charge = 0, multiplicity = 1:

       Center              X                  Y                   Z               Mass
    ------------   -----------------  -----------------  -----------------  -----------------
         F            1.621087585817    -1.090279779716    -0.846093814664    18.998403162730
         F            3.053468585817    -0.000017779716     0.385551185336    18.998403162730
         F            1.621100585817     1.090322220284    -0.846026814664    18.998403162730
         C            0.797667585817    -0.000031779716     1.088317185336    12.000000000000
         C           -0.621447814183    -0.000015079716     0.585193585336    12.000000000000
         C            1.773160585817    -0.000000779716    -0.059991814664    12.000000000000
         C           -1.293945414183     1.207748220284     0.365368185336    12.000000000000
         C           -1.293970414183    -1.207763779716     0.365358185336    12.000000000000
         C           -2.608264414183     1.208045220284    -0.102981814664    12.000000000000
         C           -2.608289414183    -1.208029779716    -0.102991814664    12.000000000000
         C           -3.267936414183     0.000015220284    -0.339140814664    12.000000000000
         H            1.017453585817    -0.884066779716     1.694889185336     1.007825032230
         H            1.017452585817     0.883963220284     1.694947185336     1.007825032230
         H           -0.780540414183     2.150297220284     0.545439185336     1.007825032230
         H           -0.780583414183    -2.150324779716     0.545420185336     1.007825032230
         H           -3.116645414183     2.151689220284    -0.285479814664     1.007825032230
         H           -3.116689414183    -2.151662779716    -0.285497814664     1.007825032230
         H           -4.292903414183     0.000027220284    -0.701658814664     1.007825032230

  Basis Set: AUG-CC-PVTZ
    Blend: AUG-CC-PVTZ
  Basis Set: (AUG-CC-PVTZ AUX)
    Blend: AUG-CC-PVTZ-JKFIT
	 Reference Energy          =    -605.5838397579541379 [Eh]
	 Singles Energy            =      -0.0000000000000000 [Eh]
	 Same-Spin Energy          =      -0.5616636435752642 [Eh]
	 Opposite-Spin Energy      =      -1.6937866495536105 [Eh]
	 Correlation Energy        =      -2.2554502931288747 [Eh]
	 Total Energy              =    -607.8392900510830259 [Eh]

	 ================> DF-SCS-MP2 Energies <==================
	-----------------------------------------------------------
	 SCS Same-Spin Scale       =       0.3333333333333333 [-]
	 SCS Opposite-Spin Scale   =       1.2000000000000000 [-]
	 SCS Same-Spin Energy      =      -0.1872212145250881 [Eh]
	 SCS Opposite-Spin Energy  =      -2.0325439794643323 [Eh]
	 SCS Correlation Energy    =      -2.2197651939894203 [Eh]
	 SCS Total Energy          =    -607.8036049519436119 [Eh]
	-----------------------------------------------------------

  Dipole Moment: [D]
     X:    -1.8028      Y:    -0.0000      Z:     1.4730     Total:     2.3280

*** Psi4 exiting successfully. Buy a developer a beer!
