                               Psi4 1.3.2 release

  ==> Input File <==

--------------------------------------------------------------------------
#psi4
#
memory 32 gb

molecule  {
0 1
  F        1.7208570    -1.0902790    -0.8752740
  F        3.1532380    -0.0000170     0.3563710
  F        1.7208700     1.0903230    -0.8752070
  C        0.8974370    -0.0000310     1.0591370
  C       -0.5302430    -0.0000150     0.5808570
  C        1.8729300     0.0000000    -0.0891720
  C       -1.1941760     1.2077490     0.3361880
  C       -1.1942010    -1.2077630     0.3361780
  C       -2.5084950     1.2080460    -0.1321620
  C       -2.5085200    -1.2080290    -0.1321720
  C       -3.1681670     0.0000160    -0.3683210
  H        1.1172230    -0.8840660     1.6657090
  H        1.1172220     0.8839640     1.6657670
  H       -0.6807710     2.1502980     0.5162590
  H       -0.6808140    -2.1503240     0.5162400
  H       -3.0168760     2.1516900    -0.3146600
  H       -3.0169200    -2.1516620    -0.3146780
  H       -4.1931340     0.0000280    -0.7308390
units angstrom
no_reorient  #important for SAPT in psi4, default
symmetry c1  #important for SAPT in psi4, default
}

set PROPERTIES_ORIGIN ["COM"]
properties('MP2/aug-cc-pvtz', properties = ['dipole'])
--------------------------------------------------------------------------

    Molecular point group: c1
  Charge       = 0
  Multiplicity = 1
  Basis Set: AUG-CC-PVTZ
    Blend: AUG-CC-PVTZ
  Basis Set: (AUG-CC-PVTZ AUX)
    Blend: AUG-CC-PVTZ-JKFIT

    Orbital Energies [Eh]
    ---------------------

    Doubly Occupied:

       1A    -26.333091     2A    -26.332329     3A    -26.332308
       4A    -11.503503     5A    -11.267833     6A    -11.258419
       7A    -11.247188     8A    -11.247180     9A    -11.246192
      10A    -11.245509    11A    -11.244658    12A     -1.716548
      13A     -1.625140    14A     -1.624837    15A     -1.169833
      16A     -1.094479    17A     -1.024274    18A     -1.005393
      19A     -0.916941    20A     -0.839874    21A     -0.829343
      22A     -0.813684    23A     -0.809739    24A     -0.767454
      25A     -0.710136    26A     -0.705139    27A     -0.697556
      28A     -0.662203    29A     -0.658204    30A     -0.644264
      31A     -0.643874    32A     -0.642561    33A     -0.596283
      34A     -0.584826    35A     -0.577390    36A     -0.568833
      37A     -0.505243    38A     -0.504213    39A     -0.501078
      40A     -0.346083    41A     -0.343375

  @DF-RHF Final Energy:  -605.58409676631777

   => Energetics <=

    Nuclear Repulsion Energy =            616.8600825863177306
    One-Electron Energy =               -2058.1143466976300260
    Two-Electron Energy =                 835.6701673449945247
    Total Energy =                       -605.5840967663177707
  Basis Set: (AUG-CC-PVTZ AUX)
    Blend: AUG-CC-PVTZ-RI
    Molecular point group: c1

    Geometry (in Angstrom), charge = 0, multiplicity = 1:

       Center              X                  Y                   Z               Mass
    ------------   -----------------  -----------------  -----------------  -----------------
         F            1.621729730208    -1.090279727232    -0.847956502752    18.998403162730
         F            3.054110730208    -0.000017727232     0.383688497248    18.998403162730
         F            1.621742730208     1.090322272768    -0.847889502752    18.998403162730
         C            0.798309730208    -0.000031727232     1.086454497248    12.000000000000
         C           -0.629370269792    -0.000015727232     0.608174497248    12.000000000000
         C            1.773802730208    -0.000000727232    -0.061854502752    12.000000000000
         C           -1.293303269792     1.207748272768     0.363505497248    12.000000000000
         C           -1.293328269792    -1.207763727232     0.363495497248    12.000000000000
         C           -2.607622269792     1.208045272768    -0.104844502752    12.000000000000
         C           -2.607647269792    -1.208029727232    -0.104854502752    12.000000000000
         C           -3.267294269792     0.000015272768    -0.341003502752    12.000000000000
         H            1.018095730208    -0.884066727232     1.693026497248     1.007825032230
         H            1.018094730208     0.883963272768     1.693084497248     1.007825032230
         H           -0.779898269792     2.150297272768     0.543576497248     1.007825032230
         H           -0.779941269792    -2.150324727232     0.543557497248     1.007825032230
         H           -3.116003269792     2.151689272768    -0.287342502752     1.007825032230
         H           -3.116047269792    -2.151662727232    -0.287360502752     1.007825032230
         H           -4.292261269792     0.000027272768    -0.703521502752     1.007825032230

  Basis Set: AUG-CC-PVTZ
    Blend: AUG-CC-PVTZ
  Basis Set: (AUG-CC-PVTZ AUX)
    Blend: AUG-CC-PVTZ-JKFIT
	 Reference Energy          =    -605.5840967663177707 [Eh]
	 Singles Energy            =      -0.0000000000000000 [Eh]
	 Same-Spin Energy          =      -0.5616209228841644 [Eh]
	 Opposite-Spin Energy      =      -1.6937075978357077 [Eh]
	 Correlation Energy        =      -2.2553285207198721 [Eh]
	 Total Energy              =    -607.8394252870376704 [Eh]

	 ================> DF-SCS-MP2 Energies <==================
	-----------------------------------------------------------
	 SCS Same-Spin Scale       =       0.3333333333333333 [-]
	 SCS Opposite-Spin Scale   =       1.2000000000000000 [-]
	 SCS Same-Spin Energy      =      -0.1872069742947215 [Eh]
	 SCS Opposite-Spin Energy  =      -2.0324491174028489 [Eh]
	 SCS Correlation Energy    =      -2.2196560916975705 [Eh]
	 SCS Total Energy          =    -607.8037528580152866 [Eh]
	-----------------------------------------------------------

  Dipole Moment: [D]
     X:    -1.8038      Y:    -0.0000      Z:     1.4592     Total:     2.3201

*** Psi4 exiting successfully. Buy a developer a beer!
