                               Psi4 1.3.2 release

  ==> Input File <==

--------------------------------------------------------------------------
#psi4
#
memory 32 gb

molecule  {
0 1
  F        1.7208570    -1.0902790    -0.8752740
  F        3.1532380    -0.0000170     0.3563710
  F        1.7208700     1.0903230    -0.8752070
  C        0.8974370    -0.0000310     1.0591370
  C       -0.5383727    -0.0000157     0.6058463
  C        1.8729300     0.0000000    -0.0891720
  C       -1.1941760     1.2077490     0.3361880
  C       -1.1942010    -1.2077630     0.3361780
  C       -2.5084950     1.2080460    -0.1321620
  C       -2.5085200    -1.2080290    -0.1321720
  C       -3.1681670     0.0000160    -0.3683210
  H        1.1172230    -0.8840660     1.6657090
  H        1.1172220     0.8839640     1.6657670
  H       -0.6807710     2.1502980     0.5162590
  H       -0.6808140    -2.1503240     0.5162400
  H       -3.0168760     2.1516900    -0.3146600
  H       -3.0169200    -2.1516620    -0.3146780
  H       -4.1931340     0.0000280    -0.7308390
units angstrom
no_reorient  #important for SAPT in psi4, default
symmetry c1  #important for SAPT in psi4, default
}

set PROPERTIES_ORIGIN ["COM"]
properties('MP2/aug-cc-pvtz', properties = ['dipole'])
--------------------------------------------------------------------------

    Molecular point group: c1
  Charge       = 0
  Multiplicity = 1
  Basis Set: AUG-CC-PVTZ
    Blend: AUG-CC-PVTZ
  Basis Set: (AUG-CC-PVTZ AUX)
    Blend: AUG-CC-PVTZ-JKFIT

    Orbital Energies [Eh]
    ---------------------

    Doubly Occupied:

       1A    -26.333482     2A    -26.332376     3A    -26.332354
       4A    -11.503912     5A    -11.267695     6A    -11.258570
       7A    -11.247376     8A    -11.247369     9A    -11.246347
      10A    -11.245571    11A    -11.244786    12A     -1.716665
      13A     -1.625169    14A     -1.625042    15A     -1.169698
      16A     -1.094237    17A     -1.024289    18A     -1.005488
      19A     -0.917133    20A     -0.839810    21A     -0.829434
      22A     -0.813793    23A     -0.809999    24A     -0.767686
      25A     -0.710025    26A     -0.705189    27A     -0.697635
      28A     -0.662256    29A     -0.658232    30A     -0.644313
      31A     -0.643737    32A     -0.642739    33A     -0.596248
      34A     -0.584038    35A     -0.578016    36A     -0.568663
      37A     -0.505586    38A     -0.503904    39A     -0.500917
      40A     -0.346088    41A     -0.343462

  @DF-RHF Final Energy:  -605.58381634776629

   => Energetics <=

    Nuclear Repulsion Energy =            616.6515768482611293
    One-Electron Energy =               -2057.6921311035207509
    Two-Electron Energy =                 835.4567379074933342
    Total Energy =                       -605.5838163477662874
  Basis Set: (AUG-CC-PVTZ AUX)
    Blend: AUG-CC-PVTZ-RI
    Molecular point group: c1

    Geometry (in Angstrom), charge = 0, multiplicity = 1:

       Center              X                  Y                   Z               Mass
    ------------   -----------------  -----------------  -----------------  -----------------
         F            1.622339267286    -1.090279674748    -0.849830114927    18.998403162730
         F            3.054720267286    -0.000017674748     0.381814885073    18.998403162730
         F            1.622352267286     1.090322325252    -0.849763114927    18.998403162730
         C            0.798919267286    -0.000031674748     1.084580885073    12.000000000000
         C           -0.636890432714    -0.000016374748     0.631290185073    12.000000000000
         C            1.774412267286    -0.000000674748    -0.063728114927    12.000000000000
         C           -1.292693732714     1.207748325252     0.361631885073    12.000000000000
         C           -1.292718732714    -1.207763674748     0.361621885073    12.000000000000
         C           -2.607012732714     1.208045325252    -0.106718114927    12.000000000000
         C           -2.607037732714    -1.208029674748    -0.106728114927    12.000000000000
         C           -3.266684732714     0.000015325252    -0.342877114927    12.000000000000
         H            1.018705267286    -0.884066674748     1.691152885073     1.007825032230
         H            1.018704267286     0.883963325252     1.691210885073     1.007825032230
         H           -0.779288732714     2.150297325252     0.541702885073     1.007825032230
         H           -0.779331732714    -2.150324674748     0.541683885073     1.007825032230
         H           -3.115393732714     2.151689325252    -0.289216114927     1.007825032230
         H           -3.115437732714    -2.151662674748    -0.289234114927     1.007825032230
         H           -4.291651732714     0.000027325252    -0.705395114927     1.007825032230

  Basis Set: AUG-CC-PVTZ
    Blend: AUG-CC-PVTZ
  Basis Set: (AUG-CC-PVTZ AUX)
    Blend: AUG-CC-PVTZ-JKFIT
	 Reference Energy          =    -605.5838163477662874 [Eh]
	 Singles Energy            =      -0.0000000000000000 [Eh]
	 Same-Spin Energy          =      -0.5616068014001576 [Eh]
	 Opposite-Spin Energy      =      -1.6937062359212280 [Eh]
	 Correlation Energy        =      -2.2553130373213857 [Eh]
	 Total Energy              =    -607.8391293850876309 [Eh]

	 ================> DF-SCS-MP2 Energies <==================
	-----------------------------------------------------------
	 SCS Same-Spin Scale       =       0.3333333333333333 [-]
	 SCS Opposite-Spin Scale   =       1.2000000000000000 [-]
	 SCS Same-Spin Energy      =      -0.1872022671333859 [Eh]
	 SCS Opposite-Spin Energy  =      -2.0324474831054737 [Eh]
	 SCS Correlation Energy    =      -2.2196497502388595 [Eh]
	 SCS Total Energy          =    -607.8034660980051740 [Eh]
	-----------------------------------------------------------

  Dipole Moment: [D]
     X:    -1.8073      Y:    -0.0000      Z:     1.4443     Total:     2.3135

*** Psi4 exiting successfully. Buy a developer a beer!
