                               Psi4 1.3.2 release

  ==> Input File <==

--------------------------------------------------------------------------
#psi4
#
memory 32 gb

molecule  {
0 1
  F        1.7208570    -1.0902790    -0.8752740
  F        3.1532380    -0.0000170     0.3563710
  F        1.7208700     1.0903230    -0.8752070
  C        0.8974370    -0.0000310     1.0591370
  C       -0.5126816    -0.0000136     0.5313230
  C        1.8729300     0.0000000    -0.0891720
  C       -1.1941760     1.2077490     0.3361880
  C       -1.1942010    -1.2077630     0.3361780
  C       -2.5084950     1.2080460    -0.1321620
  C       -2.5085200    -1.2080290    -0.1321720
  C       -3.1681670     0.0000160    -0.3683210
  H        1.1172230    -0.8840660     1.6657090
  H        1.1172220     0.8839640     1.6657670
  H       -0.6807710     2.1502980     0.5162590
  H       -0.6808140    -2.1503240     0.5162400
  H       -3.0168760     2.1516900    -0.3146600
  H       -3.0169200    -2.1516620    -0.3146780
  H       -4.1931340     0.0000280    -0.7308390
units angstrom
no_reorient  #important for SAPT in psi4, default
symmetry c1  #important for SAPT in psi4, default
}

set PROPERTIES_ORIGIN ["COM"]
properties('MP2/aug-cc-pvtz', properties = ['dipole'])
--------------------------------------------------------------------------

    Molecular point group: c1
  Charge       = 0
  Multiplicity = 1
  Basis Set: AUG-CC-PVTZ
    Blend: AUG-CC-PVTZ
  Basis Set: (AUG-CC-PVTZ AUX)
    Blend: AUG-CC-PVTZ-JKFIT

    Orbital Energies [Eh]
    ---------------------

    Doubly Occupied:

       1A    -26.332238     2A    -26.332204     3A    -26.332179
       4A    -11.502631     5A    -11.268080     6A    -11.258470
       7A    -11.247155     8A    -11.247147     9A    -11.246082
      10A    -11.245415    11A    -11.244518    12A     -1.716280
      13A     -1.625059    14A     -1.624372    15A     -1.169809
      16A     -1.094989    17A     -1.024134    18A     -1.004984
      19A     -0.916495    20A     -0.839671    21A     -0.829222
      22A     -0.813421    23A     -0.809169    24A     -0.766871
      25A     -0.710295    26A     -0.705020    27A     -0.697389
      28A     -0.662048    29A     -0.658160    30A     -0.644197
      31A     -0.644014    32A     -0.642076    33A     -0.596201
      34A     -0.586336    35A     -0.575914    36A     -0.569097
      37A     -0.506830    38A     -0.502217    39A     -0.501062
      40A     -0.345898    41A     -0.343112

  @DF-RHF Final Energy:  -605.58304261096282

   => Energetics <=

    Nuclear Repulsion Energy =            617.2278917446299147
    One-Electron Energy =               -2058.8609532266841597
    Two-Electron Energy =                 836.0500188710914244
    Total Energy =                       -605.5830426109628206
  Basis Set: (AUG-CC-PVTZ AUX)
    Blend: AUG-CC-PVTZ-RI
    Molecular point group: c1

    Geometry (in Angstrom), charge = 0, multiplicity = 1:

       Center              X                  Y                   Z               Mass
    ------------   -----------------  -----------------  -----------------  -----------------
         F            1.620413036549    -1.090279832199    -0.844242612987    18.998403162730
         F            3.052794036549    -0.000017832199     0.387402387013    18.998403162730
         F            1.620426036549     1.090322167801    -0.844175612987    18.998403162730
         C            0.796993036549    -0.000031832199     1.090168387013    12.000000000000
         C           -0.613125563451    -0.000014432199     0.562354387013    12.000000000000
         C            1.772486036549    -0.000000832199    -0.058140612987    12.000000000000
         C           -1.294619963451     1.207748167801     0.367219387013    12.000000000000
         C           -1.294644963451    -1.207763832199     0.367209387013    12.000000000000
         C           -2.608938963451     1.208045167801    -0.101130612987    12.000000000000
         C           -2.608963963451    -1.208029832199    -0.101140612987    12.000000000000
         C           -3.268610963451     0.000015167801    -0.337289612987    12.000000000000
         H            1.016779036549    -0.884066832199     1.696740387013     1.007825032230
         H            1.016778036549     0.883963167801     1.696798387013     1.007825032230
         H           -0.781214963451     2.150297167801     0.547290387013     1.007825032230
         H           -0.781257963451    -2.150324832199     0.547271387013     1.007825032230
         H           -3.117319963451     2.151689167801    -0.283628612987     1.007825032230
         H           -3.117363963451    -2.151662832199    -0.283646612987     1.007825032230
         H           -4.293577963451     0.000027167801    -0.699807612987     1.007825032230

  Basis Set: AUG-CC-PVTZ
    Blend: AUG-CC-PVTZ
  Basis Set: (AUG-CC-PVTZ AUX)
    Blend: AUG-CC-PVTZ-JKFIT
	 Reference Energy          =    -605.5830426109628206 [Eh]
	 Singles Energy            =      -0.0000000000000000 [Eh]
	 Same-Spin Energy          =      -0.5617354210284166 [Eh]
	 Opposite-Spin Energy      =      -1.6939439706511394 [Eh]
	 Correlation Energy        =      -2.2556793916795561 [Eh]
	 Total Energy              =    -607.8387220026423847 [Eh]

	 ================> DF-SCS-MP2 Energies <==================
	-----------------------------------------------------------
	 SCS Same-Spin Scale       =       0.3333333333333333 [-]
	 SCS Opposite-Spin Scale   =       1.2000000000000000 [-]
	 SCS Same-Spin Energy      =      -0.1872451403428055 [Eh]
	 SCS Opposite-Spin Energy  =      -2.0327327647813673 [Eh]
	 SCS Correlation Energy    =      -2.2199779051241730 [Eh]
	 SCS Total Energy          =    -607.8030205160870310 [Eh]
	-----------------------------------------------------------

  Dipole Moment: [D]
     X:    -1.8043      Y:    -0.0000      Z:     1.4857     Total:     2.3373

*** Psi4 exiting successfully. Buy a developer a beer!
