                               Psi4 1.3.2 release

  ==> Input File <==

--------------------------------------------------------------------------
#psi4
#
memory 32 gb

molecule  {
0 1
  F        1.7208570    -1.0902790    -0.8752740
  F        3.1532380    -0.0000170     0.3563710
  F        1.7208700     1.0903230    -0.8752070
  C        0.8974370    -0.0000310     1.0591370
  C       -0.5302430    -0.0000150     0.5808570
  C        1.9134318    -0.0887783    -0.0499521
  C       -1.1941760     1.2077490     0.3361880
  C       -1.1942010    -1.2077630     0.3361780
  C       -2.5084950     1.2080460    -0.1321620
  C       -2.5085200    -1.2080290    -0.1321720
  C       -3.1681670     0.0000160    -0.3683210
  H        1.1172230    -0.8840660     1.6657090
  H        1.1172220     0.8839640     1.6657670
  H       -0.6807710     2.1502980     0.5162590
  H       -0.6808140    -2.1503240     0.5162400
  H       -3.0168760     2.1516900    -0.3146600
  H       -3.0169200    -2.1516620    -0.3146780
  H       -4.1931340     0.0000280    -0.7308390
units angstrom
no_reorient  #important for SAPT in psi4, default
symmetry c1  #important for SAPT in psi4, default
}

set PROPERTIES_ORIGIN ["COM"]
properties('MP2/aug-cc-pvtz', properties = ['dipole'])
--------------------------------------------------------------------------

    Molecular point group: c1
  Charge       = 0
  Multiplicity = 1
  Basis Set: AUG-CC-PVTZ
    Blend: AUG-CC-PVTZ
  Basis Set: (AUG-CC-PVTZ AUX)
    Blend: AUG-CC-PVTZ-JKFIT

    Orbital Energies [Eh]
    ---------------------

    Doubly Occupied:

       1A    -26.353987     2A    -26.350322     3A    -26.291716
       4A    -11.505781     5A    -11.269179     6A    -11.258249
       7A    -11.246858     8A    -11.245950     9A    -11.245365
      10A    -11.244503    11A    -11.243706    12A     -1.732706
      13A     -1.658095    14A     -1.578334    15A     -1.168775
      16A     -1.094496    17A     -1.023300    18A     -1.006961
      19A     -0.922614    20A     -0.839465    21A     -0.835639
      22A     -0.822395    23A     -0.809291    24A     -0.772377
      25A     -0.717496    26A     -0.702937    27A     -0.688663
      28A     -0.679516    29A     -0.648295    30A     -0.644773
      31A     -0.630290    32A     -0.625828    33A     -0.595326
      34A     -0.584806    35A     -0.578746    36A     -0.560823
      37A     -0.505155    38A     -0.503554    39A     -0.500081
      40A     -0.345014    41A     -0.342415

  @DF-RHF Final Energy:  -605.57423961936456

   => Energetics <=

    Nuclear Repulsion Energy =            616.5293875388010747
    One-Electron Energy =               -2057.4596958885149434
    Two-Electron Energy =                 835.3560687303493069
    Total Energy =                       -605.5742396193645618
  Basis Set: (AUG-CC-PVTZ AUX)
    Blend: AUG-CC-PVTZ-RI
    Molecular point group: c1

    Geometry (in Angstrom), charge = 0, multiplicity = 1:

       Center              X                  Y                   Z               Mass
    ------------   -----------------  -----------------  -----------------  -----------------
         F            1.618693043883    -1.083623434188    -0.850897076603    18.998403162730
         F            3.051074043883     0.006638565812     0.380747923397    18.998403162730
         F            1.618706043883     1.096978565812    -0.850830076603    18.998403162730
         C            0.795273043883     0.006624565812     1.083513923397    12.000000000000
         C           -0.632406956117     0.006640565812     0.605233923397    12.000000000000
         C            1.811267843883    -0.082122734188    -0.025575176603    12.000000000000
         C           -1.296339956117     1.214404565812     0.360564923397    12.000000000000
         C           -1.296364956117    -1.201107434188     0.360554923397    12.000000000000
         C           -2.610658956117     1.214701565812    -0.107785076603    12.000000000000
         C           -2.610683956117    -1.201373434188    -0.107795076603    12.000000000000
         C           -3.270330956117     0.006671565812    -0.343944076603    12.000000000000
         H            1.015059043883    -0.877410434188     1.690085923397     1.007825032230
         H            1.015058043883     0.890619565812     1.690143923397     1.007825032230
         H           -0.782934956117     2.156953565812     0.540635923397     1.007825032230
         H           -0.782977956117    -2.143668434188     0.540616923397     1.007825032230
         H           -3.119039956117     2.158345565812    -0.290283076603     1.007825032230
         H           -3.119083956117    -2.145006434188    -0.290301076603     1.007825032230
         H           -4.295297956117     0.006683565812    -0.706462076603     1.007825032230

  Basis Set: AUG-CC-PVTZ
    Blend: AUG-CC-PVTZ
  Basis Set: (AUG-CC-PVTZ AUX)
    Blend: AUG-CC-PVTZ-JKFIT
	 Reference Energy          =    -605.5742396193645618 [Eh]
	 Singles Energy            =      -0.0000000000000000 [Eh]
	 Same-Spin Energy          =      -0.5619534992931514 [Eh]
	 Opposite-Spin Energy      =      -1.6943504820852380 [Eh]
	 Correlation Energy        =      -2.2563039813783892 [Eh]
	 Total Energy              =    -607.8305436007429989 [Eh]

	 ================> DF-SCS-MP2 Energies <==================
	-----------------------------------------------------------
	 SCS Same-Spin Scale       =       0.3333333333333333 [-]
	 SCS Opposite-Spin Scale   =       1.2000000000000000 [-]
	 SCS Same-Spin Energy      =      -0.1873178330977171 [Eh]
	 SCS Opposite-Spin Energy  =      -2.0332205785022857 [Eh]
	 SCS Correlation Energy    =      -2.2205384116000029 [Eh]
	 SCS Total Energy          =    -607.7947780309646078 [Eh]
	-----------------------------------------------------------

  Dipole Moment: [D]
     X:    -1.4745      Y:    -0.6057      Z:     1.7280     Total:     2.3510

*** Psi4 exiting successfully. Buy a developer a beer!
