                               Psi4 1.3.2 release

  ==> Input File <==

--------------------------------------------------------------------------
#psi4
#
memory 32 gb

molecule  {
0 1
  F        1.6512409    -1.1179240    -0.8177944
  F        3.1532380    -0.0000170     0.3563710
  F        1.7208700     1.0903230    -0.8752070
  C        0.8974370    -0.0000310     1.0591370
  C       -0.5302430    -0.0000150     0.5808570
  C        1.8729300     0.0000000    -0.0891720
  C       -1.1941760     1.2077490     0.3361880
  C       -1.1942010    -1.2077630     0.3361780
  C       -2.5084950     1.2080460    -0.1321620
  C       -2.5085200    -1.2080290    -0.1321720
  C       -3.1681670     0.0000160    -0.3683210
  H        1.1172230    -0.8840660     1.6657090
  H        1.1172220     0.8839640     1.6657670
  H       -0.6807710     2.1502980     0.5162590
  H       -0.6808140    -2.1503240     0.5162400
  H       -3.0168760     2.1516900    -0.3146600
  H       -3.0169200    -2.1516620    -0.3146780
  H       -4.1931340     0.0000280    -0.7308390
units angstrom
no_reorient  #important for SAPT in psi4, default
symmetry c1  #important for SAPT in psi4, default
}

set PROPERTIES_ORIGIN ["COM"]
properties('MP2/aug-cc-pvtz', properties = ['dipole'])
--------------------------------------------------------------------------

    Molecular point group: c1
  Charge       = 0
  Multiplicity = 1
  Basis Set: AUG-CC-PVTZ
    Blend: AUG-CC-PVTZ
  Basis Set: (AUG-CC-PVTZ AUX)
    Blend: AUG-CC-PVTZ-JKFIT

    Orbital Energies [Eh]
    ---------------------

    Doubly Occupied:

       1A    -26.336436     2A    -26.335680     3A    -26.334592
       4A    -11.504316     5A    -11.264501     6A    -11.257082
       7A    -11.246211     8A    -11.246057     9A    -11.245214
      10A    -11.244540    11A    -11.243723    12A     -1.716783
      13A     -1.629938    14A     -1.627186    15A     -1.168627
      16A     -1.093152    17A     -1.023297    18A     -1.005077
      19A     -0.916694    20A     -0.838969    21A     -0.828872
      22A     -0.817133    23A     -0.811115    24A     -0.766708
      25A     -0.711040    26A     -0.707387    27A     -0.697990
      28A     -0.666615    29A     -0.661763    30A     -0.647441
      31A     -0.643117    32A     -0.642706    33A     -0.595271
      34A     -0.582971    35A     -0.573365    36A     -0.566015
      37A     -0.503974    38A     -0.502994    39A     -0.500015
      40A     -0.345136    41A     -0.342201

  @DF-RHF Final Energy:  -605.58190132941388

   => Energetics <=

    Nuclear Repulsion Energy =            617.6764480681965779
    One-Electron Energy =               -2059.7328922474780484
    Two-Electron Energy =                 836.4745428498675892
    Total Energy =                       -605.5819013294138813
  Basis Set: (AUG-CC-PVTZ AUX)
    Blend: AUG-CC-PVTZ-RI
    Molecular point group: c1

    Geometry (in Angstrom), charge = 0, multiplicity = 1:

       Center              X                  Y                   Z               Mass
    ------------   -----------------  -----------------  -----------------  -----------------
         F            1.560377265702    -1.114643184554    -0.797299900057    18.998403162730
         F            3.062374365702     0.003263815446     0.376865499943    18.998403162730
         F            1.630006365702     1.093603815446    -0.854712500057    18.998403162730
         C            0.806573365702     0.003249815446     1.079631499943    12.000000000000
         C           -0.621106634298     0.003265815446     0.601351499943    12.000000000000
         C            1.782066365702     0.003280815446    -0.068677500057    12.000000000000
         C           -1.285039634298     1.211029815446     0.356682499943    12.000000000000
         C           -1.285064634298    -1.204482184554     0.356672499943    12.000000000000
         C           -2.599358634298     1.211326815446    -0.111667500057    12.000000000000
         C           -2.599383634298    -1.204748184554    -0.111677500057    12.000000000000
         C           -3.259030634298     0.003296815446    -0.347826500057    12.000000000000
         H            1.026359365702    -0.880785184554     1.686203499943     1.007825032230
         H            1.026358365702     0.887244815446     1.686261499943     1.007825032230
         H           -0.771634634298     2.153578815446     0.536753499943     1.007825032230
         H           -0.771677634298    -2.147043184554     0.536734499943     1.007825032230
         H           -3.107739634298     2.154970815446    -0.294165500057     1.007825032230
         H           -3.107783634298    -2.148381184554    -0.294183500057     1.007825032230
         H           -4.283997634298     0.003308815446    -0.710344500057     1.007825032230

  Basis Set: AUG-CC-PVTZ
    Blend: AUG-CC-PVTZ
  Basis Set: (AUG-CC-PVTZ AUX)
    Blend: AUG-CC-PVTZ-JKFIT
	 Reference Energy          =    -605.5819013294138813 [Eh]
	 Singles Energy            =      -0.0000000000000000 [Eh]
	 Same-Spin Energy          =      -0.5618684059921402 [Eh]
	 Opposite-Spin Energy      =      -1.6942242128831424 [Eh]
	 Correlation Energy        =      -2.2560926188752823 [Eh]
	 Total Energy              =    -607.8379939482891814 [Eh]

	 ================> DF-SCS-MP2 Energies <==================
	-----------------------------------------------------------
	 SCS Same-Spin Scale       =       0.3333333333333333 [-]
	 SCS Opposite-Spin Scale   =       1.2000000000000000 [-]
	 SCS Same-Spin Energy      =      -0.1872894686640467 [Eh]
	 SCS Opposite-Spin Energy  =      -2.0330690554597708 [Eh]
	 SCS Correlation Energy    =      -2.2203585241238173 [Eh]
	 SCS Total Energy          =    -607.8022598535377483 [Eh]
	-----------------------------------------------------------

  Dipole Moment: [D]
     X:    -1.6484      Y:     0.0042      Z:     1.3461     Total:     2.1282

*** Psi4 exiting successfully. Buy a developer a beer!
