                               Psi4 1.3.2 release

  ==> Input File <==

--------------------------------------------------------------------------
#psi4
#
memory 32 gb

molecule  {
0 1
  F        1.8265633    -1.0389011    -0.9542300
  F        3.1532380    -0.0000170     0.3563710
  F        1.7208700     1.0903230    -0.8752070
  C        0.8974370    -0.0000310     1.0591370
  C       -0.5302430    -0.0000150     0.5808570
  C        1.8729300     0.0000000    -0.0891720
  C       -1.1941760     1.2077490     0.3361880
  C       -1.1942010    -1.2077630     0.3361780
  C       -2.5084950     1.2080460    -0.1321620
  C       -2.5085200    -1.2080290    -0.1321720
  C       -3.1681670     0.0000160    -0.3683210
  H        1.1172230    -0.8840660     1.6657090
  H        1.1172220     0.8839640     1.6657670
  H       -0.6807710     2.1502980     0.5162590
  H       -0.6808140    -2.1503240     0.5162400
  H       -3.0168760     2.1516900    -0.3146600
  H       -3.0169200    -2.1516620    -0.3146780
  H       -4.1931340     0.0000280    -0.7308390
units angstrom
no_reorient  #important for SAPT in psi4, default
symmetry c1  #important for SAPT in psi4, default
}

set PROPERTIES_ORIGIN ["COM"]
properties('MP2/aug-cc-pvtz', properties = ['dipole'])
--------------------------------------------------------------------------

    Molecular point group: c1
  Charge       = 0
  Multiplicity = 1
  Basis Set: AUG-CC-PVTZ
    Blend: AUG-CC-PVTZ
  Basis Set: (AUG-CC-PVTZ AUX)
    Blend: AUG-CC-PVTZ-JKFIT

    Orbital Energies [Eh]
    ---------------------

    Doubly Occupied:

       1A    -26.328126     2A    -26.327898     3A    -26.327097
       4A    -11.502316     5A    -11.272728     6A    -11.260312
       7A    -11.248832     8A    -11.248578     9A    -11.247581
      10A    -11.246890    11A    -11.245997    12A     -1.716681
      13A     -1.621463    14A     -1.617217    15A     -1.171573
      16A     -1.096419    17A     -1.025691    18A     -1.005963
      19A     -0.917249    20A     -0.841226    21A     -0.830234
      22A     -0.810117    23A     -0.805472    24A     -0.768574
      25A     -0.711114    26A     -0.700784    27A     -0.695777
      28A     -0.657449    29A     -0.653075    30A     -0.644367
      31A     -0.642482    32A     -0.636182    33A     -0.597770
      34A     -0.588701    35A     -0.582171    36A     -0.571672
      37A     -0.507011    38A     -0.505944    39A     -0.502585
      40A     -0.347455    41A     -0.345029

  @DF-RHF Final Energy:  -605.58256200963672

   => Energetics <=

    Nuclear Repulsion Energy =            615.8799556137267928
    One-Electron Energy =               -2056.1774347941104679
    Two-Electron Energy =                 834.7149171707468440
    Total Energy =                       -605.5825620096367174
  Basis Set: (AUG-CC-PVTZ AUX)
    Blend: AUG-CC-PVTZ-RI
    Molecular point group: c1

    Geometry (in Angstrom), charge = 0, multiplicity = 1:

       Center              X                  Y                   Z               Mass
    ------------   -----------------  -----------------  -----------------  -----------------
         F            1.714888381998    -1.045000534830    -0.917540193702    18.998403162730
         F            3.041563081998    -0.006116434830     0.393060806298    18.998403162730
         F            1.609195081998     1.084223565170    -0.838517193702    18.998403162730
         C            0.785762081998    -0.006130434830     1.095826806298    12.000000000000
         C           -0.641917918002    -0.006114434830     0.617546806298    12.000000000000
         C            1.761255081998    -0.006099434830    -0.052482193702    12.000000000000
         C           -1.305850918002     1.201649565170     0.372877806298    12.000000000000
         C           -1.305875918002    -1.213862434830     0.372867806298    12.000000000000
         C           -2.620169918002     1.201946565170    -0.095472193702    12.000000000000
         C           -2.620194918002    -1.214128434830    -0.095482193702    12.000000000000
         C           -3.279841918002    -0.006083434830    -0.331631193702    12.000000000000
         H            1.005548081998    -0.890165434830     1.702398806298     1.007825032230
         H            1.005547081998     0.877864565170     1.702456806298     1.007825032230
         H           -0.792445918002     2.144198565170     0.552948806298     1.007825032230
         H           -0.792488918002    -2.156423434830     0.552929806298     1.007825032230
         H           -3.128550918002     2.145590565170    -0.277970193702     1.007825032230
         H           -3.128594918002    -2.157761434830    -0.277988193702     1.007825032230
         H           -4.304808918002    -0.006071434830    -0.694149193702     1.007825032230

  Basis Set: AUG-CC-PVTZ
    Blend: AUG-CC-PVTZ
  Basis Set: (AUG-CC-PVTZ AUX)
    Blend: AUG-CC-PVTZ-JKFIT
	 Reference Energy          =    -605.5825620096367174 [Eh]
	 Singles Energy            =      -0.0000000000000000 [Eh]
	 Same-Spin Energy          =      -0.5614071810488622 [Eh]
	 Opposite-Spin Energy      =      -1.6932200053531792 [Eh]
	 Correlation Energy        =      -2.2546271864020415 [Eh]
	 Total Energy              =    -607.8371891960387075 [Eh]

	 ================> DF-SCS-MP2 Energies <==================
	-----------------------------------------------------------
	 SCS Same-Spin Scale       =       0.3333333333333333 [-]
	 SCS Opposite-Spin Scale   =       1.2000000000000000 [-]
	 SCS Same-Spin Energy      =      -0.1871357270162874 [Eh]
	 SCS Opposite-Spin Energy  =      -2.0318640064238149 [Eh]
	 SCS Correlation Energy    =      -2.2189997334401022 [Eh]
	 SCS Total Energy          =    -607.8015617430768316 [Eh]
	-----------------------------------------------------------

  Dipole Moment: [D]
     X:    -2.0327      Y:    -0.0204      Z:     1.6167     Total:     2.5973

*** Psi4 exiting successfully. Buy a developer a beer!
