                               Psi4 1.3.2 release

  ==> Input File <==

--------------------------------------------------------------------------
#psi4
#
memory 32 gb

molecule  {
0 1
  F        1.7208570    -1.0902790    -0.8752740
  F        3.1532380    -0.0000170     0.3563710
  F        1.7208700     1.0903230    -0.8752070
  C        0.8974370    -0.0000310     1.0591370
  C       -0.5724159    -0.0000192     0.7327103
  C        1.8729300     0.0000000    -0.0891720
  C       -1.1941760     1.2077490     0.3361880
  C       -1.1942010    -1.2077630     0.3361780
  C       -2.5084950     1.2080460    -0.1321620
  C       -2.5085200    -1.2080290    -0.1321720
  C       -3.1681670     0.0000160    -0.3683210
  H        1.1172230    -0.8840660     1.6657090
  H        1.1172220     0.8839640     1.6657670
  H       -0.6807710     2.1502980     0.5162590
  H       -0.6808140    -2.1503240     0.5162400
  H       -3.0168760     2.1516900    -0.3146600
  H       -3.0169200    -2.1516620    -0.3146780
  H       -4.1931340     0.0000280    -0.7308390
units angstrom
no_reorient  #important for SAPT in psi4, default
symmetry c1  #important for SAPT in psi4, default
}

set PROPERTIES_ORIGIN ["COM"]
properties('MP2/aug-cc-pvtz', properties = ['dipole'])
--------------------------------------------------------------------------

    Molecular point group: c1
  Charge       = 0
  Multiplicity = 1
  Basis Set: AUG-CC-PVTZ
    Blend: AUG-CC-PVTZ
  Basis Set: (AUG-CC-PVTZ AUX)
    Blend: AUG-CC-PVTZ-JKFIT

    Orbital Energies [Eh]
    ---------------------

    Doubly Occupied:

       1A    -26.335057     2A    -26.332457     3A    -26.332436
       4A    -11.505627     5A    -11.266849     6A    -11.261009
       7A    -11.250522     8A    -11.250454     9A    -11.248234
      10A    -11.245773    11A    -11.245475    12A     -1.717062
      13A     -1.625800    14A     -1.625202    15A     -1.167643
      16A     -1.093157    17A     -1.023921    18A     -1.004916
      19A     -0.917784    20A     -0.837972    21A     -0.830213
      22A     -0.814123    23A     -0.811055    24A     -0.768143
      25A     -0.709281    26A     -0.705337    27A     -0.698052
      28A     -0.662305    29A     -0.658343    30A     -0.643901
      31A     -0.643424    32A     -0.642985    33A     -0.595441
      34A     -0.582526    35A     -0.577299    36A     -0.567437
      37A     -0.509987    38A     -0.498322    39A     -0.498083
      40A     -0.345323    41A     -0.343557

  @DF-RHF Final Energy:  -605.57428889904372

   => Energetics <=

    Nuclear Repulsion Energy =            615.3660439019097339
    One-Electron Energy =               -2055.0956876105587980
    Two-Electron Energy =                 834.1553548096053419
    Total Energy =                       -605.5742888990437223
  Basis Set: (AUG-CC-PVTZ AUX)
    Blend: AUG-CC-PVTZ-RI
    Molecular point group: c1

    Geometry (in Angstrom), charge = 0, multiplicity = 1:

       Center              X                  Y                   Z               Mass
    ------------   -----------------  -----------------  -----------------  -----------------
         F            1.624891709892    -1.090279412330    -0.859341943389    18.998403162730
         F            3.057272709892    -0.000017412330     0.372303056611    18.998403162730
         F            1.624904709892     1.090322587670    -0.859274943389    18.998403162730
         C            0.801471709892    -0.000031412330     1.075069056611    12.000000000000
         C           -0.668381190108    -0.000019612330     0.748642356611    12.000000000000
         C            1.776964709892    -0.000000412330    -0.073239943389    12.000000000000
         C           -1.290141290108     1.207748587670     0.352120056611    12.000000000000
         C           -1.290166290108    -1.207763412330     0.352110056611    12.000000000000
         C           -2.604460290108     1.208045587670    -0.116229943389    12.000000000000
         C           -2.604485290108    -1.208029412330    -0.116239943389    12.000000000000
         C           -3.264132290108     0.000015587670    -0.352388943389    12.000000000000
         H            1.021257709892    -0.884066412330     1.681641056611     1.007825032230
         H            1.021256709892     0.883963587670     1.681699056611     1.007825032230
         H           -0.776736290108     2.150297587670     0.532191056611     1.007825032230
         H           -0.776779290108    -2.150324412330     0.532172056611     1.007825032230
         H           -3.112841290108     2.151689587670    -0.298727943389     1.007825032230
         H           -3.112885290108    -2.151662412330    -0.298745943389     1.007825032230
         H           -4.289099290108     0.000027587670    -0.714906943389     1.007825032230

  Basis Set: AUG-CC-PVTZ
    Blend: AUG-CC-PVTZ
  Basis Set: (AUG-CC-PVTZ AUX)
    Blend: AUG-CC-PVTZ-JKFIT
	 Reference Energy          =    -605.5742888990437223 [Eh]
	 Singles Energy            =      -0.0000000000000000 [Eh]
	 Same-Spin Energy          =      -0.5619410404488113 [Eh]
	 Opposite-Spin Energy      =      -1.6949138290087893 [Eh]
	 Correlation Energy        =      -2.2568548694576007 [Eh]
	 Total Energy              =    -607.8311437685013061 [Eh]

	 ================> DF-SCS-MP2 Energies <==================
	-----------------------------------------------------------
	 SCS Same-Spin Scale       =       0.3333333333333333 [-]
	 SCS Opposite-Spin Scale   =       1.2000000000000000 [-]
	 SCS Same-Spin Energy      =      -0.1873136801496038 [Eh]
	 SCS Opposite-Spin Energy  =      -2.0338965948105470 [Eh]
	 SCS Correlation Energy    =      -2.2212102749601508 [Eh]
	 SCS Total Energy          =    -607.7954991740039077 [Eh]
	-----------------------------------------------------------

  Dipole Moment: [D]
     X:    -1.8633      Y:    -0.0000      Z:     1.3539     Total:     2.3032

*** Psi4 exiting successfully. Buy a developer a beer!
