                               Psi4 1.3.2 release

  ==> Input File <==

--------------------------------------------------------------------------
#psi4
#
memory 32 gb

molecule  {
0 1
  F        1.7383901    -1.0825319    -0.8890560
  F        3.1532380    -0.0000170     0.3563710
  F        1.7208700     1.0903230    -0.8752070
  C        0.8974370    -0.0000310     1.0591370
  C       -0.5302430    -0.0000150     0.5808570
  C        1.8729300     0.0000000    -0.0891720
  C       -1.1941760     1.2077490     0.3361880
  C       -1.1942010    -1.2077630     0.3361780
  C       -2.5084950     1.2080460    -0.1321620
  C       -2.5085200    -1.2080290    -0.1321720
  C       -3.1681670     0.0000160    -0.3683210
  H        1.1172230    -0.8840660     1.6657090
  H        1.1172220     0.8839640     1.6657670
  H       -0.6807710     2.1502980     0.5162590
  H       -0.6808140    -2.1503240     0.5162400
  H       -3.0168760     2.1516900    -0.3146600
  H       -3.0169200    -2.1516620    -0.3146780
  H       -4.1931340     0.0000280    -0.7308390
units angstrom
no_reorient  #important for SAPT in psi4, default
symmetry c1  #important for SAPT in psi4, default
}

set PROPERTIES_ORIGIN ["COM"]
properties('MP2/aug-cc-pvtz', properties = ['dipole'])
--------------------------------------------------------------------------

    Molecular point group: c1
  Charge       = 0
  Multiplicity = 1
  Basis Set: AUG-CC-PVTZ
    Blend: AUG-CC-PVTZ
  Basis Set: (AUG-CC-PVTZ AUX)
    Blend: AUG-CC-PVTZ-JKFIT

    Orbital Energies [Eh]
    ---------------------

    Doubly Occupied:

       1A    -26.332240     2A    -26.331686     3A    -26.331463
       4A    -11.503302     5A    -11.268658     6A    -11.258744
       7A    -11.247463     8A    -11.247422     9A    -11.246429
      10A    -11.245745    11A    -11.244887    12A     -1.716529
      13A     -1.624367    14A     -1.623778    15A     -1.170129
      16A     -1.094807    17A     -1.024515    18A     -1.005481
      19A     -0.917000    20A     -0.840100    21A     -0.829479
      22A     -0.812909    23A     -0.809255    24A     -0.767639
      25A     -0.710217    26A     -0.704331    27A     -0.697408
      28A     -0.661217    29A     -0.657297    30A     -0.644046
      31A     -0.643987    32A     -0.641785    33A     -0.596533
      34A     -0.585363    35A     -0.578345    36A     -0.569383
      37A     -0.505549    38A     -0.504509    39A     -0.501337
      40A     -0.346316    41A     -0.343660

  @DF-RHF Final Energy:  -605.58423717572680

   => Energetics <=

    Nuclear Repulsion Energy =            616.6764679564755625
    One-Electron Energy =               -2057.7507900709156274
    Two-Electron Energy =                 835.4900849387132666
    Total Energy =                       -605.5842371757267983
  Basis Set: (AUG-CC-PVTZ AUX)
    Blend: AUG-CC-PVTZ-RI
    Molecular point group: c1

    Geometry (in Angstrom), charge = 0, multiplicity = 1:

       Center              X                  Y                   Z               Mass
    ------------   -----------------  -----------------  -----------------  -----------------
         F            1.637181599754    -1.083452230751    -0.860102538882    18.998403162730
         F            3.052029499754    -0.000937330751     0.385324461118    18.998403162730
         F            1.619661499754     1.089402669249    -0.846253538882    18.998403162730
         C            0.796228499754    -0.000951330751     1.088090461118    12.000000000000
         C           -0.631451500246    -0.000935330751     0.609810461118    12.000000000000
         C            1.771721499754    -0.000920330751    -0.060218538882    12.000000000000
         C           -1.295384500246     1.206828669249     0.365141461118    12.000000000000
         C           -1.295409500246    -1.208683330751     0.365131461118    12.000000000000
         C           -2.609703500246     1.207125669249    -0.103208538882    12.000000000000
         C           -2.609728500246    -1.208949330751    -0.103218538882    12.000000000000
         C           -3.269375500246    -0.000904330751    -0.339367538882    12.000000000000
         H            1.016014499754    -0.884986330751     1.694662461118     1.007825032230
         H            1.016013499754     0.883043669249     1.694720461118     1.007825032230
         H           -0.781979500246     2.149377669249     0.545212461118     1.007825032230
         H           -0.782022500246    -2.151244330751     0.545193461118     1.007825032230
         H           -3.118084500246     2.150769669249    -0.285706538882     1.007825032230
         H           -3.118128500246    -2.152582330751    -0.285724538882     1.007825032230
         H           -4.294342500246    -0.000892330751    -0.701885538882     1.007825032230

  Basis Set: AUG-CC-PVTZ
    Blend: AUG-CC-PVTZ
  Basis Set: (AUG-CC-PVTZ AUX)
    Blend: AUG-CC-PVTZ-JKFIT
	 Reference Energy          =    -605.5842371757267983 [Eh]
	 Singles Energy            =      -0.0000000000000000 [Eh]
	 Same-Spin Energy          =      -0.5615724394016774 [Eh]
	 Opposite-Spin Energy      =      -1.6936027396137190 [Eh]
	 Correlation Energy        =      -2.2551751790153967 [Eh]
	 Total Energy              =    -607.8394123547421941 [Eh]

	 ================> DF-SCS-MP2 Energies <==================
	-----------------------------------------------------------
	 SCS Same-Spin Scale       =       0.3333333333333333 [-]
	 SCS Opposite-Spin Scale   =       1.2000000000000000 [-]
	 SCS Same-Spin Energy      =      -0.1871908131338925 [Eh]
	 SCS Opposite-Spin Energy  =      -2.0323232875364625 [Eh]
	 SCS Correlation Energy    =      -2.2195141006703549 [Eh]
	 SCS Total Energy          =    -607.8037512763971790 [Eh]
	-----------------------------------------------------------

  Dipole Moment: [D]
     X:    -1.8424      Y:    -0.0023      Z:     1.4864     Total:     2.3672

*** Psi4 exiting successfully. Buy a developer a beer!
