                               Psi4 1.3.2 release

  ==> Input File <==

--------------------------------------------------------------------------
#psi4
#
memory 32 gb

molecule  {
0 1
  F        1.7208570    -1.0902790    -0.8752740
  F        3.1532380    -0.0000170     0.3563710
  F        1.7208700     1.0903230    -0.8752070
  C        0.8974370    -0.0000310     1.0591370
  C       -0.5302430    -0.0000150     0.5808570
  C        1.8033344     0.1330320    -0.1374600
  C       -1.1941760     1.2077490     0.3361880
  C       -1.1942010    -1.2077630     0.3361780
  C       -2.5084950     1.2080460    -0.1321620
  C       -2.5085200    -1.2080290    -0.1321720
  C       -3.1681670     0.0000160    -0.3683210
  H        1.1172230    -0.8840660     1.6657090
  H        1.1172220     0.8839640     1.6657670
  H       -0.6807710     2.1502980     0.5162590
  H       -0.6808140    -2.1503240     0.5162400
  H       -3.0168760     2.1516900    -0.3146600
  H       -3.0169200    -2.1516620    -0.3146780
  H       -4.1931340     0.0000280    -0.7308390
units angstrom
no_reorient  #important for SAPT in psi4, default
symmetry c1  #important for SAPT in psi4, default
}

set PROPERTIES_ORIGIN ["COM"]
properties('MP2/aug-cc-pvtz', properties = ['dipole'])
--------------------------------------------------------------------------

    Molecular point group: c1
  Charge       = 0
  Multiplicity = 1
  Basis Set: AUG-CC-PVTZ
    Blend: AUG-CC-PVTZ
  Basis Set: (AUG-CC-PVTZ AUX)
    Blend: AUG-CC-PVTZ-JKFIT

    Orbital Energies [Eh]
    ---------------------

    Doubly Occupied:

       1A    -26.392328     2A    -26.301614     3A    -26.298052
       4A    -11.508025     5A    -11.270047     6A    -11.259924
       7A    -11.249977     8A    -11.248681     9A    -11.248360
      10A    -11.247485    11A    -11.246588    12A     -1.783102
      13A     -1.618040    14A     -1.572684    15A     -1.172732
      16A     -1.097931    17A     -1.026510    18A     -1.008559
      19A     -0.940332    20A     -0.844289    21A     -0.837843
      22A     -0.829951    23A     -0.826245    24A     -0.781414
      25A     -0.710059    26A     -0.695345    27A     -0.680780
      28A     -0.664919    29A     -0.645952    30A     -0.644520
      31A     -0.636798    32A     -0.610695    33A     -0.598757
      34A     -0.590294    35A     -0.579252    36A     -0.560979
      37A     -0.507976    38A     -0.503994    39A     -0.501596
      40A     -0.348596    41A     -0.345226

  @DF-RHF Final Energy:  -605.55613959185837

   => Energetics <=

    Nuclear Repulsion Energy =            617.4299957542698394
    One-Electron Energy =               -2059.0993671604733208
    Two-Electron Energy =                 836.1132318143451130
    Total Energy =                       -605.5561395918583685
  Basis Set: (AUG-CC-PVTZ AUX)
    Blend: AUG-CC-PVTZ-RI
    Molecular point group: c1

    Geometry (in Angstrom), charge = 0, multiplicity = 1:

       Center              X                  Y                   Z               Mass
    ------------   -----------------  -----------------  -----------------  -----------------
         F            1.626947770069    -1.100254011221    -0.844336033802    18.998403162730
         F            3.059328770069    -0.009992011221     0.387308966198    18.998403162730
         F            1.626960770069     1.080347988779    -0.844269033802    18.998403162730
         C            0.803527770069    -0.010006011221     1.090074966198    12.000000000000
         C           -0.624152229931    -0.009990011221     0.611794966198    12.000000000000
         C            1.709425170069     0.123056988779    -0.106522033802    12.000000000000
         C           -1.288085229931     1.197773988779     0.367125966198    12.000000000000
         C           -1.288110229931    -1.217738011221     0.367115966198    12.000000000000
         C           -2.602404229931     1.198070988779    -0.101224033802    12.000000000000
         C           -2.602429229931    -1.218004011221    -0.101234033802    12.000000000000
         C           -3.262076229931    -0.009959011221    -0.337383033802    12.000000000000
         H            1.023313770069    -0.894041011221     1.696646966198     1.007825032230
         H            1.023312770069     0.873988988779     1.696704966198     1.007825032230
         H           -0.774680229931     2.140322988779     0.547196966198     1.007825032230
         H           -0.774723229931    -2.160299011221     0.547177966198     1.007825032230
         H           -3.110785229931     2.141714988779    -0.283722033802     1.007825032230
         H           -3.110829229931    -2.161637011221    -0.283740033802     1.007825032230
         H           -4.287043229931    -0.009947011221    -0.699901033802     1.007825032230

  Basis Set: AUG-CC-PVTZ
    Blend: AUG-CC-PVTZ
  Basis Set: (AUG-CC-PVTZ AUX)
    Blend: AUG-CC-PVTZ-JKFIT
	 Reference Energy          =    -605.5561395918583685 [Eh]
	 Singles Energy            =      -0.0000000000000000 [Eh]
	 Same-Spin Energy          =      -0.5626163273815916 [Eh]
	 Opposite-Spin Energy      =      -1.6955166698338942 [Eh]
	 Correlation Energy        =      -2.2581329972154860 [Eh]
	 Total Energy              =    -607.8142725890738802 [Eh]

	 ================> DF-SCS-MP2 Energies <==================
	-----------------------------------------------------------
	 SCS Same-Spin Scale       =       0.3333333333333333 [-]
	 SCS Opposite-Spin Scale   =       1.2000000000000000 [-]
	 SCS Same-Spin Energy      =      -0.1875387757938639 [Eh]
	 SCS Opposite-Spin Energy  =      -2.0346200038006730 [Eh]
	 SCS Correlation Energy    =      -2.2221587795945368 [Eh]
	 SCS Total Energy          =    -607.7782983714529337 [Eh]
	-----------------------------------------------------------

  Dipole Moment: [D]
     X:    -2.4003      Y:     0.9339      Z:     1.1115     Total:     2.8052

*** Psi4 exiting successfully. Buy a developer a beer!
