                               Psi4 1.3.2 release

  ==> Input File <==

--------------------------------------------------------------------------
#psi4
#
memory 32 gb

molecule  {
0 1
  F        1.6859350    -1.1047745    -0.8469959
  F        3.1532380    -0.0000170     0.3563710
  F        1.7208700     1.0903230    -0.8752070
  C        0.8974370    -0.0000310     1.0591370
  C       -0.5302430    -0.0000150     0.5808570
  C        1.8729300     0.0000000    -0.0891720
  C       -1.1941760     1.2077490     0.3361880
  C       -1.1942010    -1.2077630     0.3361780
  C       -2.5084950     1.2080460    -0.1321620
  C       -2.5085200    -1.2080290    -0.1321720
  C       -3.1681670     0.0000160    -0.3683210
  H        1.1172230    -0.8840660     1.6657090
  H        1.1172220     0.8839640     1.6657670
  H       -0.6807710     2.1502980     0.5162590
  H       -0.6808140    -2.1503240     0.5162400
  H       -3.0168760     2.1516900    -0.3146600
  H       -3.0169200    -2.1516620    -0.3146780
  H       -4.1931340     0.0000280    -0.7308390
units angstrom
no_reorient  #important for SAPT in psi4, default
symmetry c1  #important for SAPT in psi4, default
}

set PROPERTIES_ORIGIN ["COM"]
properties('MP2/aug-cc-pvtz', properties = ['dipole'])
--------------------------------------------------------------------------

    Molecular point group: c1
  Charge       = 0
  Multiplicity = 1
  Basis Set: AUG-CC-PVTZ
    Blend: AUG-CC-PVTZ
  Basis Set: (AUG-CC-PVTZ AUX)
    Blend: AUG-CC-PVTZ-JKFIT

    Orbital Energies [Eh]
    ---------------------

    Doubly Occupied:

       1A    -26.334775     2A    -26.334012     3A    -26.333505
       4A    -11.503909     5A    -11.266171     6A    -11.257757
       7A    -11.246702     8A    -11.246622     9A    -11.245708
      10A    -11.245029    11A    -11.244194    12A     -1.716634
      13A     -1.627541    14A     -1.626043    15A     -1.169234
      16A     -1.093818    17A     -1.023788    18A     -1.005227
      19A     -0.916819    20A     -0.839421    21A     -0.829091
      22A     -0.815367    23A     -0.810512    24A     -0.767082
      25A     -0.710248    26A     -0.706564    27A     -0.697792
      28A     -0.664337    29A     -0.659999    30A     -0.645616
      31A     -0.643526    32A     -0.643004    33A     -0.595780
      34A     -0.583851    35A     -0.575380    36A     -0.567576
      37A     -0.504617    38A     -0.503610    39A     -0.500553
      40A     -0.345612    41A     -0.342795

  @DF-RHF Final Energy:  -605.58332992309488

   => Energetics <=

    Nuclear Repulsion Energy =            617.2518327618989815
    One-Electron Energy =               -2058.8906799785436306
    Two-Electron Energy =                 836.0555172935496557
    Total Energy =                       -605.5833299230948796
  Basis Set: (AUG-CC-PVTZ AUX)
    Blend: AUG-CC-PVTZ-RI
    Molecular point group: c1

    Geometry (in Angstrom), charge = 0, multiplicity = 1:

       Center              X                  Y                   Z               Mass
    ------------   -----------------  -----------------  -----------------  -----------------
         F            1.590953074155    -1.103054568817    -0.823035096259    18.998403162730
         F            3.058256074155     0.001702931183     0.380331803741    18.998403162730
         F            1.625888074155     1.092042931183    -0.851246196259    18.998403162730
         C            0.802455074155     0.001688931183     1.083097803741    12.000000000000
         C           -0.625224925845     0.001704931183     0.604817803741    12.000000000000
         C            1.777948074155     0.001719931183    -0.065211196259    12.000000000000
         C           -1.289157925845     1.209468931183     0.360148803741    12.000000000000
         C           -1.289182925845    -1.206043068817     0.360138803741    12.000000000000
         C           -2.603476925845     1.209765931183    -0.108201196259    12.000000000000
         C           -2.603501925845    -1.206309068817    -0.108211196259    12.000000000000
         C           -3.263148925845     0.001735931183    -0.344360196259    12.000000000000
         H            1.022241074155    -0.882346068817     1.689669803741     1.007825032230
         H            1.022240074155     0.885683931183     1.689727803741     1.007825032230
         H           -0.775752925845     2.152017931183     0.540219803741     1.007825032230
         H           -0.775795925845    -2.148604068817     0.540200803741     1.007825032230
         H           -3.111857925845     2.153409931183    -0.290699196259     1.007825032230
         H           -3.111901925845    -2.149942068817    -0.290717196259     1.007825032230
         H           -4.288115925845     0.001747931183    -0.706878196259     1.007825032230

  Basis Set: AUG-CC-PVTZ
    Blend: AUG-CC-PVTZ
  Basis Set: (AUG-CC-PVTZ AUX)
    Blend: AUG-CC-PVTZ-JKFIT
	 Reference Energy          =    -605.5833299230948796 [Eh]
	 Singles Energy            =      -0.0000000000000000 [Eh]
	 Same-Spin Energy          =      -0.5617338025671084 [Eh]
	 Opposite-Spin Energy      =      -1.6939461984578581 [Eh]
	 Correlation Energy        =      -2.2556800010249667 [Eh]
	 Total Energy              =    -607.8390099241198641 [Eh]

	 ================> DF-SCS-MP2 Energies <==================
	-----------------------------------------------------------
	 SCS Same-Spin Scale       =       0.3333333333333333 [-]
	 SCS Opposite-Spin Scale   =       1.2000000000000000 [-]
	 SCS Same-Spin Energy      =      -0.1872446008557028 [Eh]
	 SCS Opposite-Spin Energy  =      -2.0327354381494298 [Eh]
	 SCS Correlation Energy    =      -2.2199800390051325 [Eh]
	 SCS Total Energy          =    -607.8033099621000019 [Eh]
	-----------------------------------------------------------

  Dipole Moment: [D]
     X:    -1.7263      Y:     0.0031      Z:     1.4034     Total:     2.2248

*** Psi4 exiting successfully. Buy a developer a beer!
