                               Psi4 1.3.2 release

  ==> Input File <==

--------------------------------------------------------------------------
#psi4
#
memory 32 gb

molecule  {
0 1
  F        1.7208570    -1.0902790    -0.8752740
  F        3.1532380    -0.0000170     0.3563710
  F        1.7208700     1.0903230    -0.8752070
  C        0.8974370    -0.0000310     1.0591370
  C       -0.5302430    -0.0000150     0.5808570
  C        1.8508837     0.0444162    -0.1066949
  C       -1.1941760     1.2077490     0.3361880
  C       -1.1942010    -1.2077630     0.3361780
  C       -2.5084950     1.2080460    -0.1321620
  C       -2.5085200    -1.2080290    -0.1321720
  C       -3.1681670     0.0000160    -0.3683210
  H        1.1172230    -0.8840660     1.6657090
  H        1.1172220     0.8839640     1.6657670
  H       -0.6807710     2.1502980     0.5162590
  H       -0.6808140    -2.1503240     0.5162400
  H       -3.0168760     2.1516900    -0.3146600
  H       -3.0169200    -2.1516620    -0.3146780
  H       -4.1931340     0.0000280    -0.7308390
units angstrom
no_reorient  #important for SAPT in psi4, default
symmetry c1  #important for SAPT in psi4, default
}

set PROPERTIES_ORIGIN ["COM"]
properties('MP2/aug-cc-pvtz', properties = ['dipole'])
--------------------------------------------------------------------------

    Molecular point group: c1
  Charge       = 0
  Multiplicity = 1
  Basis Set: AUG-CC-PVTZ
    Blend: AUG-CC-PVTZ
  Basis Set: (AUG-CC-PVTZ AUX)
    Blend: AUG-CC-PVTZ-JKFIT

    Orbital Energies [Eh]
    ---------------------

    Doubly Occupied:

       1A    -26.352092     2A    -26.322713     3A    -26.322065
       4A    -11.504026     5A    -11.268019     6A    -11.258749
       7A    -11.247981     8A    -11.247529     9A    -11.246777
      10A    -11.246130    11A    -11.245223    12A     -1.724563
      13A     -1.634717    14A     -1.607735    15A     -1.170616
      16A     -1.095154    17A     -1.024910    18A     -1.005476
      19A     -0.919338    20A     -0.840726    21A     -0.830707
      22A     -0.817104    23A     -0.808999    24A     -0.770238
      25A     -0.711145    26A     -0.704895    27A     -0.693742
      28A     -0.666413    29A     -0.653475    30A     -0.645594
      31A     -0.644062    32A     -0.636229    33A     -0.596942
      34A     -0.586516    35A     -0.578198    36A     -0.567524
      37A     -0.506099    38A     -0.503819    39A     -0.501584
      40A     -0.346793    41A     -0.343936

  @DF-RHF Final Energy:  -605.58120584069820

   => Energetics <=

    Nuclear Repulsion Energy =            617.0299719590813083
    One-Electron Energy =               -2058.4252495934592844
    Two-Electron Energy =                 835.8140717936798865
    Total Energy =                       -605.5812058406982032
  Basis Set: (AUG-CC-PVTZ AUX)
    Blend: AUG-CC-PVTZ-RI
    Molecular point group: c1

    Geometry (in Angstrom), charge = 0, multiplicity = 1:

       Center              X                  Y                   Z               Mass
    ------------   -----------------  -----------------  -----------------  -----------------
         F            1.623382686318    -1.093609901871    -0.846642695691    18.998403162730
         F            3.055763686318    -0.003347901871     0.385002304309    18.998403162730
         F            1.623395686318     1.086992098129    -0.846575695691    18.998403162730
         C            0.799962686318    -0.003361901871     1.087768304309    12.000000000000
         C           -0.627717313682    -0.003345901871     0.609488304309    12.000000000000
         C            1.753409386318     0.041085298129    -0.078063595691    12.000000000000
         C           -1.291650313682     1.204418098129     0.364819304309    12.000000000000
         C           -1.291675313682    -1.211093901871     0.364809304309    12.000000000000
         C           -2.605969313682     1.204715098129    -0.103530695691    12.000000000000
         C           -2.605994313682    -1.211359901871    -0.103540695691    12.000000000000
         C           -3.265641313682    -0.003314901871    -0.339689695691    12.000000000000
         H            1.019748686318    -0.887396901871     1.694340304309     1.007825032230
         H            1.019747686318     0.880633098129     1.694398304309     1.007825032230
         H           -0.778245313682     2.146967098129     0.544890304309     1.007825032230
         H           -0.778288313682    -2.153654901871     0.544871304309     1.007825032230
         H           -3.114350313682     2.148359098129    -0.286028695691     1.007825032230
         H           -3.114394313682    -2.154992901871    -0.286046695691     1.007825032230
         H           -4.290608313682    -0.003302901871    -0.702207695691     1.007825032230

  Basis Set: AUG-CC-PVTZ
    Blend: AUG-CC-PVTZ
  Basis Set: (AUG-CC-PVTZ AUX)
    Blend: AUG-CC-PVTZ-JKFIT
	 Reference Energy          =    -605.5812058406982032 [Eh]
	 Singles Energy            =      -0.0000000000000000 [Eh]
	 Same-Spin Energy          =      -0.5617521227522542 [Eh]
	 Opposite-Spin Energy      =      -1.6939174893002249 [Eh]
	 Correlation Energy        =      -2.2556696120524791 [Eh]
	 Total Energy              =    -607.8368754527506326 [Eh]

	 ================> DF-SCS-MP2 Energies <==================
	-----------------------------------------------------------
	 SCS Same-Spin Scale       =       0.3333333333333333 [-]
	 SCS Opposite-Spin Scale   =       1.2000000000000000 [-]
	 SCS Same-Spin Energy      =      -0.1872507075840847 [Eh]
	 SCS Opposite-Spin Energy  =      -2.0327009871602697 [Eh]
	 SCS Correlation Energy    =      -2.2199516947443545 [Eh]
	 SCS Total Energy          =    -607.8011575354425986 [Eh]
	-----------------------------------------------------------

  Dipole Moment: [D]
     X:    -1.9877      Y:     0.3054      Z:     1.3372     Total:     2.4150

*** Psi4 exiting successfully. Buy a developer a beer!
