                               Psi4 1.3.2 release

  ==> Input File <==

--------------------------------------------------------------------------
#psi4
#
memory 32 gb

molecule  {
0 1
  F        1.7208570    -1.0902790    -0.8752740
  F        3.1532380    -0.0000170     0.3563710
  F        1.7208700     1.0903230    -0.8752070
  C        0.8974370    -0.0000310     1.0591370
  C       -0.5601284    -0.0000178     0.6816120
  C        1.8729300     0.0000000    -0.0891720
  C       -1.1941760     1.2077490     0.3361880
  C       -1.1942010    -1.2077630     0.3361780
  C       -2.5084950     1.2080460    -0.1321620
  C       -2.5085200    -1.2080290    -0.1321720
  C       -3.1681670     0.0000160    -0.3683210
  H        1.1172230    -0.8840660     1.6657090
  H        1.1172220     0.8839640     1.6657670
  H       -0.6807710     2.1502980     0.5162590
  H       -0.6808140    -2.1503240     0.5162400
  H       -3.0168760     2.1516900    -0.3146600
  H       -3.0169200    -2.1516620    -0.3146780
  H       -4.1931340     0.0000280    -0.7308390
units angstrom
no_reorient  #important for SAPT in psi4, default
symmetry c1  #important for SAPT in psi4, default
}

set PROPERTIES_ORIGIN ["COM"]
properties('MP2/aug-cc-pvtz', properties = ['dipole'])
--------------------------------------------------------------------------

    Molecular point group: c1
  Charge       = 0
  Multiplicity = 1
  Basis Set: AUG-CC-PVTZ
    Blend: AUG-CC-PVTZ
  Basis Set: (AUG-CC-PVTZ AUX)
    Blend: AUG-CC-PVTZ-JKFIT

    Orbital Energies [Eh]
    ---------------------

    Doubly Occupied:

       1A    -26.334506     2A    -26.332454     3A    -26.332433
       4A    -11.505012     5A    -11.267225     6A    -11.259716
       7A    -11.248817     8A    -11.248756     9A    -11.247211
      10A    -11.245732    11A    -11.245256    12A     -1.716941
      13A     -1.625552    14A     -1.625211    15A     -1.168731
      16A     -1.093566    17A     -1.024144    18A     -1.005352
      19A     -0.917586    20A     -0.838991    21A     -0.829839
      22A     -0.814035    23A     -0.810682    24A     -0.768113
      25A     -0.709606    26A     -0.705299    27A     -0.697874
      28A     -0.662326    29A     -0.658310    30A     -0.644154
      31A     -0.643468    32A     -0.643048    33A     -0.595876
      34A     -0.582287    35A     -0.578714    36A     -0.568001
      37A     -0.508302    38A     -0.500645    39A     -0.499735
      40A     -0.345776    41A     -0.343574

  @DF-RHF Final Energy:  -605.57973873187984

   => Energetics <=

    Nuclear Repulsion Energy =            615.9280319078789034
    One-Electron Energy =               -2056.2298347476044000
    Two-Electron Energy =                 834.7220641078456538
    Total Energy =                       -605.5797387318798428
  Basis Set: (AUG-CC-PVTZ AUX)
    Blend: AUG-CC-PVTZ-RI
    Molecular point group: c1

    Geometry (in Angstrom), charge = 0, multiplicity = 1:

       Center              X                  Y                   Z               Mass
    ------------   -----------------  -----------------  -----------------  -----------------
         F            1.623970435202    -1.090279517298    -0.855510767765    18.998403162730
         F            3.056351435202    -0.000017517298     0.376134232235    18.998403162730
         F            1.623983435202     1.090322482702    -0.855443767765    18.998403162730
         C            0.800550435202    -0.000031517298     1.078900232235    12.000000000000
         C           -0.657014964798    -0.000018317298     0.701375232235    12.000000000000
         C            1.776043435202    -0.000000517298    -0.069408767765    12.000000000000
         C           -1.291062564798     1.207748482702     0.355951232235    12.000000000000
         C           -1.291087564798    -1.207763517298     0.355941232235    12.000000000000
         C           -2.605381564798     1.208045482702    -0.112398767765    12.000000000000
         C           -2.605406564798    -1.208029517298    -0.112408767765    12.000000000000
         C           -3.265053564798     0.000015482702    -0.348557767765    12.000000000000
         H            1.020336435202    -0.884066517298     1.685472232235     1.007825032230
         H            1.020335435202     0.883963482702     1.685530232235     1.007825032230
         H           -0.777657564798     2.150297482702     0.536022232235     1.007825032230
         H           -0.777700564798    -2.150324517298     0.536003232235     1.007825032230
         H           -3.113762564798     2.151689482702    -0.294896767765     1.007825032230
         H           -3.113806564798    -2.151662517298    -0.294914767765     1.007825032230
         H           -4.290020564798     0.000027482702    -0.711075767765     1.007825032230

  Basis Set: AUG-CC-PVTZ
    Blend: AUG-CC-PVTZ
  Basis Set: (AUG-CC-PVTZ AUX)
    Blend: AUG-CC-PVTZ-JKFIT
	 Reference Energy          =    -605.5797387318798428 [Eh]
	 Singles Energy            =      -0.0000000000000000 [Eh]
	 Same-Spin Energy          =      -0.5617297689558668 [Eh]
	 Opposite-Spin Energy      =      -1.6941926753661607 [Eh]
	 Correlation Energy        =      -2.2559224443220276 [Eh]
	 Total Energy              =    -607.8356611762018247 [Eh]

	 ================> DF-SCS-MP2 Energies <==================
	-----------------------------------------------------------
	 SCS Same-Spin Scale       =       0.3333333333333333 [-]
	 SCS Opposite-Spin Scale   =       1.2000000000000000 [-]
	 SCS Same-Spin Energy      =      -0.1872432563186223 [Eh]
	 SCS Opposite-Spin Energy  =      -2.0330312104393928 [Eh]
	 SCS Correlation Energy    =      -2.2202744667580152 [Eh]
	 SCS Total Energy          =    -607.8000131986378847 [Eh]
	-----------------------------------------------------------

  Dipole Moment: [D]
     X:    -1.8332      Y:    -0.0000      Z:     1.3933     Total:     2.3026

*** Psi4 exiting successfully. Buy a developer a beer!
