                               Psi4 1.3.2 release

  ==> Input File <==

--------------------------------------------------------------------------
#psi4
#
memory 32 gb

molecule  {
0 1
  F        1.7912140    -1.0573222    -0.9289238
  F        3.1532380    -0.0000170     0.3563710
  F        1.7208700     1.0903230    -0.8752070
  C        0.8974370    -0.0000310     1.0591370
  C       -0.5302430    -0.0000150     0.5808570
  C        1.8729300     0.0000000    -0.0891720
  C       -1.1941760     1.2077490     0.3361880
  C       -1.1942010    -1.2077630     0.3361780
  C       -2.5084950     1.2080460    -0.1321620
  C       -2.5085200    -1.2080290    -0.1321720
  C       -3.1681670     0.0000160    -0.3683210
  H        1.1172230    -0.8840660     1.6657090
  H        1.1172220     0.8839640     1.6657670
  H       -0.6807710     2.1502980     0.5162590
  H       -0.6808140    -2.1503240     0.5162400
  H       -3.0168760     2.1516900    -0.3146600
  H       -3.0169200    -2.1516620    -0.3146780
  H       -4.1931340     0.0000280    -0.7308390
units angstrom
no_reorient  #important for SAPT in psi4, default
symmetry c1  #important for SAPT in psi4, default
}

set PROPERTIES_ORIGIN ["COM"]
properties('MP2/aug-cc-pvtz', properties = ['dipole'])
--------------------------------------------------------------------------

    Molecular point group: c1
  Charge       = 0
  Multiplicity = 1
  Basis Set: AUG-CC-PVTZ
    Blend: AUG-CC-PVTZ
  Basis Set: (AUG-CC-PVTZ AUX)
    Blend: AUG-CC-PVTZ-JKFIT

    Orbital Energies [Eh]
    ---------------------

    Doubly Occupied:

       1A    -26.329657     2A    -26.329626     3A    -26.328861
       4A    -11.502705     5A    -11.271113     6A    -11.259697
       7A    -11.248290     8A    -11.248123     9A    -11.247128
      10A    -11.246439    11A    -11.245560    12A     -1.716569
      13A     -1.622618    14A     -1.619913    15A     -1.171003
      16A     -1.095780    17A     -1.025226    18A     -1.005763
      19A     -0.917160    20A     -0.840778    21A     -0.829919
      22A     -0.811025    23A     -0.807247    24A     -0.768197
      25A     -0.710694    26A     -0.701985    27A     -0.696693
      28A     -0.658701    29A     -0.654631    30A     -0.644329
      31A     -0.643402    32A     -0.638590    33A     -0.597277
      34A     -0.587235    35A     -0.580850    36A     -0.570827
      37A     -0.506440    38A     -0.505380    39A     -0.502095
      40A     -0.347005    41A     -0.344492

  @DF-RHF Final Energy:  -605.58370386979982

   => Energetics <=

    Nuclear Repulsion Energy =            616.1743426282725977
    One-Electron Energy =               -2056.7580449005295122
    Two-Electron Energy =                 834.9999984024570949
    Total Energy =                       -605.5837038697998196
  Basis Set: (AUG-CC-PVTZ AUX)
    Blend: AUG-CC-PVTZ-RI
    Molecular point group: c1

    Geometry (in Angstrom), charge = 0, multiplicity = 1:

       Center              X                  Y                   Z               Mass
    ------------   -----------------  -----------------  -----------------  -----------------
         F            1.683735147709    -1.061234996168    -0.895237913952    18.998403162730
         F            3.045759147709    -0.003929796168     0.390056886048    18.998403162730
         F            1.613391147709     1.086410203832    -0.841521113952    18.998403162730
         C            0.789958147709    -0.003943796168     1.092822886048    12.000000000000
         C           -0.637721852291    -0.003927796168     0.614542886048    12.000000000000
         C            1.765451147709    -0.003912796168    -0.055486113952    12.000000000000
         C           -1.301654852291     1.203836203832     0.369873886048    12.000000000000
         C           -1.301679852291    -1.211675796168     0.369863886048    12.000000000000
         C           -2.615973852291     1.204133203832    -0.098476113952    12.000000000000
         C           -2.615998852291    -1.211941796168    -0.098486113952    12.000000000000
         C           -3.275645852291    -0.003896796168    -0.334635113952    12.000000000000
         H            1.009744147709    -0.887978796168     1.699394886048     1.007825032230
         H            1.009743147709     0.880051203832     1.699452886048     1.007825032230
         H           -0.788249852291     2.146385203832     0.549944886048     1.007825032230
         H           -0.788292852291    -2.154236796168     0.549925886048     1.007825032230
         H           -3.124354852291     2.147777203832    -0.280974113952     1.007825032230
         H           -3.124398852291    -2.155574796168    -0.280992113952     1.007825032230
         H           -4.300612852291    -0.003884796168    -0.697153113952     1.007825032230

  Basis Set: AUG-CC-PVTZ
    Blend: AUG-CC-PVTZ
  Basis Set: (AUG-CC-PVTZ AUX)
    Blend: AUG-CC-PVTZ-JKFIT
	 Reference Energy          =    -605.5837038697998196 [Eh]
	 Singles Energy            =      -0.0000000000000000 [Eh]
	 Same-Spin Energy          =      -0.5614580565176719 [Eh]
	 Opposite-Spin Energy      =      -1.6933449287878215 [Eh]
	 Correlation Energy        =      -2.2548029853054934 [Eh]
	 Total Energy              =    -607.8385068551052655 [Eh]

	 ================> DF-SCS-MP2 Energies <==================
	-----------------------------------------------------------
	 SCS Same-Spin Scale       =       0.3333333333333333 [-]
	 SCS Opposite-Spin Scale   =       1.2000000000000000 [-]
	 SCS Same-Spin Energy      =      -0.1871526855058906 [Eh]
	 SCS Opposite-Spin Energy  =      -2.0320139145453857 [Eh]
	 SCS Correlation Energy    =      -2.2191666000512762 [Eh]
	 SCS Total Energy          =    -607.8028704698510865 [Eh]
	-----------------------------------------------------------

  Dipole Moment: [D]
     X:    -1.9571      Y:    -0.0119      Z:     1.5658     Total:     2.5064

*** Psi4 exiting successfully. Buy a developer a beer!
