                               Psi4 1.3.2 release

  ==> Input File <==

--------------------------------------------------------------------------
#psi4
#
memory 32 gb

molecule  {
0 1
  F        1.7208570    -1.0902790    -0.8752740
  F        3.1532380    -0.0000170     0.3563710
  F        1.7208700     1.0903230    -0.8752070
  C        0.8974370    -0.0000310     1.0591370
  C       -0.4934021    -0.0000123     0.4824321
  C        1.8729300     0.0000000    -0.0891720
  C       -1.1941760     1.2077490     0.3361880
  C       -1.1942010    -1.2077630     0.3361780
  C       -2.5084950     1.2080460    -0.1321620
  C       -2.5085200    -1.2080290    -0.1321720
  C       -3.1681670     0.0000160    -0.3683210
  H        1.1172230    -0.8840660     1.6657090
  H        1.1172220     0.8839640     1.6657670
  H       -0.6807710     2.1502980     0.5162590
  H       -0.6808140    -2.1503240     0.5162400
  H       -3.0168760     2.1516900    -0.3146600
  H       -3.0169200    -2.1516620    -0.3146780
  H       -4.1931340     0.0000280    -0.7308390
units angstrom
no_reorient  #important for SAPT in psi4, default
symmetry c1  #important for SAPT in psi4, default
}

set PROPERTIES_ORIGIN ["COM"]
properties('MP2/aug-cc-pvtz', properties = ['dipole'])
--------------------------------------------------------------------------

    Molecular point group: c1
  Charge       = 0
  Multiplicity = 1
  Basis Set: AUG-CC-PVTZ
    Blend: AUG-CC-PVTZ
  Basis Set: (AUG-CC-PVTZ AUX)
    Blend: AUG-CC-PVTZ-JKFIT

    Orbital Energies [Eh]
    ---------------------

    Doubly Occupied:

       1A    -26.332032     2A    -26.332011     3A    -26.331278
       4A    -11.501691     5A    -11.268285     6A    -11.258989
       7A    -11.247651     8A    -11.247602     9A    -11.246174
      10A    -11.245336    11A    -11.244537    12A     -1.715962
      13A     -1.624943    14A     -1.623834    15A     -1.169401
      16A     -1.095538    17A     -1.023854    18A     -1.004278
      19A     -0.915966    20A     -0.839037    21A     -0.829185
      22A     -0.813097    23A     -0.808530    24A     -0.766154
      25A     -0.710356    26A     -0.704876    27A     -0.697207
      28A     -0.661825    29A     -0.658146    30A     -0.644568
      31A     -0.643613    32A     -0.641374    33A     -0.595912
      34A     -0.587671    35A     -0.574229    36A     -0.569253
      37A     -0.508353    38A     -0.500595    39A     -0.499833
      40A     -0.345485    41A     -0.342731

  @DF-RHF Final Energy:  -605.57980268244432

   => Energetics <=

    Nuclear Repulsion Energy =            617.5310969023440748
    One-Electron Energy =               -2059.4790228820447737
    Two-Electron Energy =                 836.3681232972564885
    Total Energy =                       -605.5798026824443241
  Basis Set: (AUG-CC-PVTZ AUX)
    Blend: AUG-CC-PVTZ-RI
    Molecular point group: c1

    Geometry (in Angstrom), charge = 0, multiplicity = 1:

       Center              X                  Y                   Z               Mass
    ------------   -----------------  -----------------  -----------------  -----------------
         F            1.618967525633    -1.090279929669    -0.840576940660    18.998403162730
         F            3.051348525633    -0.000017929669     0.391068059340    18.998403162730
         F            1.618980525633     1.090322070331    -0.840509940660    18.998403162730
         C            0.795547525633    -0.000031929669     1.093834059340    12.000000000000
         C           -0.595291574367    -0.000013229669     0.517129159340    12.000000000000
         C            1.771040525633    -0.000000929669    -0.054474940660    12.000000000000
         C           -1.296065474367     1.207748070331     0.370885059340    12.000000000000
         C           -1.296090474367    -1.207763929669     0.370875059340    12.000000000000
         C           -2.610384474367     1.208045070331    -0.097464940660    12.000000000000
         C           -2.610409474367    -1.208029929669    -0.097474940660    12.000000000000
         C           -3.270056474367     0.000015070331    -0.333623940660    12.000000000000
         H            1.015333525633    -0.884066929669     1.700406059340     1.007825032230
         H            1.015332525633     0.883963070331     1.700464059340     1.007825032230
         H           -0.782660474367     2.150297070331     0.550956059340     1.007825032230
         H           -0.782703474367    -2.150324929669     0.550937059340     1.007825032230
         H           -3.118765474367     2.151689070331    -0.279962940660     1.007825032230
         H           -3.118809474367    -2.151662929669    -0.279980940660     1.007825032230
         H           -4.295023474367     0.000027070331    -0.696141940660     1.007825032230

  Basis Set: AUG-CC-PVTZ
    Blend: AUG-CC-PVTZ
  Basis Set: (AUG-CC-PVTZ AUX)
    Blend: AUG-CC-PVTZ-JKFIT
	 Reference Energy          =    -605.5798026824443241 [Eh]
	 Singles Energy            =      -0.0000000000000000 [Eh]
	 Same-Spin Energy          =      -0.5619667068255289 [Eh]
	 Opposite-Spin Energy      =      -1.6945029214602676 [Eh]
	 Correlation Energy        =      -2.2564696282857963 [Eh]
	 Total Energy              =    -607.8362723107301235 [Eh]

	 ================> DF-SCS-MP2 Energies <==================
	-----------------------------------------------------------
	 SCS Same-Spin Scale       =       0.3333333333333333 [-]
	 SCS Opposite-Spin Scale   =       1.2000000000000000 [-]
	 SCS Same-Spin Energy      =      -0.1873222356085096 [Eh]
	 SCS Opposite-Spin Energy  =      -2.0334035057523212 [Eh]
	 SCS Correlation Energy    =      -2.2207257413608308 [Eh]
	 SCS Total Energy          =    -607.8005284238051900 [Eh]
	-----------------------------------------------------------

  Dipole Moment: [D]
     X:    -1.8151      Y:    -0.0000      Z:     1.5082     Total:     2.3599

*** Psi4 exiting successfully. Buy a developer a beer!
