                               Psi4 1.3.2 release

  ==> Input File <==

--------------------------------------------------------------------------
#psi4
#
memory 32 gb

molecule  {
0 1
  F        1.6168168    -1.1297115    -0.7877053
  F        3.1532380    -0.0000170     0.3563710
  F        1.7208700     1.0903230    -0.8752070
  C        0.8974370    -0.0000310     1.0591370
  C       -0.5302430    -0.0000150     0.5808570
  C        1.8729300     0.0000000    -0.0891720
  C       -1.1941760     1.2077490     0.3361880
  C       -1.1942010    -1.2077630     0.3361780
  C       -2.5084950     1.2080460    -0.1321620
  C       -2.5085200    -1.2080290    -0.1321720
  C       -3.1681670     0.0000160    -0.3683210
  H        1.1172230    -0.8840660     1.6657090
  H        1.1172220     0.8839640     1.6657670
  H       -0.6807710     2.1502980     0.5162590
  H       -0.6808140    -2.1503240     0.5162400
  H       -3.0168760     2.1516900    -0.3146600
  H       -3.0169200    -2.1516620    -0.3146780
  H       -4.1931340     0.0000280    -0.7308390
units angstrom
no_reorient  #important for SAPT in psi4, default
symmetry c1  #important for SAPT in psi4, default
}

set PROPERTIES_ORIGIN ["COM"]
properties('MP2/aug-cc-pvtz', properties = ['dipole'])
--------------------------------------------------------------------------

    Molecular point group: c1
  Charge       = 0
  Multiplicity = 1
  Basis Set: AUG-CC-PVTZ
    Blend: AUG-CC-PVTZ
  Basis Set: (AUG-CC-PVTZ AUX)
    Blend: AUG-CC-PVTZ-JKFIT

    Orbital Energies [Eh]
    ---------------------

    Doubly Occupied:

       1A    -26.338074     2A    -26.337325     3A    -26.335583
       4A    -11.504723     5A    -11.262825     6A    -11.256393
       7A    -11.245713     8A    -11.245491     9A    -11.244710
      10A    -11.244043    11A    -11.243245    12A     -1.716992
      13A     -1.632288    14A     -1.628317    15A     -1.168012
      16A     -1.092482    17A     -1.022802    18A     -1.004947
      19A     -0.916572    20A     -0.838522    21A     -0.828692
      22A     -0.818915    23A     -0.811608    24A     -0.766329
      25A     -0.712521    26A     -0.707583    27A     -0.698179
      28A     -0.668966    29A     -0.663503    30A     -0.649271
      31A     -0.642661    32A     -0.642191    33A     -0.594758
      34A     -0.582150    35A     -0.571500    36A     -0.564020
      37A     -0.503313    38A     -0.502362    39A     -0.499465
      40A     -0.344657    41A     -0.341591

  @DF-RHF Final Energy:  -605.57978999911415

   => Energetics <=

    Nuclear Repulsion Energy =            618.1341359711829000
    One-Electron Energy =               -2060.6412726775884039
    Two-Electron Energy =                 836.9273467072914627
    Total Energy =                       -605.5797899991141549
  Basis Set: (AUG-CC-PVTZ AUX)
    Blend: AUG-CC-PVTZ-RI
    Molecular point group: c1

    Geometry (in Angstrom), charge = 0, multiplicity = 1:

       Center              X                  Y                   Z               Mass
    ------------   -----------------  -----------------  -----------------  -----------------
         F            1.530039407456    -1.125031473691    -0.770782464582    18.998403162730
         F            3.066460607456     0.004663026309     0.373293835418    18.998403162730
         F            1.634092607456     1.095003026309    -0.858284164582    18.998403162730
         C            0.810659607456     0.004649026309     1.076059835418    12.000000000000
         C           -0.617020392544     0.004665026309     0.597779835418    12.000000000000
         C            1.786152607456     0.004680026309    -0.072249164582    12.000000000000
         C           -1.280953392544     1.212429026309     0.353110835418    12.000000000000
         C           -1.280978392544    -1.203082973691     0.353100835418    12.000000000000
         C           -2.595272392544     1.212726026309    -0.115239164582    12.000000000000
         C           -2.595297392544    -1.203348973691    -0.115249164582    12.000000000000
         C           -3.254944392544     0.004696026309    -0.351398164582    12.000000000000
         H            1.030445607456    -0.879385973691     1.682631835418     1.007825032230
         H            1.030444607456     0.888644026309     1.682689835418     1.007825032230
         H           -0.767548392544     2.154978026309     0.533181835418     1.007825032230
         H           -0.767591392544    -2.145643973691     0.533162835418     1.007825032230
         H           -3.103653392544     2.156370026309    -0.297737164582     1.007825032230
         H           -3.103697392544    -2.146981973691    -0.297755164582     1.007825032230
         H           -4.279911392544     0.004708026309    -0.713916164582     1.007825032230

  Basis Set: AUG-CC-PVTZ
    Blend: AUG-CC-PVTZ
  Basis Set: (AUG-CC-PVTZ AUX)
    Blend: AUG-CC-PVTZ-JKFIT
	 Reference Energy          =    -605.5797899991141549 [Eh]
	 Singles Energy            =      -0.0000000000000000 [Eh]
	 Same-Spin Energy          =      -0.5620254343541160 [Eh]
	 Opposite-Spin Energy      =      -1.6945430674070570 [Eh]
	 Correlation Energy        =      -2.2565685017611727 [Eh]
	 Total Energy              =    -607.8363585008753489 [Eh]

	 ================> DF-SCS-MP2 Energies <==================
	-----------------------------------------------------------
	 SCS Same-Spin Scale       =       0.3333333333333333 [-]
	 SCS Opposite-Spin Scale   =       1.2000000000000000 [-]
	 SCS Same-Spin Energy      =      -0.1873418114513720 [Eh]
	 SCS Opposite-Spin Energy  =      -2.0334516808884682 [Eh]
	 SCS Correlation Energy    =      -2.2207934923398400 [Eh]
	 SCS Total Energy          =    -607.8005834914539491 [Eh]
	-----------------------------------------------------------

  Dipole Moment: [D]
     X:    -1.5701      Y:     0.0031      Z:     1.2871     Total:     2.0303

*** Psi4 exiting successfully. Buy a developer a beer!
