                               Psi4 1.3.2 release

  ==> Input File <==

--------------------------------------------------------------------------
#psi4
#
memory 32 gb

molecule  {
0 1
  F        1.7208570    -1.0902790    -0.8752740
  F        3.1532380    -0.0000170     0.3563710
  F        1.7208700     1.0903230    -0.8752070
  C        0.8974370    -0.0000310     1.0591370
  C       -0.5302430    -0.0000150     0.5808570
  C        1.8620537     0.0222115    -0.0981097
  C       -1.1941760     1.2077490     0.3361880
  C       -1.1942010    -1.2077630     0.3361780
  C       -2.5084950     1.2080460    -0.1321620
  C       -2.5085200    -1.2080290    -0.1321720
  C       -3.1681670     0.0000160    -0.3683210
  H        1.1172230    -0.8840660     1.6657090
  H        1.1172220     0.8839640     1.6657670
  H       -0.6807710     2.1502980     0.5162590
  H       -0.6808140    -2.1503240     0.5162400
  H       -3.0168760     2.1516900    -0.3146600
  H       -3.0169200    -2.1516620    -0.3146780
  H       -4.1931340     0.0000280    -0.7308390
units angstrom
no_reorient  #important for SAPT in psi4, default
symmetry c1  #important for SAPT in psi4, default
}

set PROPERTIES_ORIGIN ["COM"]
properties('MP2/aug-cc-pvtz', properties = ['dipole'])
--------------------------------------------------------------------------

    Molecular point group: c1
  Charge       = 0
  Multiplicity = 1
  Basis Set: AUG-CC-PVTZ
    Blend: AUG-CC-PVTZ
  Basis Set: (AUG-CC-PVTZ AUX)
    Blend: AUG-CC-PVTZ-JKFIT

    Orbital Energies [Eh]
    ---------------------

    Doubly Occupied:

       1A    -26.342215     2A    -26.327644     3A    -26.327577
       4A    -11.503634     5A    -11.267857     6A    -11.258564
       7A    -11.247567     8A    -11.247341     9A    -11.246467
      10A    -11.245813    11A    -11.244932    12A     -1.718426
      13A     -1.631782    14A     -1.616355    15A     -1.170203
      16A     -1.094760    17A     -1.024579    18A     -1.005348
      19A     -0.917537    20A     -0.840262    21A     -0.829717
      22A     -0.815225    23A     -0.808746    24A     -0.768302
      25A     -0.710613    26A     -0.705512    27A     -0.695833
      28A     -0.664587    29A     -0.655672    30A     -0.645188
      31A     -0.644021    32A     -0.640500    33A     -0.596593
      34A     -0.585571    35A     -0.577730    36A     -0.568509
      37A     -0.505665    38A     -0.504008    39A     -0.501338
      40A     -0.346423    41A     -0.343649

  @DF-RHF Final Energy:  -605.58337957337608

   => Energetics <=

    Nuclear Repulsion Energy =            616.9434753275112371
    One-Electron Energy =               -2058.2691839405893006
    Two-Electron Energy =                 835.7423290397018718
    Total Energy =                       -605.5833795733760780
  Basis Set: (AUG-CC-PVTZ AUX)
    Blend: AUG-CC-PVTZ-RI
    Molecular point group: c1

    Geometry (in Angstrom), charge = 0, multiplicity = 1:

       Center              X                  Y                   Z               Mass
    ------------   -----------------  -----------------  -----------------  -----------------
         F            1.622545197953    -1.091945069472    -0.847286384599    18.998403162730
         F            3.054926197953    -0.001683069472     0.384358615401    18.998403162730
         F            1.622558197953     1.088656930528    -0.847219384599    18.998403162730
         C            0.799125197953    -0.001697069472     1.087124615401    12.000000000000
         C           -0.628554802047    -0.001681069472     0.608844615401    12.000000000000
         C            1.763741897953     0.020545430528    -0.070122084599    12.000000000000
         C           -1.292487802047     1.206082930528     0.364175615401    12.000000000000
         C           -1.292512802047    -1.209429069472     0.364165615401    12.000000000000
         C           -2.606806802047     1.206379930528    -0.104174384599    12.000000000000
         C           -2.606831802047    -1.209695069472    -0.104184384599    12.000000000000
         C           -3.266478802047    -0.001650069472    -0.340333384599    12.000000000000
         H            1.018911197953    -0.885732069472     1.693696615401     1.007825032230
         H            1.018910197953     0.882297930528     1.693754615401     1.007825032230
         H           -0.779082802047     2.148631930528     0.544246615401     1.007825032230
         H           -0.779125802047    -2.151990069472     0.544227615401     1.007825032230
         H           -3.115187802047     2.150023930528    -0.286672384599     1.007825032230
         H           -3.115231802047    -2.153328069472    -0.286690384599     1.007825032230
         H           -4.291445802047    -0.001638069472    -0.702851384599     1.007825032230

  Basis Set: AUG-CC-PVTZ
    Blend: AUG-CC-PVTZ
  Basis Set: (AUG-CC-PVTZ AUX)
    Blend: AUG-CC-PVTZ-JKFIT
	 Reference Energy          =    -605.5833795733760780 [Eh]
	 Singles Energy            =      -0.0000000000000000 [Eh]
	 Same-Spin Energy          =      -0.5616605257577827 [Eh]
	 Opposite-Spin Energy      =      -1.6937634267504031 [Eh]
	 Correlation Energy        =      -2.2554239525081856 [Eh]
	 Total Energy              =    -607.8388035258842592 [Eh]

	 ================> DF-SCS-MP2 Energies <==================
	-----------------------------------------------------------
	 SCS Same-Spin Scale       =       0.3333333333333333 [-]
	 SCS Opposite-Spin Scale   =       1.2000000000000000 [-]
	 SCS Same-Spin Energy      =      -0.1872201752525942 [Eh]
	 SCS Opposite-Spin Energy  =      -2.0325161121004838 [Eh]
	 SCS Correlation Energy    =      -2.2197362873530779 [Eh]
	 SCS Total Energy          =    -607.8031158607291218 [Eh]
	-----------------------------------------------------------

  Dipole Moment: [D]
     X:    -1.8941      Y:     0.1522      Z:     1.3973     Total:     2.3586

*** Psi4 exiting successfully. Buy a developer a beer!
