                               Psi4 1.3.2 release

  ==> Input File <==

--------------------------------------------------------------------------
#psi4
#
memory 32 gb

molecule  {
0 1
  F        1.7208570    -1.0902790    -0.8752740
  F        3.1532380    -0.0000170     0.3563710
  F        1.7208700     1.0903230    -0.8752070
  C        0.8974370    -0.0000310     1.0591370
  C       -0.5302430    -0.0000150     0.5808570
  C        1.9318379    -0.1330323    -0.0283029
  C       -1.1941760     1.2077490     0.3361880
  C       -1.1942010    -1.2077630     0.3361780
  C       -2.5084950     1.2080460    -0.1321620
  C       -2.5085200    -1.2080290    -0.1321720
  C       -3.1681670     0.0000160    -0.3683210
  H        1.1172230    -0.8840660     1.6657090
  H        1.1172220     0.8839640     1.6657670
  H       -0.6807710     2.1502980     0.5162590
  H       -0.6808140    -2.1503240     0.5162400
  H       -3.0168760     2.1516900    -0.3146600
  H       -3.0169200    -2.1516620    -0.3146780
  H       -4.1931340     0.0000280    -0.7308390
units angstrom
no_reorient  #important for SAPT in psi4, default
symmetry c1  #important for SAPT in psi4, default
}

set PROPERTIES_ORIGIN ["COM"]
properties('MP2/aug-cc-pvtz', properties = ['dipole'])
--------------------------------------------------------------------------

    Molecular point group: c1
  Charge       = 0
  Multiplicity = 1
  Basis Set: AUG-CC-PVTZ
    Blend: AUG-CC-PVTZ
  Basis Set: (AUG-CC-PVTZ AUX)
    Blend: AUG-CC-PVTZ-JKFIT

    Orbital Energies [Eh]
    ---------------------

    Doubly Occupied:

       1A    -26.364094     2A    -26.358916     3A    -26.270393
       4A    -11.508673     5A    -11.270768     6A    -11.258415
       7A    -11.246878     8A    -11.245516     9A    -11.245090
      10A    -11.244162    11A    -11.243312    12A     -1.745349
      13A     -1.673756    14A     -1.551857    15A     -1.168504
      16A     -1.095213    17A     -1.022960    18A     -1.008425
      19A     -0.928058    20A     -0.845799    21A     -0.838333
      22A     -0.827103    23A     -0.811155    24A     -0.776947
      25A     -0.723894    26A     -0.704673    27A     -0.689899
      28A     -0.677353    29A     -0.646864    30A     -0.644965
      31A     -0.614347    32A     -0.610777    33A     -0.594748
      34A     -0.586304    35A     -0.579035    36A     -0.552872
      37A     -0.505654    38A     -0.502713    39A     -0.499594
      40A     -0.344653    41A     -0.342026

  @DF-RHF Final Energy:  -605.56298526270143

   => Energetics <=

    Nuclear Repulsion Energy =            616.3443200288436401
    One-Electron Energy =               -2057.0745122731796073
    Two-Electron Energy =                 835.1672069816345356
    Total Energy =                       -605.5629852627014316
  Basis Set: (AUG-CC-PVTZ AUX)
    Blend: AUG-CC-PVTZ-RI
    Molecular point group: c1

    Geometry (in Angstrom), charge = 0, multiplicity = 1:

       Center              X                  Y                   Z               Mass
    ------------   -----------------  -----------------  -----------------  -----------------
         F            1.617313017509    -1.080305420750    -0.852520259514    18.998403162730
         F            3.049694017509     0.009956579250     0.379124740486    18.998403162730
         F            1.617326017509     1.100296579250    -0.852453259514    18.998403162730
         C            0.793893017509     0.009942579250     1.081890740486    12.000000000000
         C           -0.633786982491     0.009958579250     0.603610740486    12.000000000000
         C            1.828293917509    -0.123058720750    -0.005549159514    12.000000000000
         C           -1.297719982491     1.217722579250     0.358941740486    12.000000000000
         C           -1.297744982491    -1.197789420750     0.358931740486    12.000000000000
         C           -2.612038982491     1.218019579250    -0.109408259514    12.000000000000
         C           -2.612063982491    -1.198055420750    -0.109418259514    12.000000000000
         C           -3.271710982491     0.009989579250    -0.345567259514    12.000000000000
         H            1.013679017509    -0.874092420750     1.688462740486     1.007825032230
         H            1.013678017509     0.893937579250     1.688520740486     1.007825032230
         H           -0.784314982491     2.160271579250     0.539012740486     1.007825032230
         H           -0.784357982491    -2.140350420750     0.538993740486     1.007825032230
         H           -3.120419982491     2.161663579250    -0.291906259514     1.007825032230
         H           -3.120463982491    -2.141688420750    -0.291924259514     1.007825032230
         H           -4.296677982491     0.010001579250    -0.708085259514     1.007825032230

  Basis Set: AUG-CC-PVTZ
    Blend: AUG-CC-PVTZ
  Basis Set: (AUG-CC-PVTZ AUX)
    Blend: AUG-CC-PVTZ-JKFIT
	 Reference Energy          =    -605.5629852627014316 [Eh]
	 Singles Energy            =      -0.0000000000000000 [Eh]
	 Same-Spin Energy          =      -0.5623680205548294 [Eh]
	 Opposite-Spin Energy      =      -1.6950576928434020 [Eh]
	 Correlation Energy        =      -2.2574257133982316 [Eh]
	 Total Energy              =    -607.8204109760996516 [Eh]

	 ================> DF-SCS-MP2 Energies <==================
	-----------------------------------------------------------
	 SCS Same-Spin Scale       =       0.3333333333333333 [-]
	 SCS Opposite-Spin Scale   =       1.2000000000000000 [-]
	 SCS Same-Spin Energy      =      -0.1874560068516098 [Eh]
	 SCS Opposite-Spin Energy  =      -2.0340692314120825 [Eh]
	 SCS Correlation Energy    =      -2.2215252382636921 [Eh]
	 SCS Total Energy          =    -607.7845105009650979 [Eh]
	-----------------------------------------------------------

  Dipole Moment: [D]
     X:    -1.3288      Y:    -0.9102      Z:     1.8783     Total:     2.4743

*** Psi4 exiting successfully. Buy a developer a beer!
