                               Psi4 1.3.2 release

  ==> Input File <==

--------------------------------------------------------------------------
#psi4
#
memory 32 gb

molecule  {
0 1
  F        1.7208570    -1.0902790    -0.8752740
  F        3.1532380    -0.0000170     0.3563710
  F        1.7208700     1.0903230    -0.8752070
  C        0.8974370    -0.0000310     1.0591370
  C       -0.5302430    -0.0000150     0.5808570
  C        1.8937879    -0.0444162    -0.0702500
  C       -1.1941760     1.2077490     0.3361880
  C       -1.1942010    -1.2077630     0.3361780
  C       -2.5084950     1.2080460    -0.1321620
  C       -2.5085200    -1.2080290    -0.1321720
  C       -3.1681670     0.0000160    -0.3683210
  H        1.1172230    -0.8840660     1.6657090
  H        1.1172220     0.8839640     1.6657670
  H       -0.6807710     2.1502980     0.5162590
  H       -0.6808140    -2.1503240     0.5162400
  H       -3.0168760     2.1516900    -0.3146600
  H       -3.0169200    -2.1516620    -0.3146780
  H       -4.1931340     0.0000280    -0.7308390
units angstrom
no_reorient  #important for SAPT in psi4, default
symmetry c1  #important for SAPT in psi4, default
}

set PROPERTIES_ORIGIN ["COM"]
properties('MP2/aug-cc-pvtz', properties = ['dipole'])
--------------------------------------------------------------------------

    Molecular point group: c1
  Charge       = 0
  Multiplicity = 1
  Basis Set: AUG-CC-PVTZ
    Blend: AUG-CC-PVTZ
  Basis Set: (AUG-CC-PVTZ AUX)
    Blend: AUG-CC-PVTZ-JKFIT

    Orbital Energies [Eh]
    ---------------------

    Doubly Occupied:

       1A    -26.343685     2A    -26.341482     3A    -26.312295
       4A    -11.504067     5A    -11.268210     6A    -11.258251
       7A    -11.246960     8A    -11.246507     9A    -11.245728
      10A    -11.244956    11A    -11.244155    12A     -1.721797
      13A     -1.641742    14A     -1.603892    15A     -1.169220
      16A     -1.094257    17A     -1.023738    18A     -1.005926
      19A     -0.918541    20A     -0.839335    21A     -0.830834
      22A     -0.816266    23A     -0.809790    24A     -0.768700
      25A     -0.712355    26A     -0.701734    27A     -0.697813
      28A     -0.668854    29A     -0.653119    30A     -0.644553
      31A     -0.640436    32A     -0.637649    33A     -0.595761
      34A     -0.584186    35A     -0.577787    36A     -0.566519
      37A     -0.504720    38A     -0.504346    39A     -0.500566
      40A     -0.345490    41A     -0.342866

  @DF-RHF Final Energy:  -605.58152780681314

   => Energetics <=

    Nuclear Repulsion Energy =            616.6971284805474625
    One-Electron Energy =               -2057.7991374166581409
    Two-Electron Energy =                 835.5204811292975364
    Total Energy =                       -605.5815278068131420
  Basis Set: (AUG-CC-PVTZ AUX)
    Blend: AUG-CC-PVTZ-RI
    Molecular point group: c1

    Geometry (in Angstrom), charge = 0, multiplicity = 1:

       Center              X                  Y                   Z               Mass
    ------------   -----------------  -----------------  -----------------  -----------------
         F            1.620165876263    -1.086949552593    -0.849375209541    18.998403162730
         F            3.052546876263     0.003312447407     0.382269790459    18.998403162730
         F            1.620178876263     1.093652447407    -0.849308209541    18.998403162730
         C            0.796745876263     0.003298447407     1.085035790459    12.000000000000
         C           -0.630934123737     0.003314447407     0.606755790459    12.000000000000
         C            1.793096776263    -0.041086752593    -0.044351209541    12.000000000000
         C           -1.294867123737     1.211078447407     0.362086790459    12.000000000000
         C           -1.294892123737    -1.204433552593     0.362076790459    12.000000000000
         C           -2.609186123737     1.211375447407    -0.106263209541    12.000000000000
         C           -2.609211123737    -1.204699552593    -0.106273209541    12.000000000000
         C           -3.268858123737     0.003345447407    -0.342422209541    12.000000000000
         H            1.016531876263    -0.880736552593     1.691607790459     1.007825032230
         H            1.016530876263     0.887293447407     1.691665790459     1.007825032230
         H           -0.781462123737     2.153627447407     0.542157790459     1.007825032230
         H           -0.781505123737    -2.146994552593     0.542138790459     1.007825032230
         H           -3.117567123737     2.155019447407    -0.288761209541     1.007825032230
         H           -3.117611123737    -2.148332552593    -0.288779209541     1.007825032230
         H           -4.293825123737     0.003357447407    -0.704940209541     1.007825032230

  Basis Set: AUG-CC-PVTZ
    Blend: AUG-CC-PVTZ
  Basis Set: (AUG-CC-PVTZ AUX)
    Blend: AUG-CC-PVTZ-JKFIT
	 Reference Energy          =    -605.5815278068131420 [Eh]
	 Singles Energy            =      -0.0000000000000000 [Eh]
	 Same-Spin Energy          =      -0.5616938762697852 [Eh]
	 Opposite-Spin Energy      =      -1.6938716428871541 [Eh]
	 Correlation Energy        =      -2.2555655191569395 [Eh]
	 Total Energy              =    -607.8370933259700450 [Eh]

	 ================> DF-SCS-MP2 Energies <==================
	-----------------------------------------------------------
	 SCS Same-Spin Scale       =       0.3333333333333333 [-]
	 SCS Opposite-Spin Scale   =       1.2000000000000000 [-]
	 SCS Same-Spin Energy      =      -0.1872312920899284 [Eh]
	 SCS Opposite-Spin Energy  =      -2.0326459714645848 [Eh]
	 SCS Correlation Energy    =      -2.2198772635545132 [Eh]
	 SCS Total Energy          =    -607.8014050703676503 [Eh]
	-----------------------------------------------------------

  Dipole Moment: [D]
     X:    -1.6329      Y:    -0.3029      Z:     1.5889     Total:     2.2984

*** Psi4 exiting successfully. Buy a developer a beer!
