                               Psi4 1.3.2 release

  ==> Input File <==

--------------------------------------------------------------------------
#psi4
#
memory 32 gb

molecule  {
0 1
  F        1.7208570    -1.0902790    -0.8752740
  F        3.1532380    -0.0000170     0.3563710
  F        1.7208700     1.0903230    -0.8752070
  C        0.8974370    -0.0000310     1.0591370
  C       -0.4724281    -0.0000109     0.4342439
  C        1.8729300     0.0000000    -0.0891720
  C       -1.1941760     1.2077490     0.3361880
  C       -1.1942010    -1.2077630     0.3361780
  C       -2.5084950     1.2080460    -0.1321620
  C       -2.5085200    -1.2080290    -0.1321720
  C       -3.1681670     0.0000160    -0.3683210
  H        1.1172230    -0.8840660     1.6657090
  H        1.1172220     0.8839640     1.6657670
  H       -0.6807710     2.1502980     0.5162590
  H       -0.6808140    -2.1503240     0.5162400
  H       -3.0168760     2.1516900    -0.3146600
  H       -3.0169200    -2.1516620    -0.3146780
  H       -4.1931340     0.0000280    -0.7308390
units angstrom
no_reorient  #important for SAPT in psi4, default
symmetry c1  #important for SAPT in psi4, default
}

set PROPERTIES_ORIGIN ["COM"]
properties('MP2/aug-cc-pvtz', properties = ['dipole'])
--------------------------------------------------------------------------

    Molecular point group: c1
  Charge       = 0
  Multiplicity = 1
  Basis Set: AUG-CC-PVTZ
    Blend: AUG-CC-PVTZ
  Basis Set: (AUG-CC-PVTZ AUX)
    Blend: AUG-CC-PVTZ-JKFIT

    Orbital Energies [Eh]
    ---------------------

    Doubly Occupied:

       1A    -26.331804     2A    -26.331783     3A    -26.330221
       4A    -11.500687     5A    -11.268439     6A    -11.259956
       7A    -11.248735     8A    -11.248671     9A    -11.246448
      10A    -11.245208    11A    -11.244634    12A     -1.715590
      13A     -1.624784    14A     -1.623218    15A     -1.168630
      16A     -1.096133    17A     -1.023454    18A     -1.003270
      19A     -0.915354    20A     -0.838005    21A     -0.829232
      22A     -0.812706    23A     -0.807812    24A     -0.765329
      25A     -0.710305    26A     -0.704704    27A     -0.697011
      28A     -0.661531    29A     -0.658183    30A     -0.644956
      31A     -0.643127    32A     -0.640404    33A     -0.595425
      34A     -0.588791    35A     -0.572382    36A     -0.569295
      37A     -0.509675    38A     -0.499669    39A     -0.497210
      40A     -0.344867    41A     -0.342249

  @DF-RHF Final Energy:  -605.57431568875222

   => Energetics <=

    Nuclear Repulsion Energy =            617.7721510175276762
    One-Electron Energy =               -2059.9731678521238791
    Two-Electron Energy =                 836.6267011458439811
    Total Energy =                       -605.5743156887522218
  Basis Set: (AUG-CC-PVTZ AUX)
    Blend: AUG-CC-PVTZ-RI
    Molecular point group: c1

    Geometry (in Angstrom), charge = 0, multiplicity = 1:

       Center              X                  Y                   Z               Mass
    ------------   -----------------  -----------------  -----------------  -----------------
         F            1.617394966908    -1.090280034636    -0.836963954373    18.998403162730
         F            3.049775966908    -0.000018034636     0.394681045627    18.998403162730
         F            1.617407966908     1.090321965364    -0.836896954373    18.998403162730
         C            0.793974966908    -0.000032034636     1.097447045627    12.000000000000
         C           -0.575890133092    -0.000011934636     0.472553945627    12.000000000000
         C            1.769467966908    -0.000001034636    -0.050861954373    12.000000000000
         C           -1.297638033092     1.207747965364     0.374498045627    12.000000000000
         C           -1.297663033092    -1.207764034636     0.374488045627    12.000000000000
         C           -2.611957033092     1.208044965364    -0.093851954373    12.000000000000
         C           -2.611982033092    -1.208030034636    -0.093861954373    12.000000000000
         C           -3.271629033092     0.000014965364    -0.330010954373    12.000000000000
         H            1.013760966908    -0.884067034636     1.704019045627     1.007825032230
         H            1.013759966908     0.883962965364     1.704077045627     1.007825032230
         H           -0.784233033092     2.150296965364     0.554569045627     1.007825032230
         H           -0.784276033092    -2.150325034636     0.554550045627     1.007825032230
         H           -3.120338033092     2.151688965364    -0.276349954373     1.007825032230
         H           -3.120382033092    -2.151663034636    -0.276367954373     1.007825032230
         H           -4.296596033092     0.000026965364    -0.692528954373     1.007825032230

  Basis Set: AUG-CC-PVTZ
    Blend: AUG-CC-PVTZ
  Basis Set: (AUG-CC-PVTZ AUX)
    Blend: AUG-CC-PVTZ-JKFIT
	 Reference Energy          =    -605.5743156887522218 [Eh]
	 Singles Energy            =      -0.0000000000000000 [Eh]
	 Same-Spin Energy          =      -0.5623155061867036 [Eh]
	 Opposite-Spin Energy      =      -1.6953721773478507 [Eh]
	 Correlation Energy        =      -2.2576876835345541 [Eh]
	 Total Energy              =    -607.8320033722867493 [Eh]

	 ================> DF-SCS-MP2 Energies <==================
	-----------------------------------------------------------
	 SCS Same-Spin Scale       =       0.3333333333333333 [-]
	 SCS Opposite-Spin Scale   =       1.2000000000000000 [-]
	 SCS Same-Spin Energy      =      -0.1874385020622345 [Eh]
	 SCS Opposite-Spin Energy  =      -2.0344466128174208 [Eh]
	 SCS Correlation Energy    =      -2.2218851148796555 [Eh]
	 SCS Total Energy          =    -607.7962008036319048 [Eh]
	-----------------------------------------------------------

  Dipole Moment: [D]
     X:    -1.8362      Y:    -0.0000      Z:     1.5265     Total:     2.3879

*** Psi4 exiting successfully. Buy a developer a beer!
