                               Psi4 1.3.2 release

  ==> Input File <==

--------------------------------------------------------------------------
#psi4
#
memory 32 gb

molecule  {
0 1
  F        1.7208570    -1.0902790    -0.8752740
  F        3.1532380    -0.0000170     0.3563710
  F        1.7208700     1.0903230    -0.8752070
  C        0.8974370    -0.0000310     1.0591370
  C       -0.5302430    -0.0000150     0.5808570
  C        1.8835091    -0.0222115    -0.0798845
  C       -1.1941760     1.2077490     0.3361880
  C       -1.1942010    -1.2077630     0.3361780
  C       -2.5084950     1.2080460    -0.1321620
  C       -2.5085200    -1.2080290    -0.1321720
  C       -3.1681670     0.0000160    -0.3683210
  H        1.1172230    -0.8840660     1.6657090
  H        1.1172220     0.8839640     1.6657670
  H       -0.6807710     2.1502980     0.5162590
  H       -0.6808140    -2.1503240     0.5162400
  H       -3.0168760     2.1516900    -0.3146600
  H       -3.0169200    -2.1516620    -0.3146780
  H       -4.1931340     0.0000280    -0.7308390
units angstrom
no_reorient  #important for SAPT in psi4, default
symmetry c1  #important for SAPT in psi4, default
}

set PROPERTIES_ORIGIN ["COM"]
properties('MP2/aug-cc-pvtz', properties = ['dipole'])
--------------------------------------------------------------------------

    Molecular point group: c1
  Charge       = 0
  Multiplicity = 1
  Basis Set: AUG-CC-PVTZ
    Blend: AUG-CC-PVTZ
  Basis Set: (AUG-CC-PVTZ AUX)
    Blend: AUG-CC-PVTZ-JKFIT

    Orbital Energies [Eh]
    ---------------------

    Doubly Occupied:

       1A    -26.338432     2A    -26.336947     3A    -26.322359
       4A    -11.503645     5A    -11.267949     6A    -11.258315
       7A    -11.247057     8A    -11.246831     9A    -11.245946
      10A    -11.245222    11A    -11.244399    12A     -1.718055
      13A     -1.633374    14A     -1.615408    15A     -1.169505
      16A     -1.094311    17A     -1.023994    18A     -1.005591
      19A     -0.917344    20A     -0.839562    21A     -0.829694
      22A     -0.813737    23A     -0.810461    24A     -0.767654
      25A     -0.710726    26A     -0.703242    27A     -0.698746
      28A     -0.664004    29A     -0.656910    30A     -0.644291
      31A     -0.642592    32A     -0.641435    33A     -0.596007
      34A     -0.584352    35A     -0.577406    36A     -0.568190
      37A     -0.504846    38A     -0.504410    39A     -0.500819
      40A     -0.345772    41A     -0.343114

  @DF-RHF Final Energy:  -605.58344879329024

   => Energetics <=

    Nuclear Repulsion Energy =            616.7784456261574633
    One-Electron Energy =               -2057.9584757053626163
    Two-Electron Energy =                 835.5965812859149082
    Total Energy =                       -605.5834487932902448
  Basis Set: (AUG-CC-PVTZ AUX)
    Blend: AUG-CC-PVTZ-RI
    Molecular point group: c1

    Geometry (in Angstrom), charge = 0, multiplicity = 1:

       Center              X                  Y                   Z               Mass
    ------------   -----------------  -----------------  -----------------  -----------------
         F            1.620936545503    -1.088614384992    -0.848652847710    18.998403162730
         F            3.053317545503     0.001647615008     0.382992152290    18.998403162730
         F            1.620949545503     1.091987615008    -0.848585847710    18.998403162730
         C            0.797516545503     0.001633615008     1.085758152290    12.000000000000
         C           -0.630163454497     0.001649615008     0.607478152290    12.000000000000
         C            1.783588645503    -0.020546884992    -0.053263347710    12.000000000000
         C           -1.294096454497     1.209413615008     0.362809152290    12.000000000000
         C           -1.294121454497    -1.206098384992     0.362799152290    12.000000000000
         C           -2.608415454497     1.209710615008    -0.105540847710    12.000000000000
         C           -2.608440454497    -1.206364384992    -0.105550847710    12.000000000000
         C           -3.268087454497     0.001680615008    -0.341699847710    12.000000000000
         H            1.017302545503    -0.882401384992     1.692330152290     1.007825032230
         H            1.017301545503     0.885628615008     1.692388152290     1.007825032230
         H           -0.780691454497     2.151962615008     0.542880152290     1.007825032230
         H           -0.780734454497    -2.148659384992     0.542861152290     1.007825032230
         H           -3.116796454497     2.153354615008    -0.288038847710     1.007825032230
         H           -3.116840454497    -2.149997384992    -0.288056847710     1.007825032230
         H           -4.293054454497     0.001692615008    -0.704217847710     1.007825032230

  Basis Set: AUG-CC-PVTZ
    Blend: AUG-CC-PVTZ
  Basis Set: (AUG-CC-PVTZ AUX)
    Blend: AUG-CC-PVTZ-JKFIT
	 Reference Energy          =    -605.5834487932902448 [Eh]
	 Singles Energy            =      -0.0000000000000000 [Eh]
	 Same-Spin Energy          =      -0.5616326116763495 [Eh]
	 Opposite-Spin Energy      =      -1.6937458149539184 [Eh]
	 Correlation Energy        =      -2.2553784266302679 [Eh]
	 Total Energy              =    -607.8388272199205176 [Eh]

	 ================> DF-SCS-MP2 Energies <==================
	-----------------------------------------------------------
	 SCS Same-Spin Scale       =       0.3333333333333333 [-]
	 SCS Opposite-Spin Scale   =       1.2000000000000000 [-]
	 SCS Same-Spin Energy      =      -0.1872108705587832 [Eh]
	 SCS Opposite-Spin Energy  =      -2.0324949779447019 [Eh]
	 SCS Correlation Energy    =      -2.2197058485034851 [Eh]
	 SCS Total Energy          =    -607.8031546417937534 [Eh]
	-----------------------------------------------------------

  Dipole Moment: [D]
     X:    -1.7168      Y:    -0.1516      Z:     1.5229     Total:     2.2999

*** Psi4 exiting successfully. Buy a developer a beer!
