                               Psi4 1.3.2 release

  ==> Input File <==

--------------------------------------------------------------------------
#psi4
#
memory 32 gb

molecule  {
0 1
  F        1.7208570    -1.0902790    -0.8752740
  F        3.1532380    -0.0000170     0.3563710
  F        1.7208700     1.0903230    -0.8752070
  C        0.8974370    -0.0000310     1.0591370
  C       -0.5460650    -0.0000164     0.6309737
  C        1.8729300     0.0000000    -0.0891720
  C       -1.1941760     1.2077490     0.3361880
  C       -1.1942010    -1.2077630     0.3361780
  C       -2.5084950     1.2080460    -0.1321620
  C       -2.5085200    -1.2080290    -0.1321720
  C       -3.1681670     0.0000160    -0.3683210
  H        1.1172230    -0.8840660     1.6657090
  H        1.1172220     0.8839640     1.6657670
  H       -0.6807710     2.1502980     0.5162590
  H       -0.6808140    -2.1503240     0.5162400
  H       -3.0168760     2.1516900    -0.3146600
  H       -3.0169200    -2.1516620    -0.3146780
  H       -4.1931340     0.0000280    -0.7308390
units angstrom
no_reorient  #important for SAPT in psi4, default
symmetry c1  #important for SAPT in psi4, default
}

set PROPERTIES_ORIGIN ["COM"]
properties('MP2/aug-cc-pvtz', properties = ['dipole'])
--------------------------------------------------------------------------

    Molecular point group: c1
  Charge       = 0
  Multiplicity = 1
  Basis Set: AUG-CC-PVTZ
    Blend: AUG-CC-PVTZ
  Basis Set: (AUG-CC-PVTZ AUX)
    Blend: AUG-CC-PVTZ-JKFIT

    Orbital Energies [Eh]
    ---------------------

    Doubly Occupied:

       1A    -26.333848     2A    -26.332412     3A    -26.332390
       4A    -11.504300     5A    -11.267548     6A    -11.258838
       7A    -11.247708     8A    -11.247678     9A    -11.246566
      10A    -11.245636    11A    -11.244940    12A     -1.716769
      13A     -1.625230    14A     -1.625190    15A     -1.169468
      16A     -1.094005    17A     -1.024270    18A     -1.005513
      19A     -0.917304    20A     -0.839639    21A     -0.829547
      22A     -0.813889    23A     -0.810242    24A     -0.767875
      25A     -0.709898    26A     -0.705232    27A     -0.697713
      28A     -0.662294    29A     -0.658259    30A     -0.644309
      31A     -0.643623    32A     -0.642880    33A     -0.596166
      34A     -0.583280    35A     -0.578518    36A     -0.568467
      37A     -0.506496    38A     -0.502919    39A     -0.500641
      40A     -0.346036    41A     -0.343522

  @DF-RHF Final Energy:  -605.58299812172527

   => Energetics <=

    Nuclear Repulsion Energy =            616.4266523289491033
    One-Electron Energy =               -2057.2371828472255402
    Two-Electron Energy =                 835.2275323965511689
    Total Energy =                       -605.5829981217252680
  Basis Set: (AUG-CC-PVTZ AUX)
    Blend: AUG-CC-PVTZ-RI
    Molecular point group: c1

    Geometry (in Angstrom), charge = 0, multiplicity = 1:

       Center              X                  Y                   Z               Mass
    ------------   -----------------  -----------------  -----------------  -----------------
         F            1.622916009609    -1.090279622265    -0.851714081367    18.998403162730
         F            3.055297009609    -0.000017622265     0.379930918633    18.998403162730
         F            1.622929009609     1.090322377735    -0.851647081367    18.998403162730
         C            0.799496009609    -0.000031622265     1.082696918633    12.000000000000
         C           -0.644005990391    -0.000017022265     0.654533618633    12.000000000000
         C            1.774989009609    -0.000000622265    -0.065612081367    12.000000000000
         C           -1.292116990391     1.207748377735     0.359747918633    12.000000000000
         C           -1.292141990391    -1.207763622265     0.359737918633    12.000000000000
         C           -2.606435990391     1.208045377735    -0.108602081367    12.000000000000
         C           -2.606460990391    -1.208029622265    -0.108612081367    12.000000000000
         C           -3.266107990391     0.000015377735    -0.344761081367    12.000000000000
         H            1.019282009609    -0.884066622265     1.689268918633     1.007825032230
         H            1.019281009609     0.883963377735     1.689326918633     1.007825032230
         H           -0.778711990391     2.150297377735     0.539818918633     1.007825032230
         H           -0.778754990391    -2.150324622265     0.539799918633     1.007825032230
         H           -3.114816990391     2.151689377735    -0.291100081367     1.007825032230
         H           -3.114860990391    -2.151662622265    -0.291118081367     1.007825032230
         H           -4.291074990391     0.000027377735    -0.707279081367     1.007825032230

  Basis Set: AUG-CC-PVTZ
    Blend: AUG-CC-PVTZ
  Basis Set: (AUG-CC-PVTZ AUX)
    Blend: AUG-CC-PVTZ-JKFIT
	 Reference Energy          =    -605.5829981217252680 [Eh]
	 Singles Energy            =      -0.0000000000000000 [Eh]
	 Same-Spin Energy          =      -0.5616207358615664 [Eh]
	 Opposite-Spin Energy      =      -1.6937859809845985 [Eh]
	 Correlation Energy        =      -2.2554067168461649 [Eh]
	 Total Energy              =    -607.8384048385714777 [Eh]

	 ================> DF-SCS-MP2 Energies <==================
	-----------------------------------------------------------
	 SCS Same-Spin Scale       =       0.3333333333333333 [-]
	 SCS Opposite-Spin Scale   =       1.2000000000000000 [-]
	 SCS Same-Spin Energy      =      -0.1872069119538554 [Eh]
	 SCS Opposite-Spin Energy  =      -2.0325431771815183 [Eh]
	 SCS Correlation Energy    =      -2.2197500891353736 [Eh]
	 SCS Total Energy          =    -607.8027482108606137 [Eh]
	-----------------------------------------------------------

  Dipole Moment: [D]
     X:    -1.8134      Y:    -0.0000      Z:     1.4284     Total:     2.3084

*** Psi4 exiting successfully. Buy a developer a beer!
