                               Psi4 1.3.2 release

  ==> Input File <==

--------------------------------------------------------------------------
#psi4
#
memory 32 gb

molecule  {
0 1
  F        1.7559643    -1.0744551    -0.9025944
  F        3.1532380    -0.0000170     0.3563710
  F        1.7208700     1.0903230    -0.8752070
  C        0.8974370    -0.0000310     1.0591370
  C       -0.5302430    -0.0000150     0.5808570
  C        1.8729300     0.0000000    -0.0891720
  C       -1.1941760     1.2077490     0.3361880
  C       -1.1942010    -1.2077630     0.3361780
  C       -2.5084950     1.2080460    -0.1321620
  C       -2.5085200    -1.2080290    -0.1321720
  C       -3.1681670     0.0000160    -0.3683210
  H        1.1172230    -0.8840660     1.6657090
  H        1.1172220     0.8839640     1.6657670
  H       -0.6807710     2.1502980     0.5162590
  H       -0.6808140    -2.1503240     0.5162400
  H       -3.0168760     2.1516900    -0.3146600
  H       -3.0169200    -2.1516620    -0.3146780
  H       -4.1931340     0.0000280    -0.7308390
units angstrom
no_reorient  #important for SAPT in psi4, default
symmetry c1  #important for SAPT in psi4, default
}

set PROPERTIES_ORIGIN ["COM"]
properties('MP2/aug-cc-pvtz', properties = ['dipole'])
--------------------------------------------------------------------------

    Molecular point group: c1
  Charge       = 0
  Multiplicity = 1
  Basis Set: AUG-CC-PVTZ
    Blend: AUG-CC-PVTZ
  Basis Set: (AUG-CC-PVTZ AUX)
    Blend: AUG-CC-PVTZ-JKFIT

    Orbital Energies [Eh]
    ---------------------

    Doubly Occupied:

       1A    -26.331384     2A    -26.331027     3A    -26.330602
       4A    -11.503102     5A    -11.269481     6A    -11.259065
       7A    -11.247740     8A    -11.247658     9A    -11.246665
      10A    -11.245979    11A    -11.245113    12A     -1.716526
      13A     -1.623776    14A     -1.622518    15A     -1.170423
      16A     -1.095133    17A     -1.024754    18A     -1.005572
      19A     -0.917056    20A     -0.840327    21A     -0.829621
      22A     -0.812201    23A     -0.808684    24A     -0.767825
      25A     -0.710347    26A     -0.703515    27A     -0.697227
      28A     -0.660300    29A     -0.656390    30A     -0.644154
      31A     -0.643852    32A     -0.640804    33A     -0.596782
      34A     -0.585942    35A     -0.579246    36A     -0.569894
      37A     -0.505850    38A     -0.504803    39A     -0.501592
      40A     -0.346547    41A     -0.343940

  @DF-RHF Final Energy:  -605.58421769717484

   => Energetics <=

    Nuclear Repulsion Energy =            616.5009877592452767
    One-Electron Energy =               -2057.4035770856407908
    Two-Electron Energy =                 835.3183716292207919
    Total Energy =                       -605.5842176971748358
  Basis Set: (AUG-CC-PVTZ AUX)
    Blend: AUG-CC-PVTZ-RI
    Molecular point group: c1

    Geometry (in Angstrom), charge = 0, multiplicity = 1:

       Center              X                  Y                   Z               Mass
    ------------   -----------------  -----------------  -----------------  -----------------
         F            1.652669690608    -1.076334170628    -0.872033891047    18.998403162730
         F            3.049943390608    -0.001896070628     0.386931508953    18.998403162730
         F            1.617575390608     1.088443929372    -0.844646491047    18.998403162730
         C            0.794142390608    -0.001910070628     1.089697508953    12.000000000000
         C           -0.633537609392    -0.001894070628     0.611417508953    12.000000000000
         C            1.769635390608    -0.001879070628    -0.058611491047    12.000000000000
         C           -1.297470609392     1.205869929372     0.366748508953    12.000000000000
         C           -1.297495609392    -1.209642070628     0.366738508953    12.000000000000
         C           -2.611789609392     1.206166929372    -0.101601491047    12.000000000000
         C           -2.611814609392    -1.209908070628    -0.101611491047    12.000000000000
         C           -3.271461609392    -0.001863070628    -0.337760491047    12.000000000000
         H            1.013928390608    -0.885945070628     1.696269508953     1.007825032230
         H            1.013927390608     0.882084929372     1.696327508953     1.007825032230
         H           -0.784065609392     2.148418929372     0.546819508953     1.007825032230
         H           -0.784108609392    -2.152203070628     0.546800508953     1.007825032230
         H           -3.120170609392     2.149810929372    -0.284099491047     1.007825032230
         H           -3.120214609392    -2.153541070628    -0.284117491047     1.007825032230
         H           -4.296428609392    -0.001851070628    -0.700278491047     1.007825032230

  Basis Set: AUG-CC-PVTZ
    Blend: AUG-CC-PVTZ
  Basis Set: (AUG-CC-PVTZ AUX)
    Blend: AUG-CC-PVTZ-JKFIT
	 Reference Energy          =    -605.5842176971748358 [Eh]
	 Singles Energy            =      -0.0000000000000000 [Eh]
	 Same-Spin Energy          =      -0.5615291717697115 [Eh]
	 Opposite-Spin Energy      =      -1.6935073814226669 [Eh]
	 Correlation Energy        =      -2.2550365531923786 [Eh]
	 Total Energy              =    -607.8392542503671621 [Eh]

	 ================> DF-SCS-MP2 Energies <==================
	-----------------------------------------------------------
	 SCS Same-Spin Scale       =       0.3333333333333333 [-]
	 SCS Opposite-Spin Scale   =       1.2000000000000000 [-]
	 SCS Same-Spin Energy      =      -0.1871763905899038 [Eh]
	 SCS Opposite-Spin Energy  =      -2.0322088577072002 [Eh]
	 SCS Correlation Energy    =      -2.2193852482971042 [Eh]
	 SCS Total Energy          =    -607.8036029454719937 [Eh]
	-----------------------------------------------------------

  Dipole Moment: [D]
     X:    -1.8808      Y:    -0.0050      Z:     1.5133     Total:     2.4140

*** Psi4 exiting successfully. Buy a developer a beer!
