                               Psi4 1.4a3.dev225

  ==> Input File <==

--------------------------------------------------------------------------
#psi4
#
memory 32 gb

molecule  {
-1 1
  P        0.0000000     1.0872980     0.0000000
  O       -1.1564220     0.0305830    -0.5476420
  O        1.1564220     0.0305830     0.5476420
  O        0.4924450     1.8091740    -1.2276720
  O       -0.4924450     1.8091740     1.2276720
  C       -1.7766655    -0.7657483     0.4066843
  C        1.7989910    -0.7944120    -0.4410350
  C       -2.7063440    -1.7646140    -0.2844450
  C        2.7063440    -1.7646150     0.2844450
  H       -1.0386670    -1.3302830     1.0205350
  H       -2.3670280    -0.1617970     1.1311080
  H        1.0386660    -1.3302840    -1.0205350
  H        2.3670280    -0.1617970    -1.1311080
  H       -3.2237520    -2.4090830     0.4325060
  H       -3.4553630    -1.2226600    -0.8671100
  H       -2.1260300    -2.3948090    -0.9629160
  H        3.2237520    -2.4090830    -0.4325060
  H        3.4553630    -1.2226600     0.8671100
  H        2.1260300    -2.3948090     0.9629160
units angstrom
no_reorient  #important for SAPT in psi4, default
symmetry c1  #important for SAPT in psi4, default
}

set PROPERTIES_ORIGIN ["COM"]
properties('MP2/aug-cc-pvtz', properties = ['dipole'])
--------------------------------------------------------------------------

    Molecular point group: c1
  Charge       = -1
  Multiplicity = 1
  Basis Set: AUG-CC-PVTZ
    Blend: AUG-CC-PVTZ
  Basis Set: (AUG-CC-PVTZ AUX)
    Blend: AUG-CC-PVTZ-JKFIT

    Orbital Energies [Eh]
    ---------------------

    Doubly Occupied:

       1A    -79.881893     2A    -20.409543     3A    -20.406608
       4A    -20.305115     5A    -20.304943     6A    -11.146640
       7A    -11.145920     8A    -11.105833     9A    -11.103483
      10A     -7.397468    11A     -5.296367    12A     -5.295437
      13A     -5.294006    14A     -1.247304    15A     -1.198866
      16A     -1.101881    17A     -1.060478    18A     -0.894447
      19A     -0.886119    20A     -0.715657    21A     -0.711743
      22A     -0.606695    23A     -0.545934    24A     -0.530732
      25A     -0.506193    26A     -0.463607    27A     -0.450500
      28A     -0.446271    29A     -0.426680    30A     -0.424139
      31A     -0.403860    32A     -0.400526    33A     -0.365617
      34A     -0.356588    35A     -0.330507    36A     -0.308339
      37A     -0.301796    38A     -0.285763    39A     -0.268754
      40A     -0.252147    41A     -0.237647

  @DF-RHF Final Energy:  -797.83862053833377

   => Energetics <=

    Nuclear Repulsion Energy =            614.0781528260720279
    One-Electron Energy =               -2334.1894546704602362
    Two-Electron Energy =                 922.2726813060544373
    Total Energy =                       -797.8386205383337710
  Basis Set: (AUG-CC-PVTZ AUX)
    Blend: AUG-CC-PVTZ-RI
    Molecular point group: c1

    Geometry (in Angstrom), charge = -1, multiplicity = 1:

       Center              X                  Y                   Z               Mass
    ------------   -----------------  -----------------  -----------------  -----------------
         P           -0.001750650638     0.980760457957     0.002693614974    30.973761998420
         O           -1.158172650638    -0.075954542043    -0.544948385026    15.994914619570
         O            1.154671349362    -0.075954542043     0.550335614974    15.994914619570
         O            0.490694349362     1.702636457957    -1.224978385026    15.994914619570
         O           -0.494195650638     1.702636457957     1.230365614974    15.994914619570
         C           -1.778416150638    -0.872285842043     0.409377914974    12.000000000000
         C            1.797240349362    -0.900949542043    -0.438341385026    12.000000000000
         C           -2.708094650638    -1.871151542043    -0.281751385026    12.000000000000
         C            2.704593349362    -1.871152542043     0.287138614974    12.000000000000
         H           -1.040417650638    -1.436820542043     1.023228614974     1.007825032230
         H           -2.368778650638    -0.268334542043     1.133801614974     1.007825032230
         H            1.036915349362    -1.436821542043    -1.017841385026     1.007825032230
         H            2.365277349362    -0.268334542043    -1.128414385026     1.007825032230
         H           -3.225502650638    -2.515620542043     0.435199614974     1.007825032230
         H           -3.457113650638    -1.329197542043    -0.864416385026     1.007825032230
         H           -2.127780650638    -2.501346542043    -0.960222385026     1.007825032230
         H            3.222001349362    -2.515620542043    -0.429812385026     1.007825032230
         H            3.453612349362    -1.329197542043     0.869803614974     1.007825032230
         H            2.124279349362    -2.501346542043     0.965609614974     1.007825032230

  Basis Set: AUG-CC-PVTZ
    Blend: AUG-CC-PVTZ
  Basis Set: (AUG-CC-PVTZ AUX)
    Blend: AUG-CC-PVTZ-JKFIT
	 Reference Energy          =    -797.8386205383337710 [Eh]
	 Singles Energy            =      -0.0000000000000000 [Eh]
	 Same-Spin Energy          =      -0.4977835516156818 [Eh]
	 Opposite-Spin Energy      =      -1.5442811626537467 [Eh]
	 Correlation Energy        =      -2.0420647142694284 [Eh]
	 Total Energy              =    -799.8806852526031435 [Eh]

	 ================> DF-SCS-MP2 Energies <==================
	-----------------------------------------------------------
	 SCS Same-Spin Scale       =       0.3333333333333333 [-]
	 SCS Opposite-Spin Scale   =       1.2000000000000000 [-]
	 SCS Same-Spin Energy      =      -0.1659278505385606 [Eh]
	 SCS Opposite-Spin Energy  =      -1.8531373951844961 [Eh]
	 SCS Correlation Energy    =      -2.0190652457230565 [Eh]
	 SCS Total Energy          =    -799.8576857840567982 [Eh]
	-----------------------------------------------------------

  Dipole Moment: [D]
     X:     0.1604      Y:    -7.4194      Z:    -0.0912     Total:     7.4217

*** Psi4 exiting successfully. Buy a developer a beer!
