                               Psi4 1.3.2 release

  ==> Input File <==

--------------------------------------------------------------------------
#psi4
#
memory 32 gb

molecule  {
-1 1
  P       -0.0010900    -1.0890910     0.0004590
  O       -1.1524220    -0.0281740     0.5594010
  O        1.1861517     0.0114883    -0.6117705
  O        0.5034080    -1.8082920     1.2241620
  O       -0.5057790    -1.8082590    -1.2231120
  C       -1.8201030     0.7715450    -0.4363210
  C        1.8136140     0.7766970     0.4358730
  C       -2.6746040     1.7890640     0.2877210
  C        2.6613953     1.7465706    -0.3581424
  H       -1.0739810     1.2667980    -1.0678550
  H       -2.4287840     0.1238470    -1.0755890
  H        1.0642060     1.2858700     1.0522800
  H        2.4084330     0.1312990     1.0903160
  H       -3.2148500     2.4129370    -0.4309050
  H       -3.4044660     1.2870150     0.9274370
  H       -2.0509410     2.4359130     0.9094240
  H        3.2222650     2.4062160     0.4280610
  H        3.4201870     1.2611760    -0.9129680
  H        2.0763540     2.4215040    -0.9279010
units angstrom
no_reorient  #important for SAPT in psi4, default
symmetry c1  #important for SAPT in psi4, default
}

set PROPERTIES_ORIGIN ["COM"]
properties('MP2/aug-cc-pvtz', properties = ['dipole'])
--------------------------------------------------------------------------

    Molecular point group: c1
  Charge       = -1
  Multiplicity = 1
  Basis Set: AUG-CC-PVTZ
    Blend: AUG-CC-PVTZ
  Basis Set: (AUG-CC-PVTZ AUX)
    Blend: AUG-CC-PVTZ-JKFIT

    Orbital Energies [Eh]
    ---------------------

    Doubly Occupied:

       1A    -79.886009     2A    -20.409497     3A    -20.403075
       4A    -20.311211     5A    -20.307162     6A    -11.146748
       7A    -11.140683     8A    -11.106271     9A    -11.101466
      10A     -7.400859    11A     -5.299571    12A     -5.298768
      13A     -5.297426    14A     -1.230212    15A     -1.183308
      16A     -1.104181    17A     -1.063823    18A     -0.894711
      19A     -0.883995    20A     -0.715455    21A     -0.708372
      22A     -0.598472    23A     -0.535059    24A     -0.529686
      25A     -0.509981    26A     -0.457113    27A     -0.446165
      28A     -0.441893    29A     -0.426636    30A     -0.412777
      31A     -0.404320    32A     -0.388714    33A     -0.367325
      34A     -0.360591    35A     -0.336517    36A     -0.307044
      37A     -0.304401    38A     -0.286258    39A     -0.268228
      40A     -0.255360    41A     -0.241334

  @DF-RHF Final Energy:  -797.82430165659207

   => Energetics <=

    Nuclear Repulsion Energy =            611.3441724025857411
    One-Electron Energy =               -2328.7955951521639690
    Two-Electron Energy =                 919.6271210929862718
    Total Energy =                       -797.8243016565920698
  Basis Set: (AUG-CC-PVTZ AUX)
    Blend: AUG-CC-PVTZ-RI
    Molecular point group: c1

    Geometry (in Angstrom), charge = -1, multiplicity = 1:

       Center              X                  Y                   Z               Mass
    ------------   -----------------  -----------------  -----------------  -----------------
         P           -0.002723734297    -0.986564303585     0.011337971053    30.973761998420
         O           -1.154055734297     0.074352696415     0.570279971053    15.994914619570
         O            1.184517965703     0.114014996415    -0.600891528947    15.994914619570
         O            0.501774265703    -1.705765303585     1.235040971053    15.994914619570
         O           -0.507412734297    -1.705732303585    -1.212233028947    15.994914619570
         C           -1.821736734297     0.874071696415    -0.425442028947    12.000000000000
         C            1.811980265703     0.879223696415     0.446751971053    12.000000000000
         C           -2.676237734297     1.891590696415     0.298599971053    12.000000000000
         C            2.659761565703     1.849097296415    -0.347263428947    12.000000000000
         H           -1.075614734297     1.369324696415    -1.056976028947     1.007825032230
         H           -2.430417734297     0.226373696415    -1.064710028947     1.007825032230
         H            1.062572265703     1.388396696415     1.063158971053     1.007825032230
         H            2.406799265703     0.233825696415     1.101194971053     1.007825032230
         H           -3.216483734297     2.515463696415    -0.420026028947     1.007825032230
         H           -3.406099734297     1.389541696415     0.938315971053     1.007825032230
         H           -2.052574734297     2.538439696415     0.920302971053     1.007825032230
         H            3.220631265703     2.508742696415     0.438939971053     1.007825032230
         H            3.418553265703     1.363702696415    -0.902089028947     1.007825032230
         H            2.074720265703     2.524030696415    -0.917022028947     1.007825032230

  Basis Set: AUG-CC-PVTZ
    Blend: AUG-CC-PVTZ
  Basis Set: (AUG-CC-PVTZ AUX)
    Blend: AUG-CC-PVTZ-JKFIT
	 Reference Energy          =    -797.8243016565920698 [Eh]
	 Singles Energy            =      -0.0000000000000000 [Eh]
	 Same-Spin Energy          =      -0.4991765268103632 [Eh]
	 Opposite-Spin Energy      =      -1.5484543660312506 [Eh]
	 Correlation Energy        =      -2.0476308928416138 [Eh]
	 Total Energy              =    -799.8719325494337227 [Eh]

	 ================> DF-SCS-MP2 Energies <==================
	-----------------------------------------------------------
	 SCS Same-Spin Scale       =       0.3333333333333333 [-]
	 SCS Opposite-Spin Scale   =       1.2000000000000000 [-]
	 SCS Same-Spin Energy      =      -0.1663921756034544 [Eh]
	 SCS Opposite-Spin Energy  =      -1.8581452392375006 [Eh]
	 SCS Correlation Energy    =      -2.0245374148409550 [Eh]
	 SCS Total Energy          =    -799.8488390714330762 [Eh]
	-----------------------------------------------------------

  Dipole Moment: [D]
     X:    -0.3547      Y:     7.1697      Z:     0.0418     Total:     7.1786

*** Psi4 exiting successfully. Buy a developer a beer!
