                               Psi4 1.3.2 release

  ==> Input File <==

--------------------------------------------------------------------------
#psi4
#
memory 32 gb

molecule  {
-1 1
  P       -0.0010900    -1.0890910     0.0004590
  O       -1.1008925     0.0373535     0.5343913
  O        1.0991509     0.0370146    -0.5335562
  O        0.5034080    -1.8082920     1.2241620
  O       -0.5057790    -1.8082590    -1.2231120
  C       -1.8201030     0.7715450    -0.4363210
  C        1.8136140     0.7766970     0.4358730
  C       -2.6746040     1.7890640     0.2877210
  C        2.6862580     1.7776730    -0.2896530
  H       -1.0739810     1.2667980    -1.0678550
  H       -2.4287840     0.1238470    -1.0755890
  H        1.0642060     1.2858700     1.0522800
  H        2.4084330     0.1312990     1.0903160
  H       -3.2148500     2.4129370    -0.4309050
  H       -3.4044660     1.2870150     0.9274370
  H       -2.0509410     2.4359130     0.9094240
  H        3.2222650     2.4062160     0.4280610
  H        3.4201870     1.2611760    -0.9129680
  H        2.0763540     2.4215040    -0.9279010
units angstrom
no_reorient  #important for SAPT in psi4, default
symmetry c1  #important for SAPT in psi4, default
}

set PROPERTIES_ORIGIN ["COM"]
properties('MP2/aug-cc-pvtz', properties = ['dipole'])
--------------------------------------------------------------------------

    Molecular point group: c1
  Charge       = -1
  Multiplicity = 1
  Basis Set: AUG-CC-PVTZ
    Blend: AUG-CC-PVTZ
  Basis Set: (AUG-CC-PVTZ AUX)
    Blend: AUG-CC-PVTZ-JKFIT

    Orbital Energies [Eh]
    ---------------------

    Doubly Occupied:

       1A    -79.882565     2A    -20.399429     3A    -20.399388
       4A    -20.309734     5A    -20.309690     6A    -11.140367
       7A    -11.140264     8A    -11.102174     9A    -11.102147
      10A     -7.397975    11A     -5.297004    12A     -5.295769
      13A     -5.294648    14A     -1.242725    15A     -1.191435
      16A     -1.105721    17A     -1.064223    18A     -0.892348
      19A     -0.886627    20A     -0.714008    21A     -0.711104
      22A     -0.603076    23A     -0.541343    24A     -0.532236
      25A     -0.503564    26A     -0.462180    27A     -0.448790
      28A     -0.443979    29A     -0.422843    30A     -0.422431
      31A     -0.404564    32A     -0.396717    33A     -0.366371
      34A     -0.355724    35A     -0.333460    36A     -0.303782
      37A     -0.294907    38A     -0.289208    39A     -0.270790
      40A     -0.255813    41A     -0.241868

  @DF-RHF Final Energy:  -797.83839006663334

   => Energetics <=

    Nuclear Repulsion Energy =            615.1354482215280086
    One-Electron Energy =               -2336.4016988414041407
    Two-Electron Energy =                 923.4278605532429083
    Total Energy =                       -797.8383900666333375
  Basis Set: (AUG-CC-PVTZ AUX)
    Blend: AUG-CC-PVTZ-RI
    Molecular point group: c1

    Geometry (in Angstrom), charge = -1, multiplicity = 1:

       Center              X                  Y                   Z               Mass
    ------------   -----------------  -----------------  -----------------  -----------------
         P           -0.000965875851    -0.998520172244     0.000406404890    30.973761998420
         O           -1.100768375851     0.127924327756     0.534338704890    15.994914619570
         O            1.099275024149     0.127585427756    -0.533608795110    15.994914619570
         O            0.503532124149    -1.717721172244     1.224109404890    15.994914619570
         O           -0.505654875851    -1.717688172244    -1.223164595110    15.994914619570
         C           -1.819978875851     0.862115827756    -0.436373595110    12.000000000000
         C            1.813738124149     0.867267827756     0.435820404890    12.000000000000
         C           -2.674479875851     1.879634827756     0.287668404890    12.000000000000
         C            2.686382124149     1.868243827756    -0.289705595110    12.000000000000
         H           -1.073856875851     1.357368827756    -1.067907595110     1.007825032230
         H           -2.428659875851     0.214417827756    -1.075641595110     1.007825032230
         H            1.064330124149     1.376440827756     1.052227404890     1.007825032230
         H            2.408557124149     0.221869827756     1.090263404890     1.007825032230
         H           -3.214725875851     2.503507827756    -0.430957595110     1.007825032230
         H           -3.404341875851     1.377585827756     0.927384404890     1.007825032230
         H           -2.050816875851     2.526483827756     0.909371404890     1.007825032230
         H            3.222389124149     2.496786827756     0.428008404890     1.007825032230
         H            3.420311124149     1.351746827756    -0.913020595110     1.007825032230
         H            2.076478124149     2.512074827756    -0.927953595110     1.007825032230

  Basis Set: AUG-CC-PVTZ
    Blend: AUG-CC-PVTZ
  Basis Set: (AUG-CC-PVTZ AUX)
    Blend: AUG-CC-PVTZ-JKFIT
	 Reference Energy          =    -797.8383900666333375 [Eh]
	 Singles Energy            =      -0.0000000000000000 [Eh]
	 Same-Spin Energy          =      -0.4979337935024405 [Eh]
	 Opposite-Spin Energy      =      -1.5441027864082593 [Eh]
	 Correlation Energy        =      -2.0420365799106999 [Eh]
	 Total Energy              =    -799.8804266465440378 [Eh]

	 ================> DF-SCS-MP2 Energies <==================
	-----------------------------------------------------------
	 SCS Same-Spin Scale       =       0.3333333333333333 [-]
	 SCS Opposite-Spin Scale   =       1.2000000000000000 [-]
	 SCS Same-Spin Energy      =      -0.1659779311674802 [Eh]
	 SCS Opposite-Spin Energy  =      -1.8529233436899111 [Eh]
	 SCS Correlation Energy    =      -2.0189012748573911 [Eh]
	 SCS Total Energy          =    -799.8572913414907362 [Eh]
	-----------------------------------------------------------

  Dipole Moment: [D]
     X:    -0.0012      Y:     7.0891      Z:    -0.0036     Total:     7.0891

*** Psi4 exiting successfully. Buy a developer a beer!
