                               Psi4 1.3.2 release

  ==> Input File <==

--------------------------------------------------------------------------
#psi4
#
memory 32 gb

molecule  {
-1 1
  P       -0.0010900    -1.0890910     0.0004590
  O       -1.0831642    -0.0919929     0.5257781
  O        1.1506610    -0.0285350    -0.5585640
  O        0.5034080    -1.8082920     1.2241620
  O       -0.5057790    -1.8082590    -1.2231120
  C       -1.8201030     0.7715450    -0.4363210
  C        1.8136140     0.7766970     0.4358730
  C       -2.6746040     1.7890640     0.2877210
  C        2.6862580     1.7776730    -0.2896530
  H       -1.0739810     1.2667980    -1.0678550
  H       -2.4287840     0.1238470    -1.0755890
  H        1.0642060     1.2858700     1.0522800
  H        2.4084330     0.1312990     1.0903160
  H       -3.2148500     2.4129370    -0.4309050
  H       -3.4044660     1.2870150     0.9274370
  H       -2.0509410     2.4359130     0.9094240
  H        3.2222650     2.4062160     0.4280610
  H        3.4201870     1.2611760    -0.9129680
  H        2.0763540     2.4215040    -0.9279010
units angstrom
no_reorient  #important for SAPT in psi4, default
symmetry c1  #important for SAPT in psi4, default
}

set PROPERTIES_ORIGIN ["COM"]
properties('MP2/aug-cc-pvtz', properties = ['dipole'])
--------------------------------------------------------------------------

    Molecular point group: c1
  Charge       = -1
  Multiplicity = 1
  Basis Set: AUG-CC-PVTZ
    Blend: AUG-CC-PVTZ
  Basis Set: (AUG-CC-PVTZ AUX)
    Blend: AUG-CC-PVTZ-JKFIT

    Orbital Energies [Eh]
    ---------------------

    Doubly Occupied:

       1A    -79.864742     2A    -20.405537     3A    -20.396474
       4A    -20.293682     5A    -20.293396     6A    -11.158126
       7A    -11.141549     8A    -11.114605     9A    -11.102758
      10A     -7.382259    11A     -5.281396    12A     -5.280236
      13A     -5.278739    14A     -1.244425    15A     -1.185464
      16A     -1.089055    17A     -1.051275    18A     -0.906347
      19A     -0.889414    20A     -0.725754    21A     -0.710155
      22A     -0.598933    23A     -0.541376    24A     -0.529429
      25A     -0.507501    26A     -0.463360    27A     -0.449932
      28A     -0.443955    29A     -0.427186    30A     -0.425673
      31A     -0.399617    32A     -0.396911    33A     -0.372841
      34A     -0.362350    35A     -0.323088    36A     -0.314696
      37A     -0.304087    38A     -0.278033    39A     -0.259511
      40A     -0.241858    41A     -0.227082

  @DF-RHF Final Energy:  -797.83438460531488

   => Energetics <=

    Nuclear Repulsion Energy =            615.9532002386865770
    One-Electron Energy =               -2338.2495522528879519
    Two-Electron Energy =                 924.4619674088864940
    Total Energy =                       -797.8343846053148809
  Basis Set: (AUG-CC-PVTZ AUX)
    Blend: AUG-CC-PVTZ-RI
    Molecular point group: c1

    Geometry (in Angstrom), charge = -1, multiplicity = 1:

       Center              X                  Y                   Z               Mass
    ------------   -----------------  -----------------  -----------------  -----------------
         P           -0.008202693502    -0.978149585793     0.003920481562    30.973761998420
         O           -1.090276893502     0.018948514207     0.529239581562    15.994914619570
         O            1.143548306498     0.082406414207    -0.555102518438    15.994914619570
         O            0.496295306498    -1.697350585793     1.227623481562    15.994914619570
         O           -0.512891693502    -1.697317585793    -1.219650518438    15.994914619570
         C           -1.827215693502     0.882486414207    -0.432859518438    12.000000000000
         C            1.806501306498     0.887638414207     0.439334481562    12.000000000000
         C           -2.681716693502     1.900005414207     0.291182481562    12.000000000000
         C            2.679145306498     1.888614414207    -0.286191518438    12.000000000000
         H           -1.081093693502     1.377739414207    -1.064393518438     1.007825032230
         H           -2.435896693502     0.234788414207    -1.072127518438     1.007825032230
         H            1.057093306498     1.396811414207     1.055741481562     1.007825032230
         H            2.401320306498     0.242240414207     1.093777481562     1.007825032230
         H           -3.221962693502     2.523878414207    -0.427443518438     1.007825032230
         H           -3.411578693502     1.397956414207     0.930898481562     1.007825032230
         H           -2.058053693502     2.546854414207     0.912885481562     1.007825032230
         H            3.215152306498     2.517157414207     0.431522481562     1.007825032230
         H            3.413074306498     1.372117414207    -0.909506518438     1.007825032230
         H            2.069241306498     2.532445414207    -0.924439518438     1.007825032230

  Basis Set: AUG-CC-PVTZ
    Blend: AUG-CC-PVTZ
  Basis Set: (AUG-CC-PVTZ AUX)
    Blend: AUG-CC-PVTZ-JKFIT
	 Reference Energy          =    -797.8343846053148809 [Eh]
	 Singles Energy            =      -0.0000000000000000 [Eh]
	 Same-Spin Energy          =      -0.4968680908566403 [Eh]
	 Opposite-Spin Energy      =      -1.5425782661529848 [Eh]
	 Correlation Energy        =      -2.0394463570096253 [Eh]
	 Total Energy              =    -799.8738309623245186 [Eh]

	 ================> DF-SCS-MP2 Energies <==================
	-----------------------------------------------------------
	 SCS Same-Spin Scale       =       0.3333333333333333 [-]
	 SCS Opposite-Spin Scale   =       1.2000000000000000 [-]
	 SCS Same-Spin Energy      =      -0.1656226969522134 [Eh]
	 SCS Opposite-Spin Energy  =      -1.8510939193835816 [Eh]
	 SCS Correlation Energy    =      -2.0167166163357950 [Eh]
	 SCS Total Energy          =    -799.8511012216506515 [Eh]
	-----------------------------------------------------------

  Dipole Moment: [D]
     X:    -0.6096      Y:     8.0125      Z:     0.0594     Total:     8.0359

*** Psi4 exiting successfully. Buy a developer a beer!
