                               Psi4 1.3.2 release

  ==> Input File <==

--------------------------------------------------------------------------
#psi4
#
memory 32 gb

molecule  {
-1 1
  P       -0.0010900    -1.0890910     0.0004590
  O       -1.1973975    -0.0419235     0.5772457
  O        1.1506610    -0.0285350    -0.5585640
  O        0.5034080    -1.8082920     1.2241620
  O       -0.5057790    -1.8082590    -1.2231120
  C       -1.8201030     0.7715450    -0.4363210
  C        1.8136140     0.7766970     0.4358730
  C       -2.6746040     1.7890640     0.2877210
  C        2.6862580     1.7776730    -0.2896530
  H       -1.1024430     1.2828927    -1.0877013
  H       -2.4287840     0.1238470    -1.0755890
  H        1.0642060     1.2858700     1.0522800
  H        2.4084330     0.1312990     1.0903160
  H       -3.2148500     2.4129370    -0.4309050
  H       -3.4044660     1.2870150     0.9274370
  H       -2.0509410     2.4359130     0.9094240
  H        3.2222650     2.4062160     0.4280610
  H        3.4201870     1.2611760    -0.9129680
  H        2.0763540     2.4215040    -0.9279010
units angstrom
no_reorient  #important for SAPT in psi4, default
symmetry c1  #important for SAPT in psi4, default
}

set PROPERTIES_ORIGIN ["COM"]
properties('MP2/aug-cc-pvtz', properties = ['dipole'])
--------------------------------------------------------------------------

    Molecular point group: c1
  Charge       = -1
  Multiplicity = 1
  Basis Set: AUG-CC-PVTZ
    Blend: AUG-CC-PVTZ
  Basis Set: (AUG-CC-PVTZ AUX)
    Blend: AUG-CC-PVTZ-JKFIT

    Orbital Energies [Eh]
    ---------------------

    Doubly Occupied:

       1A    -79.882430     2A    -20.408376     3A    -20.405548
       4A    -20.305238     5A    -20.305164     6A    -11.146727
       7A    -11.142826     8A    -11.106131     9A    -11.102621
      10A     -7.397593    11A     -5.296358    12A     -5.295583
      13A     -5.294159    14A     -1.232593    15A     -1.187192
      16A     -1.100576    17A     -1.060701    18A     -0.894768
      19A     -0.889197    20A     -0.715192    21A     -0.710165
      22A     -0.599907    23A     -0.538903    24A     -0.527466
      25A     -0.507234    26A     -0.457303    27A     -0.449764
      28A     -0.441604    29A     -0.422763    30A     -0.421958
      31A     -0.401136    32A     -0.398082    33A     -0.367280
      34A     -0.360952    35A     -0.332712    36A     -0.308520
      37A     -0.305633    38A     -0.284564    39A     -0.267255
      40A     -0.252178    41A     -0.237838

  @DF-RHF Final Energy:  -797.83568687588922

   => Energetics <=

    Nuclear Repulsion Energy =            611.7680788834777559
    One-Electron Energy =               -2329.6831589618818725
    Two-Electron Energy =                 920.0793932025148933
    Total Energy =                       -797.8356868758892233
  Basis Set: (AUG-CC-PVTZ AUX)
    Blend: AUG-CC-PVTZ-RI
    Molecular point group: c1

    Geometry (in Angstrom), charge = -1, multiplicity = 1:

       Center              X                  Y                   Z               Mass
    ------------   -----------------  -----------------  -----------------  -----------------
         P            0.003924447152    -0.983488849328    -0.001328224575    30.973761998420
         O           -1.192383052848     0.063678650672     0.575458475425    15.994914619570
         O            1.155675447152     0.077067150672    -0.560351224575    15.994914619570
         O            0.508422447152    -1.702689849328     1.222374775425    15.994914619570
         O           -0.500764552848    -1.702656849328    -1.224899224575    15.994914619570
         C           -1.815088552848     0.877147150672    -0.438108224575    12.000000000000
         C            1.818628447152     0.882299150672     0.434085775425    12.000000000000
         C           -2.669589552848     1.894666150672     0.285933775425    12.000000000000
         C            2.691272447152     1.883275150672    -0.291440224575    12.000000000000
         H           -1.097428552848     1.388494850672    -1.089488524575     1.007825032230
         H           -2.423769552848     0.229449150672    -1.077376224575     1.007825032230
         H            1.069220447152     1.391472150672     1.050492775425     1.007825032230
         H            2.413447447152     0.236901150672     1.088528775425     1.007825032230
         H           -3.209835552848     2.518539150672    -0.432692224575     1.007825032230
         H           -3.399451552848     1.392617150672     0.925649775425     1.007825032230
         H           -2.045926552848     2.541515150672     0.907636775425     1.007825032230
         H            3.227279447152     2.511818150672     0.426273775425     1.007825032230
         H            3.425201447152     1.366778150672    -0.914755224575     1.007825032230
         H            2.081368447152     2.527106150672    -0.929688224575     1.007825032230

  Basis Set: AUG-CC-PVTZ
    Blend: AUG-CC-PVTZ
  Basis Set: (AUG-CC-PVTZ AUX)
    Blend: AUG-CC-PVTZ-JKFIT
	 Reference Energy          =    -797.8356868758892233 [Eh]
	 Singles Energy            =      -0.0000000000000000 [Eh]
	 Same-Spin Energy          =      -0.4983005181097323 [Eh]
	 Opposite-Spin Energy      =      -1.5462558542476819 [Eh]
	 Correlation Energy        =      -2.0445563723574143 [Eh]
	 Total Energy              =    -799.8802432482466429 [Eh]

	 ================> DF-SCS-MP2 Energies <==================
	-----------------------------------------------------------
	 SCS Same-Spin Scale       =       0.3333333333333333 [-]
	 SCS Opposite-Spin Scale   =       1.2000000000000000 [-]
	 SCS Same-Spin Energy      =      -0.1661001727032441 [Eh]
	 SCS Opposite-Spin Energy  =      -1.8555070250972181 [Eh]
	 SCS Correlation Energy    =      -2.0216071978004622 [Eh]
	 SCS Total Energy          =    -799.8572940736896726 [Eh]
	-----------------------------------------------------------

  Dipole Moment: [D]
     X:     0.2010      Y:     7.4455      Z:    -0.0452     Total:     7.4484

*** Psi4 exiting successfully. Buy a developer a beer!
