                               Psi4 1.3.2 release

  ==> Input File <==

--------------------------------------------------------------------------
#psi4
#
memory 32 gb

molecule  {
-1 1
  P       -0.0010900    -1.0890910     0.0004590
  O       -1.1700103    -0.0362748     0.5377949
  O        1.1506610    -0.0285350    -0.5585640
  O        0.5034080    -1.8082920     1.2241620
  O       -0.5283518    -1.7948942    -1.2213742
  C       -1.8201030     0.7715450    -0.4363210
  C        1.8136140     0.7766970     0.4358730
  C       -2.6746040     1.7890640     0.2877210
  C        2.6862580     1.7776730    -0.2896530
  H       -1.0739810     1.2667980    -1.0678550
  H       -2.4287840     0.1238470    -1.0755890
  H        1.0642060     1.2858700     1.0522800
  H        2.4084330     0.1312990     1.0903160
  H       -3.2148500     2.4129370    -0.4309050
  H       -3.4044660     1.2870150     0.9274370
  H       -2.0509410     2.4359130     0.9094240
  H        3.2222650     2.4062160     0.4280610
  H        3.4201870     1.2611760    -0.9129680
  H        2.0763540     2.4215040    -0.9279010
units angstrom
no_reorient  #important for SAPT in psi4, default
symmetry c1  #important for SAPT in psi4, default
}

set PROPERTIES_ORIGIN ["COM"]
properties('MP2/aug-cc-pvtz', properties = ['dipole'])
--------------------------------------------------------------------------

    Molecular point group: c1
  Charge       = -1
  Multiplicity = 1
  Basis Set: AUG-CC-PVTZ
    Blend: AUG-CC-PVTZ
  Basis Set: (AUG-CC-PVTZ AUX)
    Blend: AUG-CC-PVTZ-JKFIT

    Orbital Energies [Eh]
    ---------------------

    Doubly Occupied:

       1A    -79.880241     2A    -20.406094     3A    -20.402043
       4A    -20.306319     5A    -20.302644     6A    -11.146005
       7A    -11.141957     8A    -11.105567     9A    -11.103470
      10A     -7.395688    11A     -5.294561    12A     -5.293693
      13A     -5.292258    14A     -1.237222    15A     -1.190770
      16A     -1.100102    17A     -1.060422    18A     -0.894502
      19A     -0.889659    20A     -0.714785    21A     -0.712488
      22A     -0.601061    23A     -0.540647    24A     -0.529752
      25A     -0.507629    26A     -0.459493    27A     -0.448973
      28A     -0.443641    29A     -0.423945    30A     -0.423364
      31A     -0.401415    32A     -0.399651    33A     -0.367499
      34A     -0.359870    35A     -0.329977    36A     -0.307785
      37A     -0.303696    38A     -0.284728    39A     -0.267224
      40A     -0.251367    41A     -0.237473

  @DF-RHF Final Energy:  -797.83953783086577

   => Energetics <=

    Nuclear Repulsion Energy =            613.4151471978861991
    One-Electron Energy =               -2332.9900122787948931
    Two-Electron Energy =                 921.7353272500429284
    Total Energy =                       -797.8395378308657655
  Basis Set: (AUG-CC-PVTZ AUX)
    Blend: AUG-CC-PVTZ-RI
    Molecular point group: c1

    Geometry (in Angstrom), charge = -1, multiplicity = 1:

       Center              X                  Y                   Z               Mass
    ------------   -----------------  -----------------  -----------------  -----------------
         P            0.003233801663    -0.985370150539     0.002482846780    30.973761998420
         O           -1.165686498337     0.067446049461     0.539818746780    15.994914619570
         O            1.154984801663     0.075185849461    -0.556540153220    15.994914619570
         O            0.507731801663    -1.704571150539     1.226185846780    15.994914619570
         O           -0.524027998337    -1.691173350539    -1.219350353220    15.994914619570
         C           -1.815779198337     0.875265849461    -0.434297153220    12.000000000000
         C            1.817937801663     0.880417849461     0.437896846780    12.000000000000
         C           -2.670280198337     1.892784849461     0.289744846780    12.000000000000
         C            2.690581801663     1.881393849461    -0.287629153220    12.000000000000
         H           -1.069657198337     1.370518849461    -1.065831153220     1.007825032230
         H           -2.424460198337     0.227567849461    -1.073565153220     1.007825032230
         H            1.068529801663     1.389590849461     1.054303846780     1.007825032230
         H            2.412756801663     0.235019849461     1.092339846780     1.007825032230
         H           -3.210526198337     2.516657849461    -0.428881153220     1.007825032230
         H           -3.400142198337     1.390735849461     0.929460846780     1.007825032230
         H           -2.046617198337     2.539633849461     0.911447846780     1.007825032230
         H            3.226588801663     2.509936849461     0.430084846780     1.007825032230
         H            3.424510801663     1.364896849461    -0.910944153220     1.007825032230
         H            2.080677801663     2.525224849461    -0.925877153220     1.007825032230

  Basis Set: AUG-CC-PVTZ
    Blend: AUG-CC-PVTZ
  Basis Set: (AUG-CC-PVTZ AUX)
    Blend: AUG-CC-PVTZ-JKFIT
	 Reference Energy          =    -797.8395378308657655 [Eh]
	 Singles Energy            =      -0.0000000000000000 [Eh]
	 Same-Spin Energy          =      -0.4978004690232991 [Eh]
	 Opposite-Spin Energy      =      -1.5446075584303385 [Eh]
	 Correlation Energy        =      -2.0424080274536376 [Eh]
	 Total Energy              =    -799.8819458583194546 [Eh]

	 ================> DF-SCS-MP2 Energies <==================
	-----------------------------------------------------------
	 SCS Same-Spin Scale       =       0.3333333333333333 [-]
	 SCS Opposite-Spin Scale   =       1.2000000000000000 [-]
	 SCS Same-Spin Energy      =      -0.1659334896744330 [Eh]
	 SCS Opposite-Spin Energy  =      -1.8535290701164060 [Eh]
	 SCS Correlation Energy    =      -2.0194625597908389 [Eh]
	 SCS Total Energy          =    -799.8590003906566608 [Eh]
	-----------------------------------------------------------

  Dipole Moment: [D]
     X:     0.1539      Y:     7.4378      Z:     0.0589     Total:     7.4397

*** Psi4 exiting successfully. Buy a developer a beer!
