                               Psi4 1.3.2 release

  ==> Input File <==

--------------------------------------------------------------------------
#psi4
#
memory 32 gb

molecule  {
-1 1
  P       -0.0010900    -1.0890910     0.0004590
  O       -1.1524220    -0.0281740     0.5594010
  O        1.1529100    -0.0239237    -0.5449937
  O        0.5034080    -1.8082920     1.2241620
  O       -0.5139971    -1.8152101    -1.2155661
  C       -1.8201030     0.7715450    -0.4363210
  C        1.8136140     0.7766970     0.4358730
  C       -2.6746040     1.7890640     0.2877210
  C        2.6862580     1.7776730    -0.2896530
  H       -1.0739810     1.2667980    -1.0678550
  H       -2.4287840     0.1238470    -1.0755890
  H        1.0642060     1.2858700     1.0522800
  H        2.4084330     0.1312990     1.0903160
  H       -3.2148500     2.4129370    -0.4309050
  H       -3.4044660     1.2870150     0.9274370
  H       -2.0509410     2.4359130     0.9094240
  H        3.2222650     2.4062160     0.4280610
  H        3.4201870     1.2611760    -0.9129680
  H        2.0763540     2.4215040    -0.9279010
units angstrom
no_reorient  #important for SAPT in psi4, default
symmetry c1  #important for SAPT in psi4, default
}

set PROPERTIES_ORIGIN ["COM"]
properties('MP2/aug-cc-pvtz', properties = ['dipole'])
--------------------------------------------------------------------------

    Molecular point group: c1
  Charge       = -1
  Multiplicity = 1
  Basis Set: AUG-CC-PVTZ
    Blend: AUG-CC-PVTZ
  Basis Set: (AUG-CC-PVTZ AUX)
    Blend: AUG-CC-PVTZ-JKFIT

    Orbital Energies [Eh]
    ---------------------

    Doubly Occupied:

       1A    -79.879834     2A    -20.404615     3A    -20.404401
       4A    -20.304930     5A    -20.303003     6A    -11.145026
       7A    -11.143970     8A    -11.104960     9A    -11.104600
      10A     -7.395319    11A     -5.294194    12A     -5.293270
      13A     -5.291921    14A     -1.236964    15A     -1.189889
      16A     -1.099986    17A     -1.059481    18A     -0.894495
      19A     -0.890354    20A     -0.714567    21A     -0.713077
      22A     -0.601072    23A     -0.540230    24A     -0.530040
      25A     -0.507434    26A     -0.459460    27A     -0.449110
      28A     -0.443273    29A     -0.423843    30A     -0.423375
      31A     -0.401579    32A     -0.399456    33A     -0.367043
      34A     -0.360327    35A     -0.330356    36A     -0.307391
      37A     -0.304953    38A     -0.284698    39A     -0.267206
      40A     -0.250936    41A     -0.236575

  @DF-RHF Final Energy:  -797.83936746162851

   => Energetics <=

    Nuclear Repulsion Energy =            613.2786392890632214
    One-Electron Energy =               -2332.7215796629284341
    Two-Electron Energy =                 921.6035729122367002
    Total Energy =                       -797.8393674616285125
  Basis Set: (AUG-CC-PVTZ AUX)
    Blend: AUG-CC-PVTZ-RI
    Molecular point group: c1

    Geometry (in Angstrom), charge = -1, multiplicity = 1:

       Center              X                  Y                   Z               Mass
    ------------   -----------------  -----------------  -----------------  -----------------
         P           -0.000339956094    -0.984575399158    -0.001800865047    30.973761998420
         O           -1.151671956094     0.076341600842     0.557141134953    15.994914619570
         O            1.153660043906     0.080591900842    -0.547253565047    15.994914619570
         O            0.504158043906    -1.703776399158     1.221902134953    15.994914619570
         O           -0.513247056094    -1.710694499158    -1.217825965047    15.994914619570
         C           -1.819352956094     0.876060600842    -0.438580865047    12.000000000000
         C            1.814364043906     0.881212600842     0.433613134953    12.000000000000
         C           -2.673853956094     1.893579600842     0.285461134953    12.000000000000
         C            2.687008043906     1.882188600842    -0.291912865047    12.000000000000
         H           -1.073230956094     1.371313600842    -1.070114865047     1.007825032230
         H           -2.428033956094     0.228362600842    -1.077848865047     1.007825032230
         H            1.064956043906     1.390385600842     1.050020134953     1.007825032230
         H            2.409183043906     0.235814600842     1.088056134953     1.007825032230
         H           -3.214099956094     2.517452600842    -0.433164865047     1.007825032230
         H           -3.403715956094     1.391530600842     0.925177134953     1.007825032230
         H           -2.050190956094     2.540428600842     0.907164134953     1.007825032230
         H            3.223015043906     2.510731600842     0.425801134953     1.007825032230
         H            3.420937043906     1.365691600842    -0.915227865047     1.007825032230
         H            2.077104043906     2.526019600842    -0.930160865047     1.007825032230

  Basis Set: AUG-CC-PVTZ
    Blend: AUG-CC-PVTZ
  Basis Set: (AUG-CC-PVTZ AUX)
    Blend: AUG-CC-PVTZ-JKFIT
	 Reference Energy          =    -797.8393674616285125 [Eh]
	 Singles Energy            =      -0.0000000000000000 [Eh]
	 Same-Spin Energy          =      -0.4978121467865818 [Eh]
	 Opposite-Spin Energy      =      -1.5447205284539240 [Eh]
	 Correlation Energy        =      -2.0425326752405057 [Eh]
	 Total Energy              =    -799.8819001368690351 [Eh]

	 ================> DF-SCS-MP2 Energies <==================
	-----------------------------------------------------------
	 SCS Same-Spin Scale       =       0.3333333333333333 [-]
	 SCS Opposite-Spin Scale   =       1.2000000000000000 [-]
	 SCS Same-Spin Energy      =      -0.1659373822621939 [Eh]
	 SCS Opposite-Spin Energy  =      -1.8536646341447087 [Eh]
	 SCS Correlation Energy    =      -2.0196020164069028 [Eh]
	 SCS Total Energy          =    -799.8589694780354193 [Eh]
	-----------------------------------------------------------

  Dipole Moment: [D]
     X:    -0.0061      Y:     7.4887      Z:    -0.0603     Total:     7.4890

*** Psi4 exiting successfully. Buy a developer a beer!
