                               Psi4 1.3.2 release

  ==> Input File <==

--------------------------------------------------------------------------
#psi4
#
memory 32 gb

molecule  {
-1 1
  P       -0.0010900    -1.0890910     0.0004590
  O       -1.1344830    -0.0203964     0.5808369
  O        1.1506610    -0.0285350    -0.5585640
  O        0.5034080    -1.8082920     1.2241620
  O       -0.4830524    -1.8214048    -1.2244771
  C       -1.8201030     0.7715450    -0.4363210
  C        1.8136140     0.7766970     0.4358730
  C       -2.6746040     1.7890640     0.2877210
  C        2.6862580     1.7776730    -0.2896530
  H       -1.0739810     1.2667980    -1.0678550
  H       -2.4287840     0.1238470    -1.0755890
  H        1.0642060     1.2858700     1.0522800
  H        2.4084330     0.1312990     1.0903160
  H       -3.2148500     2.4129370    -0.4309050
  H       -3.4044660     1.2870150     0.9274370
  H       -2.0509410     2.4359130     0.9094240
  H        3.2222650     2.4062160     0.4280610
  H        3.4201870     1.2611760    -0.9129680
  H        2.0763540     2.4215040    -0.9279010
units angstrom
no_reorient  #important for SAPT in psi4, default
symmetry c1  #important for SAPT in psi4, default
}

set PROPERTIES_ORIGIN ["COM"]
properties('MP2/aug-cc-pvtz', properties = ['dipole'])
--------------------------------------------------------------------------

    Molecular point group: c1
  Charge       = -1
  Multiplicity = 1
  Basis Set: AUG-CC-PVTZ
    Blend: AUG-CC-PVTZ
  Basis Set: (AUG-CC-PVTZ AUX)
    Blend: AUG-CC-PVTZ-JKFIT

    Orbital Energies [Eh]
    ---------------------

    Doubly Occupied:

       1A    -79.878333     2A    -20.407067     3A    -20.403148
       4A    -20.304705     5A    -20.300998     6A    -11.147913
       7A    -11.143772     8A    -11.106434     9A    -11.104263
      10A     -7.393928    11A     -5.292779    12A     -5.291862
      13A     -5.290547    14A     -1.233166    15A     -1.184720
      16A     -1.098377    17A     -1.058310    18A     -0.895535
      19A     -0.890773    20A     -0.714440    21A     -0.712585
      22A     -0.598622    23A     -0.537408    24A     -0.528887
      25A     -0.506430    26A     -0.457365    27A     -0.449554
      28A     -0.441397    29A     -0.423230    30A     -0.421947
      31A     -0.400470    32A     -0.398468    33A     -0.366897
      34A     -0.361728    35A     -0.331075    36A     -0.309539
      37A     -0.305498    38A     -0.283821    39A     -0.266505
      40A     -0.249734    41A     -0.235277

  @DF-RHF Final Energy:  -797.83683941305355

   => Energetics <=

    Nuclear Repulsion Energy =            612.7836470547362069
    One-Electron Energy =               -2331.7859557305428098
    Two-Electron Energy =                 921.1654692627529357
    Total Energy =                       -797.8368394130535535
  Basis Set: (AUG-CC-PVTZ AUX)
    Blend: AUG-CC-PVTZ-RI
    Molecular point group: c1

    Geometry (in Angstrom), charge = -1, multiplicity = 1:

       Center              X                  Y                   Z               Mass
    ------------   -----------------  -----------------  -----------------  -----------------
         P           -0.005214228465    -0.984258869911    -0.001691599536    30.973761998420
         O           -1.138607228465     0.084435730089     0.578686300464    15.994914619570
         O            1.146536771535     0.076297130089    -0.560714599536    15.994914619570
         O            0.499283771535    -1.703459869911     1.222011400464    15.994914619570
         O           -0.487176628465    -1.716572669911    -1.226627699536    15.994914619570
         C           -1.824227228465     0.876377130089    -0.438471599536    12.000000000000
         C            1.809489771535     0.881529130089     0.433722400464    12.000000000000
         C           -2.678728228465     1.893896130089     0.285570400464    12.000000000000
         C            2.682133771535     1.882505130089    -0.291803599536    12.000000000000
         H           -1.078105228465     1.371630130089    -1.070005599536     1.007825032230
         H           -2.432908228465     0.228679130089    -1.077739599536     1.007825032230
         H            1.060081771535     1.390702130089     1.050129400464     1.007825032230
         H            2.404308771535     0.236131130089     1.088165400464     1.007825032230
         H           -3.218974228465     2.517769130089    -0.433055599536     1.007825032230
         H           -3.408590228465     1.391847130089     0.925286400464     1.007825032230
         H           -2.055065228465     2.540745130089     0.907273400464     1.007825032230
         H            3.218140771535     2.511048130089     0.425910400464     1.007825032230
         H            3.416062771535     1.366008130089    -0.915118599536     1.007825032230
         H            2.072229771535     2.526336130089    -0.930051599536     1.007825032230

  Basis Set: AUG-CC-PVTZ
    Blend: AUG-CC-PVTZ
  Basis Set: (AUG-CC-PVTZ AUX)
    Blend: AUG-CC-PVTZ-JKFIT
	 Reference Energy          =    -797.8368394130535535 [Eh]
	 Singles Energy            =      -0.0000000000000000 [Eh]
	 Same-Spin Energy          =      -0.4980665645918688 [Eh]
	 Opposite-Spin Energy      =      -1.5457210863756043 [Eh]
	 Correlation Energy        =      -2.0437876509674733 [Eh]
	 Total Energy              =    -799.8806270640210414 [Eh]

	 ================> DF-SCS-MP2 Energies <==================
	-----------------------------------------------------------
	 SCS Same-Spin Scale       =       0.3333333333333333 [-]
	 SCS Opposite-Spin Scale   =       1.2000000000000000 [-]
	 SCS Same-Spin Energy      =      -0.1660221881972896 [Eh]
	 SCS Opposite-Spin Energy  =      -1.8548653036507252 [Eh]
	 SCS Correlation Energy    =      -2.0208874918480149 [Eh]
	 SCS Total Energy          =    -799.8577269049015968 [Eh]
	-----------------------------------------------------------

  Dipole Moment: [D]
     X:    -0.1535      Y:     7.5594      Z:    -0.0648     Total:     7.5613

*** Psi4 exiting successfully. Buy a developer a beer!
