                               Psi4 1.3.2 release

  ==> Input File <==

--------------------------------------------------------------------------
#psi4
#
memory 32 gb

molecule  {
-1 1
  P       -0.0063354    -1.0801157    -0.0266284
  O       -1.1524220    -0.0281740     0.5594010
  O        1.1506610    -0.0285350    -0.5585640
  O        0.5034080    -1.8082920     1.2241620
  O       -0.5057790    -1.8082590    -1.2231120
  C       -1.8063282     0.7604134    -0.4541804
  C        1.8136140     0.7766970     0.4358730
  C       -2.6746040     1.7890640     0.2877210
  C        2.6862580     1.7776730    -0.2896530
  H       -1.0739810     1.2667980    -1.0678550
  H       -2.4287840     0.1238470    -1.0755890
  H        1.0642060     1.2858700     1.0522800
  H        2.4084330     0.1312990     1.0903160
  H       -3.2148500     2.4129370    -0.4309050
  H       -3.4044660     1.2870150     0.9274370
  H       -2.0509410     2.4359130     0.9094240
  H        3.2222650     2.4062160     0.4280610
  H        3.4201870     1.2611760    -0.9129680
  H        2.0763540     2.4215040    -0.9279010
units angstrom
no_reorient  #important for SAPT in psi4, default
symmetry c1  #important for SAPT in psi4, default
}

set PROPERTIES_ORIGIN ["COM"]
properties('MP2/aug-cc-pvtz', properties = ['dipole'])
--------------------------------------------------------------------------

    Molecular point group: c1
  Charge       = -1
  Multiplicity = 1
  Basis Set: AUG-CC-PVTZ
    Blend: AUG-CC-PVTZ
  Basis Set: (AUG-CC-PVTZ AUX)
    Blend: AUG-CC-PVTZ-JKFIT

    Orbital Energies [Eh]
    ---------------------

    Doubly Occupied:

       1A    -79.879081     2A    -20.406668     3A    -20.406192
       4A    -20.307503     5A    -20.297446     6A    -11.146177
       7A    -11.144850     8A    -11.105728     9A    -11.105513
      10A     -7.394692    11A     -5.293543    12A     -5.292688
      13A     -5.291240    14A     -1.237907    15A     -1.190402
      16A     -1.101363    17A     -1.052091    18A     -0.894695
      19A     -0.887242    20A     -0.716652    21A     -0.715248
      22A     -0.601770    23A     -0.540095    24A     -0.531238
      25A     -0.508568    26A     -0.458878    27A     -0.449321
      28A     -0.441302    29A     -0.424442    30A     -0.422274
      31A     -0.402142    32A     -0.401238    33A     -0.366667
      34A     -0.359469    35A     -0.330415    36A     -0.311460
      37A     -0.307556    38A     -0.283141    39A     -0.269310
      40A     -0.245070    41A     -0.233034

  @DF-RHF Final Energy:  -797.83641039869246

   => Energetics <=

    Nuclear Repulsion Energy =            613.3582058103248755
    One-Electron Energy =               -2332.8806087486764227
    Two-Electron Energy =                 921.6859925396591962
    Total Energy =                       -797.8364103986924647
  Basis Set: (AUG-CC-PVTZ AUX)
    Blend: AUG-CC-PVTZ-RI
    Molecular point group: c1

    Geometry (in Angstrom), charge = -1, multiplicity = 1:

       Center              X                  Y                   Z               Mass
    ------------   -----------------  -----------------  -----------------  -----------------
         P           -0.006227726874    -0.976788379377    -0.019798229700    30.973761998420
         O           -1.152314326874     0.075153320623     0.566231170300    15.994914619570
         O            1.150768673126     0.074792320623    -0.551733829700    15.994914619570
         O            0.503515673126    -1.704964679377     1.230992170300    15.994914619570
         O           -0.505671326874    -1.704931679377    -1.216281829700    15.994914619570
         C           -1.806220526874     0.863740720623    -0.447350229700    12.000000000000
         C            1.813721673126     0.880024320623     0.442703170300    12.000000000000
         C           -2.674496326874     1.892391320623     0.294551170300    12.000000000000
         C            2.686365673126     1.881000320623    -0.282822829700    12.000000000000
         H           -1.073873326874     1.370125320623    -1.061024829700     1.007825032230
         H           -2.428676326874     0.227174320623    -1.068758829700     1.007825032230
         H            1.064313673126     1.389197320623     1.059110170300     1.007825032230
         H            2.408540673126     0.234626320623     1.097146170300     1.007825032230
         H           -3.214742326874     2.516264320623    -0.424074829700     1.007825032230
         H           -3.404358326874     1.390342320623     0.934267170300     1.007825032230
         H           -2.050833326874     2.539240320623     0.916254170300     1.007825032230
         H            3.222372673126     2.509543320623     0.434891170300     1.007825032230
         H            3.420294673126     1.364503320623    -0.906137829700     1.007825032230
         H            2.076461673126     2.524831320623    -0.921070829700     1.007825032230

  Basis Set: AUG-CC-PVTZ
    Blend: AUG-CC-PVTZ
  Basis Set: (AUG-CC-PVTZ AUX)
    Blend: AUG-CC-PVTZ-JKFIT
	 Reference Energy          =    -797.8364103986924647 [Eh]
	 Singles Energy            =      -0.0000000000000000 [Eh]
	 Same-Spin Energy          =      -0.4978809483403085 [Eh]
	 Opposite-Spin Energy      =      -1.5452102896785080 [Eh]
	 Correlation Energy        =      -2.0430912380188166 [Eh]
	 Total Energy              =    -799.8795016367113249 [Eh]

	 ================> DF-SCS-MP2 Energies <==================
	-----------------------------------------------------------
	 SCS Same-Spin Scale       =       0.3333333333333333 [-]
	 SCS Opposite-Spin Scale   =       1.2000000000000000 [-]
	 SCS Same-Spin Energy      =      -0.1659603161134361 [Eh]
	 SCS Opposite-Spin Energy  =      -1.8542523476142097 [Eh]
	 SCS Correlation Energy    =      -2.0202126637276456 [Eh]
	 SCS Total Energy          =    -799.8566230624201125 [Eh]
	-----------------------------------------------------------

  Dipole Moment: [D]
     X:    -0.0257      Y:     7.5876      Z:    -0.3164     Total:     7.5942

*** Psi4 exiting successfully. Buy a developer a beer!
