                               Psi4 1.3.2 release

  ==> Input File <==

--------------------------------------------------------------------------
#psi4
#
memory 32 gb

molecule  {
-1 1
  P       -0.0010900    -1.0890910     0.0004590
  O       -1.1524220    -0.0281740     0.5594010
  O        1.2023445    -0.0538085    -0.4932532
  O        0.5706522    -1.7675750     1.2178282
  O       -0.5057790    -1.8082590    -1.2231120
  C       -1.8201030     0.7715450    -0.4363210
  C        1.8136140     0.7766970     0.4358730
  C       -2.6746040     1.7890640     0.2877210
  C        2.6862580     1.7776730    -0.2896530
  H       -1.0739810     1.2667980    -1.0678550
  H       -2.4287840     0.1238470    -1.0755890
  H        1.0642060     1.2858700     1.0522800
  H        2.4084330     0.1312990     1.0903160
  H       -3.2148500     2.4129370    -0.4309050
  H       -3.4044660     1.2870150     0.9274370
  H       -2.0509410     2.4359130     0.9094240
  H        3.2222650     2.4062160     0.4280610
  H        3.4201870     1.2611760    -0.9129680
  H        2.0763540     2.4215040    -0.9279010
units angstrom
no_reorient  #important for SAPT in psi4, default
symmetry c1  #important for SAPT in psi4, default
}

set PROPERTIES_ORIGIN ["COM"]
properties('MP2/aug-cc-pvtz', properties = ['dipole'])
--------------------------------------------------------------------------

    Molecular point group: c1
  Charge       = -1
  Multiplicity = 1
  Basis Set: AUG-CC-PVTZ
    Blend: AUG-CC-PVTZ
  Basis Set: (AUG-CC-PVTZ AUX)
    Blend: AUG-CC-PVTZ-JKFIT

    Orbital Energies [Eh]
    ---------------------

    Doubly Occupied:

       1A    -79.882302     2A    -20.409051     3A    -20.396500
       4A    -20.311607     5A    -20.300376     6A    -11.148247
       7A    -11.136076     8A    -11.106882     9A    -11.100454
      10A     -7.397601    11A     -5.296514    12A     -5.295666
      13A     -5.294100    14A     -1.241664    15A     -1.196522
      16A     -1.102158    17A     -1.061998    18A     -0.895584
      19A     -0.886405    20A     -0.716626    21A     -0.711274
      22A     -0.603067    23A     -0.543786    24A     -0.530580
      25A     -0.508906    26A     -0.462039    27A     -0.449025
      28A     -0.445529    29A     -0.425015    30A     -0.423465
      31A     -0.402570    32A     -0.400745    33A     -0.368567
      34A     -0.358372    35A     -0.328714    36A     -0.308779
      37A     -0.297906    38A     -0.285236    39A     -0.269521
      40A     -0.250512    41A     -0.238907

  @DF-RHF Final Energy:  -797.83811561176447

   => Energetics <=

    Nuclear Repulsion Energy =            614.0849527621716106
    One-Electron Energy =               -2334.2684353492604714
    Two-Electron Energy =                 922.3453669753242821
    Total Energy =                       -797.8381156117644650
  Basis Set: (AUG-CC-PVTZ AUX)
    Blend: AUG-CC-PVTZ-RI
    Molecular point group: c1

    Geometry (in Angstrom), charge = -1, multiplicity = 1:

       Center              X                  Y                   Z               Mass
    ------------   -----------------  -----------------  -----------------  -----------------
         P           -0.013394205857    -0.986434114832    -0.005758086845    30.973761998420
         O           -1.164726205857     0.074482885168     0.553183913155    15.994914619570
         O            1.190040294143     0.048848385168    -0.499470286845    15.994914619570
         O            0.558347994143    -1.664918114832     1.211611113155    15.994914619570
         O           -0.518083205857    -1.705602114832    -1.229329086845    15.994914619570
         C           -1.832407205857     0.874201885168    -0.442538086845    12.000000000000
         C            1.801309794143     0.879353885168     0.429655913155    12.000000000000
         C           -2.686908205857     1.891720885168     0.281503913155    12.000000000000
         C            2.673953794143     1.880329885168    -0.295870086845    12.000000000000
         H           -1.086285205857     1.369454885168    -1.074072086845     1.007825032230
         H           -2.441088205857     0.226503885168    -1.081806086845     1.007825032230
         H            1.051901794143     1.388526885168     1.046062913155     1.007825032230
         H            2.396128794143     0.233955885168     1.084098913155     1.007825032230
         H           -3.227154205857     2.515593885168    -0.437122086845     1.007825032230
         H           -3.416770205857     1.389671885168     0.921219913155     1.007825032230
         H           -2.063245205857     2.538569885168     0.903206913155     1.007825032230
         H            3.209960794143     2.508872885168     0.421843913155     1.007825032230
         H            3.407882794143     1.363832885168    -0.919185086845     1.007825032230
         H            2.064049794143     2.524160885168    -0.934118086845     1.007825032230

  Basis Set: AUG-CC-PVTZ
    Blend: AUG-CC-PVTZ
  Basis Set: (AUG-CC-PVTZ AUX)
    Blend: AUG-CC-PVTZ-JKFIT
	 Reference Energy          =    -797.8381156117644650 [Eh]
	 Singles Energy            =      -0.0000000000000000 [Eh]
	 Same-Spin Energy          =      -0.4977188523404227 [Eh]
	 Opposite-Spin Energy      =      -1.5438718336360033 [Eh]
	 Correlation Energy        =      -2.0415906859764261 [Eh]
	 Total Energy              =    -799.8797062977408814 [Eh]

	 ================> DF-SCS-MP2 Energies <==================
	-----------------------------------------------------------
	 SCS Same-Spin Scale       =       0.3333333333333333 [-]
	 SCS Opposite-Spin Scale   =       1.2000000000000000 [-]
	 SCS Same-Spin Energy      =      -0.1659062841134742 [Eh]
	 SCS Opposite-Spin Energy  =      -1.8526462003632038 [Eh]
	 SCS Correlation Energy    =      -2.0185524844766780 [Eh]
	 SCS Total Energy          =    -799.8566680962411510 [Eh]
	-----------------------------------------------------------

  Dipole Moment: [D]
     X:    -0.4676      Y:     7.3091      Z:    -0.1919     Total:     7.3266

*** Psi4 exiting successfully. Buy a developer a beer!
