                               Psi4 1.4a3.dev225

  ==> Input File <==

--------------------------------------------------------------------------
#psi4
#
memory 32 gb

molecule  {
-1 1
  P        0.0000000     1.0872980     0.0000000
  O       -1.1564220     0.0305830    -0.5476420
  O        1.1564220     0.0305830     0.5476420
  O        0.4859092     1.7995931    -1.2113781
  O       -0.4924450     1.8091740     1.2276720
  C       -1.7989910    -0.7944120     0.4410350
  C        1.7989910    -0.7944120    -0.4410350
  C       -2.7063440    -1.7646140    -0.2844450
  C        2.7063440    -1.7646150     0.2844450
  H       -1.0386670    -1.3302830     1.0205350
  H       -2.3670280    -0.1617970     1.1311080
  H        1.0386660    -1.3302840    -1.0205350
  H        2.3670280    -0.1617970    -1.1311080
  H       -3.2237520    -2.4090830     0.4325060
  H       -3.4553630    -1.2226600    -0.8671100
  H       -2.1260300    -2.3948090    -0.9629160
  H        3.2237520    -2.4090830    -0.4325060
  H        3.4553630    -1.2226600     0.8671100
  H        2.1260300    -2.3948090     0.9629160
units angstrom
no_reorient  #important for SAPT in psi4, default
symmetry c1  #important for SAPT in psi4, default
}

set PROPERTIES_ORIGIN ["COM"]
properties('MP2/aug-cc-pvtz', properties = ['dipole'])
--------------------------------------------------------------------------

    Molecular point group: c1
  Charge       = -1
  Multiplicity = 1
  Basis Set: AUG-CC-PVTZ
    Blend: AUG-CC-PVTZ
  Basis Set: (AUG-CC-PVTZ AUX)
    Blend: AUG-CC-PVTZ-JKFIT

    Orbital Energies [Eh]
    ---------------------

    Doubly Occupied:

       1A    -79.875063     2A    -20.403673     3A    -20.403595
       4A    -20.302239     5A    -20.301212     6A    -11.145125
       7A    -11.144684     8A    -11.104965     9A    -11.104754
      10A     -7.391411    11A     -5.290205    12A     -5.289356
      13A     -5.288086    14A     -1.236179    15A     -1.188132
      16A     -1.102684    17A     -1.060967    18A     -0.894514
      19A     -0.890514    20A     -0.714346    21A     -0.712950
      22A     -0.599620    23A     -0.539879    24A     -0.529530
      25A     -0.506804    26A     -0.457875    27A     -0.448934
      28A     -0.443593    29A     -0.423948    30A     -0.421986
      31A     -0.401343    32A     -0.399297    33A     -0.367322
      34A     -0.361442    35A     -0.330670    36A     -0.307524
      37A     -0.305543    38A     -0.285440    39A     -0.267809
      40A     -0.250630    41A     -0.236288

  @DF-RHF Final Energy:  -797.84045624673195

   => Energetics <=

    Nuclear Repulsion Energy =            614.0303639768142148
    One-Electron Energy =               -2334.2813752773690794
    Two-Electron Energy =                 922.4105550538229181
    Total Energy =                       -797.8404562467319465
  Basis Set: (AUG-CC-PVTZ AUX)
    Blend: AUG-CC-PVTZ-RI
    Molecular point group: c1

    Geometry (in Angstrom), charge = -1, multiplicity = 1:

       Center              X                  Y                   Z               Mass
    ------------   -----------------  -----------------  -----------------  -----------------
         P            0.000683130297     0.984009524473    -0.001703043154    30.973761998420
         O           -1.155738869703    -0.072705475527    -0.549345043154    15.994914619570
         O            1.157105130297    -0.072705475527     0.545938956846    15.994914619570
         O            0.486592330297     1.696304624473    -1.213081143154    15.994914619570
         O           -0.491761869703     1.705885524473     1.225968956846    15.994914619570
         C           -1.798307869703    -0.897700475527     0.439331956846    12.000000000000
         C            1.799674130297    -0.897700475527    -0.442738043154    12.000000000000
         C           -2.705660869703    -1.867902475527    -0.286148043154    12.000000000000
         C            2.707027130297    -1.867903475527     0.282741956846    12.000000000000
         H           -1.037983869703    -1.433571475527     1.018831956846     1.007825032230
         H           -2.366344869703    -0.265085475527     1.129404956846     1.007825032230
         H            1.039349130297    -1.433572475527    -1.022238043154     1.007825032230
         H            2.367711130297    -0.265085475527    -1.132811043154     1.007825032230
         H           -3.223068869703    -2.512371475527     0.430802956846     1.007825032230
         H           -3.454679869703    -1.325948475527    -0.868813043154     1.007825032230
         H           -2.125346869703    -2.498097475527    -0.964619043154     1.007825032230
         H            3.224435130297    -2.512371475527    -0.434209043154     1.007825032230
         H            3.456046130297    -1.325948475527     0.865406956846     1.007825032230
         H            2.126713130297    -2.498097475527     0.961212956846     1.007825032230

  Basis Set: AUG-CC-PVTZ
    Blend: AUG-CC-PVTZ
  Basis Set: (AUG-CC-PVTZ AUX)
    Blend: AUG-CC-PVTZ-JKFIT
	 Reference Energy          =    -797.8404562467319465 [Eh]
	 Singles Energy            =      -0.0000000000000000 [Eh]
	 Same-Spin Energy          =      -0.4974365123636473 [Eh]
	 Opposite-Spin Energy      =      -1.5438563591283496 [Eh]
	 Correlation Energy        =      -2.0412928714919971 [Eh]
	 Total Energy              =    -799.8817491182239792 [Eh]

	 ================> DF-SCS-MP2 Energies <==================
	-----------------------------------------------------------
	 SCS Same-Spin Scale       =       0.3333333333333333 [-]
	 SCS Opposite-Spin Scale   =       1.2000000000000000 [-]
	 SCS Same-Spin Energy      =      -0.1658121707878824 [Eh]
	 SCS Opposite-Spin Energy  =      -1.8526276309540195 [Eh]
	 SCS Correlation Energy    =      -2.0184398017419021 [Eh]
	 SCS Total Energy          =    -799.8588960484738664 [Eh]
	-----------------------------------------------------------

  Dipole Moment: [D]
     X:     0.0399      Y:    -7.5038      Z:    -0.0927     Total:     7.5045

*** Psi4 exiting successfully. Buy a developer a beer!
