                               Psi4 1.3.2 release

  ==> Input File <==

--------------------------------------------------------------------------
#psi4
#
memory 32 gb

molecule  {
-1 1
  P       -0.0010900    -1.0890910     0.0004590
  O       -1.1370987    -0.0575206     0.6398908
  O        1.1506610    -0.0285350    -0.5585640
  O        0.4533267    -1.7654309     1.2674582
  O       -0.5057790    -1.8082590    -1.2231120
  C       -1.8201030     0.7715450    -0.4363210
  C        1.8136140     0.7766970     0.4358730
  C       -2.6746040     1.7890640     0.2877210
  C        2.6862580     1.7776730    -0.2896530
  H       -1.0739810     1.2667980    -1.0678550
  H       -2.4287840     0.1238470    -1.0755890
  H        1.0642060     1.2858700     1.0522800
  H        2.4084330     0.1312990     1.0903160
  H       -3.2148500     2.4129370    -0.4309050
  H       -3.4044660     1.2870150     0.9274370
  H       -2.0509410     2.4359130     0.9094240
  H        3.2222650     2.4062160     0.4280610
  H        3.4201870     1.2611760    -0.9129680
  H        2.0763540     2.4215040    -0.9279010
units angstrom
no_reorient  #important for SAPT in psi4, default
symmetry c1  #important for SAPT in psi4, default
}

set PROPERTIES_ORIGIN ["COM"]
properties('MP2/aug-cc-pvtz', properties = ['dipole'])
--------------------------------------------------------------------------

    Molecular point group: c1
  Charge       = -1
  Multiplicity = 1
  Basis Set: AUG-CC-PVTZ
    Blend: AUG-CC-PVTZ
  Basis Set: (AUG-CC-PVTZ AUX)
    Blend: AUG-CC-PVTZ-JKFIT

    Orbital Energies [Eh]
    ---------------------

    Doubly Occupied:

       1A    -79.876511     2A    -20.406167     3A    -20.404012
       4A    -20.307772     5A    -20.296371     6A    -11.149851
       7A    -11.144482     8A    -11.106533     9A    -11.104953
      10A     -7.392216    11A     -5.291005    12A     -5.290296
      13A     -5.288748    14A     -1.228118    15A     -1.174157
      16A     -1.094494    17A     -1.058516    18A     -0.895614
      19A     -0.891818    20A     -0.713407    21A     -0.711601
      22A     -0.593573    23A     -0.532098    24A     -0.525039
      25A     -0.504705    26A     -0.454790    27A     -0.450485
      28A     -0.437312    29A     -0.422597    30A     -0.417748
      31A     -0.397803    32A     -0.395285    33A     -0.367087
      34A     -0.363484    35A     -0.331082    36A     -0.311619
      37A     -0.306624    38A     -0.282008    39A     -0.265330
      40A     -0.247570    41A     -0.234867

  @DF-RHF Final Energy:  -797.82773841761673

   => Energetics <=

    Nuclear Repulsion Energy =            612.0840728836635662
    One-Electron Energy =               -2330.4881289135523730
    Two-Electron Energy =                 920.5763176122720779
    Total Energy =                       -797.8277384176167288
  Basis Set: (AUG-CC-PVTZ AUX)
    Blend: AUG-CC-PVTZ-RI
    Molecular point group: c1

    Geometry (in Angstrom), charge = -1, multiplicity = 1:

       Center              X                  Y                   Z               Mass
    ------------   -----------------  -----------------  -----------------  -----------------
         P            0.002669068084    -0.986232495192    -0.012531942323    30.973761998420
         O           -1.133339631916     0.045337904808     0.626899857677    15.994914619570
         O            1.154420068084     0.074323504808    -0.571554942323    15.994914619570
         O            0.457085768084    -1.662572395192     1.254467257677    15.994914619570
         O           -0.502019931916    -1.705400495192    -1.236102942323    15.994914619570
         C           -1.816343931916     0.874403504808    -0.449311942323    12.000000000000
         C            1.817373068084     0.879555504808     0.422882057677    12.000000000000
         C           -2.670844931916     1.891922504808     0.274730057677    12.000000000000
         C            2.690017068084     1.880531504808    -0.302643942323    12.000000000000
         H           -1.070221931916     1.369656504808    -1.080845942323     1.007825032230
         H           -2.425024931916     0.226705504808    -1.088579942323     1.007825032230
         H            1.067965068084     1.388728504808     1.039289057677     1.007825032230
         H            2.412192068084     0.234157504808     1.077325057677     1.007825032230
         H           -3.211090931916     2.515795504808    -0.443895942323     1.007825032230
         H           -3.400706931916     1.389873504808     0.914446057677     1.007825032230
         H           -2.047181931916     2.538771504808     0.896433057677     1.007825032230
         H            3.226024068084     2.509074504808     0.415070057677     1.007825032230
         H            3.423946068084     1.364034504808    -0.925958942323     1.007825032230
         H            2.080113068084     2.524362504808    -0.940891942323     1.007825032230

  Basis Set: AUG-CC-PVTZ
    Blend: AUG-CC-PVTZ
  Basis Set: (AUG-CC-PVTZ AUX)
    Blend: AUG-CC-PVTZ-JKFIT
	 Reference Energy          =    -797.8277384176167288 [Eh]
	 Singles Energy            =      -0.0000000000000000 [Eh]
	 Same-Spin Energy          =      -0.4988256772402869 [Eh]
	 Opposite-Spin Energy      =      -1.5481748654165342 [Eh]
	 Correlation Energy        =      -2.0470005426568210 [Eh]
	 Total Energy              =    -799.8747389602735893 [Eh]

	 ================> DF-SCS-MP2 Energies <==================
	-----------------------------------------------------------
	 SCS Same-Spin Scale       =       0.3333333333333333 [-]
	 SCS Opposite-Spin Scale   =       1.2000000000000000 [-]
	 SCS Same-Spin Energy      =      -0.1662752257467623 [Eh]
	 SCS Opposite-Spin Energy  =      -1.8578098384998409 [Eh]
	 SCS Correlation Energy    =      -2.0240850642466031 [Eh]
	 SCS Total Energy          =    -799.8518234818633346 [Eh]
	-----------------------------------------------------------

  Dipole Moment: [D]
     X:    -0.0002      Y:     7.5328      Z:    -0.3193     Total:     7.5396

*** Psi4 exiting successfully. Buy a developer a beer!
