                               Psi4 1.3.2 release

  ==> Input File <==

--------------------------------------------------------------------------
#psi4
#
memory 32 gb

molecule  {
-1 1
  P       -0.0010900    -1.0890910     0.0004590
  O       -1.1413353    -0.0413491     0.5410675
  O        1.1506610    -0.0285350    -0.5585640
  O        0.5034080    -1.8082920     1.2241620
  O       -0.5057790    -1.8082590    -1.2231120
  C       -1.8201030     0.7715450    -0.4363210
  C        1.8136140     0.7766970     0.4358730
  C       -2.6825560     1.7986227     0.2644213
  C        2.6862580     1.7776730    -0.2896530
  H       -1.0739810     1.2667980    -1.0678550
  H       -2.4287840     0.1238470    -1.0755890
  H        1.0642060     1.2858700     1.0522800
  H        2.4084330     0.1312990     1.0903160
  H       -3.2148500     2.4129370    -0.4309050
  H       -3.4044660     1.2870150     0.9274370
  H       -2.0509410     2.4359130     0.9094240
  H        3.2222650     2.4062160     0.4280610
  H        3.4201870     1.2611760    -0.9129680
  H        2.0763540     2.4215040    -0.9279010
units angstrom
no_reorient  #important for SAPT in psi4, default
symmetry c1  #important for SAPT in psi4, default
}

set PROPERTIES_ORIGIN ["COM"]
properties('MP2/aug-cc-pvtz', properties = ['dipole'])
--------------------------------------------------------------------------

    Molecular point group: c1
  Charge       = -1
  Multiplicity = 1
  Basis Set: AUG-CC-PVTZ
    Blend: AUG-CC-PVTZ
  Basis Set: (AUG-CC-PVTZ AUX)
    Blend: AUG-CC-PVTZ-JKFIT

    Orbital Energies [Eh]
    ---------------------

    Doubly Occupied:

       1A    -79.876983     2A    -20.405166     3A    -20.403061
       4A    -20.302606     5A    -20.301173     6A    -11.146724
       7A    -11.144361     8A    -11.106754     9A    -11.104524
      10A     -7.392797    11A     -5.291717    12A     -5.290782
      13A     -5.289383    14A     -1.237940    15A     -1.188833
      16A     -1.097627    17A     -1.057994    18A     -0.896547
      19A     -0.891169    20A     -0.716499    21A     -0.712769
      22A     -0.600580    23A     -0.540830    24A     -0.529174
      25A     -0.506279    26A     -0.459757    27A     -0.452047
      28A     -0.443550    29A     -0.428564    30A     -0.421853
      31A     -0.400954    32A     -0.397237    33A     -0.366936
      34A     -0.360149    35A     -0.328556    36A     -0.308216
      37A     -0.305814    38A     -0.283512    39A     -0.265836
      40A     -0.249219    41A     -0.234817

  @DF-RHF Final Energy:  -797.83885608784067

   => Energetics <=

    Nuclear Repulsion Energy =            613.7074603357434626
    One-Electron Energy =               -2333.6140543186552350
    Two-Electron Energy =                 922.0677378950711045
    Total Energy =                       -797.8388560878406679
  Basis Set: (AUG-CC-PVTZ AUX)
    Blend: AUG-CC-PVTZ-RI
    Molecular point group: c1

    Geometry (in Angstrom), charge = -1, multiplicity = 1:

       Center              X                  Y                   Z               Mass
    ------------   -----------------  -----------------  -----------------  -----------------
         P           -0.001499076058    -0.984192437264     0.004149478293    30.973761998420
         O           -1.141744376058     0.063549462736     0.544757978293    15.994914619570
         O            1.150251923942     0.076363562736    -0.554873521707    15.994914619570
         O            0.502998923942    -1.703393437264     1.227852478293    15.994914619570
         O           -0.506188076058    -1.703360437264    -1.219421521707    15.994914619570
         C           -1.820512076058     0.876443562736    -0.432630521707    12.000000000000
         C            1.813204923942     0.881595562736     0.439563478293    12.000000000000
         C           -2.682965076058     1.903521262736     0.268111778293    12.000000000000
         C            2.685848923942     1.882571562736    -0.285962521707    12.000000000000
         H           -1.074390076058     1.371696562736    -1.064164521707     1.007825032230
         H           -2.429193076058     0.228745562736    -1.071898521707     1.007825032230
         H            1.063796923942     1.390768562736     1.055970478293     1.007825032230
         H            2.408023923942     0.236197562736     1.094006478293     1.007825032230
         H           -3.215259076058     2.517835562736    -0.427214521707     1.007825032230
         H           -3.404875076058     1.391913562736     0.931127478293     1.007825032230
         H           -2.051350076058     2.540811562736     0.913114478293     1.007825032230
         H            3.221855923942     2.511114562736     0.431751478293     1.007825032230
         H            3.419777923942     1.366074562736    -0.909277521707     1.007825032230
         H            2.075944923942     2.526402562736    -0.924210521707     1.007825032230

  Basis Set: AUG-CC-PVTZ
    Blend: AUG-CC-PVTZ
  Basis Set: (AUG-CC-PVTZ AUX)
    Blend: AUG-CC-PVTZ-JKFIT
	 Reference Energy          =    -797.8388560878406679 [Eh]
	 Singles Energy            =      -0.0000000000000000 [Eh]
	 Same-Spin Energy          =      -0.4975971179917907 [Eh]
	 Opposite-Spin Energy      =      -1.5442557876379126 [Eh]
	 Correlation Energy        =      -2.0418529056297032 [Eh]
	 Total Energy              =    -799.8807089934704209 [Eh]

	 ================> DF-SCS-MP2 Energies <==================
	-----------------------------------------------------------
	 SCS Same-Spin Scale       =       0.3333333333333333 [-]
	 SCS Opposite-Spin Scale   =       1.2000000000000000 [-]
	 SCS Same-Spin Energy      =      -0.1658657059972636 [Eh]
	 SCS Opposite-Spin Energy  =      -1.8531069451654951 [Eh]
	 SCS Correlation Energy    =      -2.0189726511627586 [Eh]
	 SCS Total Energy          =    -799.8578287390034802 [Eh]
	-----------------------------------------------------------

  Dipole Moment: [D]
     X:    -0.1089      Y:     7.6003      Z:     0.0166     Total:     7.6011

*** Psi4 exiting successfully. Buy a developer a beer!
