                               Psi4 1.3.2 release

  ==> Input File <==

--------------------------------------------------------------------------
#psi4
#
memory 32 gb

molecule  {
-1 1
  P       -0.0010900    -1.0890910     0.0004590
  O       -1.1637121    -0.0147553     0.5774312
  O        1.1506610    -0.0285350    -0.5585640
  O        0.5034080    -1.8082920     1.2241620
  O       -0.5057790    -1.8082590    -1.2231120
  C       -1.8201030     0.7715450    -0.4363210
  C        1.8136140     0.7766970     0.4358730
  C       -2.6663917     1.7791953     0.3108002
  C        2.6862580     1.7776730    -0.2896530
  H       -1.0739810     1.2667980    -1.0678550
  H       -2.4287840     0.1238470    -1.0755890
  H        1.0642060     1.2858700     1.0522800
  H        2.4084330     0.1312990     1.0903160
  H       -3.2148500     2.4129370    -0.4309050
  H       -3.4044660     1.2870150     0.9274370
  H       -2.0509410     2.4359130     0.9094240
  H        3.2222650     2.4062160     0.4280610
  H        3.4201870     1.2611760    -0.9129680
  H        2.0763540     2.4215040    -0.9279010
units angstrom
no_reorient  #important for SAPT in psi4, default
symmetry c1  #important for SAPT in psi4, default
}

set PROPERTIES_ORIGIN ["COM"]
properties('MP2/aug-cc-pvtz', properties = ['dipole'])
--------------------------------------------------------------------------

    Molecular point group: c1
  Charge       = -1
  Multiplicity = 1
  Basis Set: AUG-CC-PVTZ
    Blend: AUG-CC-PVTZ
  Basis Set: (AUG-CC-PVTZ AUX)
    Blend: AUG-CC-PVTZ-JKFIT

    Orbital Energies [Eh]
    ---------------------

    Doubly Occupied:

       1A    -79.881525     2A    -20.406197     3A    -20.404088
       4A    -20.306217     5A    -20.304765     6A    -11.145451
       7A    -11.143337     8A    -11.105328     9A    -11.103470
      10A     -7.396790    11A     -5.295596    12A     -5.294741
      13A     -5.293388    14A     -1.232931    15A     -1.186455
      16A     -1.100813    17A     -1.060878    18A     -0.894029
      19A     -0.888880    20A     -0.714152    21A     -0.711342
      22A     -0.599289    23A     -0.537354    24A     -0.529494
      25A     -0.507918    26A     -0.457533    27A     -0.447782
      28A     -0.442129    29A     -0.424165    30A     -0.417526
      31A     -0.401174    32A     -0.399060    33A     -0.367096
      34A     -0.361335    35A     -0.332576    36A     -0.307369
      37A     -0.305389    38A     -0.285044    39A     -0.267415
      40A     -0.252403    41A     -0.238083

  @DF-RHF Final Energy:  -797.83609993734490

   => Energetics <=

    Nuclear Repulsion Energy =            612.4974463755153238
    One-Electron Energy =               -2331.1660762828300903
    Two-Electron Energy =                 920.8325299699699826
    Total Energy =                       -797.8360999373448976
  Basis Set: (AUG-CC-PVTZ AUX)
    Blend: AUG-CC-PVTZ-RI
    Molecular point group: c1

    Geometry (in Angstrom), charge = -1, multiplicity = 1:

       Center              X                  Y                   Z               Mass
    ------------   -----------------  -----------------  -----------------  -----------------
         P           -0.000427772291    -0.985448626649    -0.003288074148    30.973761998420
         O           -1.163049872291     0.088887073351     0.573684125852    15.994914619570
         O            1.151323227709     0.075107373351    -0.562311074148    15.994914619570
         O            0.504070227709    -1.704649626649     1.220414925852    15.994914619570
         O           -0.505116772291    -1.704616626649    -1.226859074148    15.994914619570
         C           -1.819440772291     0.875187373351    -0.440068074148    12.000000000000
         C            1.814276227709     0.880339373351     0.432125925852    12.000000000000
         C           -2.665729472291     1.882837673351     0.307053125852    12.000000000000
         C            2.686920227709     1.881315373351    -0.293400074148    12.000000000000
         H           -1.073318772291     1.370440373351    -1.071602074148     1.007825032230
         H           -2.428121772291     0.227489373351    -1.079336074148     1.007825032230
         H            1.064868227709     1.389512373351     1.048532925852     1.007825032230
         H            2.409095227709     0.234941373351     1.086568925852     1.007825032230
         H           -3.214187772291     2.516579373351    -0.434652074148     1.007825032230
         H           -3.403803772291     1.390657373351     0.923689925852     1.007825032230
         H           -2.050278772291     2.539555373351     0.905676925852     1.007825032230
         H            3.222927227709     2.509858373351     0.424313925852     1.007825032230
         H            3.420849227709     1.364818373351    -0.916715074148     1.007825032230
         H            2.077016227709     2.525146373351    -0.931648074148     1.007825032230

  Basis Set: AUG-CC-PVTZ
    Blend: AUG-CC-PVTZ
  Basis Set: (AUG-CC-PVTZ AUX)
    Blend: AUG-CC-PVTZ-JKFIT
	 Reference Energy          =    -797.8360999373448976 [Eh]
	 Singles Energy            =      -0.0000000000000000 [Eh]
	 Same-Spin Energy          =      -0.4982790842089836 [Eh]
	 Opposite-Spin Energy      =      -1.5461078579412919 [Eh]
	 Correlation Energy        =      -2.0443869421502754 [Eh]
	 Total Energy              =    -799.8804868794951517 [Eh]

	 ================> DF-SCS-MP2 Energies <==================
	-----------------------------------------------------------
	 SCS Same-Spin Scale       =       0.3333333333333333 [-]
	 SCS Opposite-Spin Scale   =       1.2000000000000000 [-]
	 SCS Same-Spin Energy      =      -0.1660930280696612 [Eh]
	 SCS Opposite-Spin Energy  =      -1.8553294295295502 [Eh]
	 SCS Correlation Energy    =      -2.0214224575992112 [Eh]
	 SCS Total Energy          =    -799.8575223949441124 [Eh]
	-----------------------------------------------------------

  Dipole Moment: [D]
     X:     0.1119      Y:     7.3944      Z:    -0.0211     Total:     7.3953

*** Psi4 exiting successfully. Buy a developer a beer!
