                               Psi4 1.3.2 release

  ==> Input File <==

--------------------------------------------------------------------------
#psi4
#
memory 32 gb

molecule  {
-1 1
  P       -0.0010900    -1.0890910     0.0004590
  O       -1.1524220    -0.0281740     0.5594010
  O        1.1506610    -0.0285350    -0.5585640
  O        0.5034080    -1.8082920     1.2241620
  O       -0.4387701    -1.7127731    -1.0606551
  C       -1.8201030     0.7715450    -0.4363210
  C        1.8136140     0.7766970     0.4358730
  C       -2.6746040     1.7890640     0.2877210
  C        2.6862580     1.7776730    -0.2896530
  H       -1.0739810     1.2667980    -1.0678550
  H       -2.4287840     0.1238470    -1.0755890
  H        1.0642060     1.2858700     1.0522800
  H        2.4084330     0.1312990     1.0903160
  H       -3.2148500     2.4129370    -0.4309050
  H       -3.4044660     1.2870150     0.9274370
  H       -2.0509410     2.4359130     0.9094240
  H        3.2222650     2.4062160     0.4280610
  H        3.4201870     1.2611760    -0.9129680
  H        2.0763540     2.4215040    -0.9279010
units angstrom
no_reorient  #important for SAPT in psi4, default
symmetry c1  #important for SAPT in psi4, default
}

set PROPERTIES_ORIGIN ["COM"]
properties('MP2/aug-cc-pvtz', properties = ['dipole'])
--------------------------------------------------------------------------

    Molecular point group: c1
  Charge       = -1
  Multiplicity = 1
  Basis Set: AUG-CC-PVTZ
    Blend: AUG-CC-PVTZ
  Basis Set: (AUG-CC-PVTZ AUX)
    Blend: AUG-CC-PVTZ-JKFIT

    Orbital Energies [Eh]
    ---------------------

    Doubly Occupied:

       1A    -79.831477     2A    -20.390940     3A    -20.390231
       4A    -20.293566     5A    -20.285244     6A    -11.140857
       7A    -11.135949     8A    -11.101647     9A    -11.099197
      10A     -7.360941    11A     -5.261096    12A     -5.257478
      13A     -5.256135    14A     -1.244770    15A     -1.176533
      16A     -1.160047    17A     -1.058344    18A     -0.889036
      19A     -0.884689    20A     -0.708711    21A     -0.705502
      22A     -0.587315    23A     -0.536296    24A     -0.522028
      25A     -0.501043    26A     -0.453825    27A     -0.449793
      28A     -0.439922    29A     -0.423545    30A     -0.417273
      31A     -0.404645    32A     -0.394402    33A     -0.377413
      34A     -0.360205    35A     -0.342656    36A     -0.305589
      37A     -0.300956    38A     -0.296379    39A     -0.286976
      40A     -0.243545    41A     -0.236214

  @DF-RHF Final Energy:  -797.79712286787458

   => Energetics <=

    Nuclear Repulsion Energy =            623.2494869091603960
    One-Electron Energy =               -2353.0683948962091563
    Two-Electron Energy =                 932.0217851191741829
    Total Energy =                       -797.7971228678745774
  Basis Set: (AUG-CC-PVTZ AUX)
    Blend: AUG-CC-PVTZ-RI
    Molecular point group: c1

    Geometry (in Angstrom), charge = -1, multiplicity = 1:

       Center              X                  Y                   Z               Mass
    ------------   -----------------  -----------------  -----------------  -----------------
         P           -0.007967637822    -0.994800169697    -0.016573836008    30.973761998420
         O           -1.159299637822     0.066116830303     0.542368163992    15.994914619570
         O            1.143783362178     0.065755830303    -0.575596836008    15.994914619570
         O            0.496530362178    -1.714001169697     1.207129163992    15.994914619570
         O           -0.445647737822    -1.618482269697    -1.077687936008    15.994914619570
         C           -1.826980637822     0.865835830303    -0.453353836008    12.000000000000
         C            1.806736362178     0.870987830303     0.418840163992    12.000000000000
         C           -2.681481637822     1.883354830303     0.270688163992    12.000000000000
         C            2.679380362178     1.871963830303    -0.306685836008    12.000000000000
         H           -1.080858637822     1.361088830303    -1.084887836008     1.007825032230
         H           -2.435661637822     0.218137830303    -1.092621836008     1.007825032230
         H            1.057328362178     1.380160830303     1.035247163992     1.007825032230
         H            2.401555362178     0.225589830303     1.073283163992     1.007825032230
         H           -3.221727637822     2.507227830303    -0.447937836008     1.007825032230
         H           -3.411343637822     1.381305830303     0.910404163992     1.007825032230
         H           -2.057818637822     2.530203830303     0.892391163992     1.007825032230
         H            3.215387362178     2.500506830303     0.411028163992     1.007825032230
         H            3.413309362178     1.355466830303    -0.930000836008     1.007825032230
         H            2.069476362178     2.515794830303    -0.944933836008     1.007825032230

  Basis Set: AUG-CC-PVTZ
    Blend: AUG-CC-PVTZ
  Basis Set: (AUG-CC-PVTZ AUX)
    Blend: AUG-CC-PVTZ-JKFIT
	 Reference Energy          =    -797.7971228678745774 [Eh]
	 Singles Energy            =      -0.0000000000000000 [Eh]
	 Same-Spin Energy          =      -0.4939620011976136 [Eh]
	 Opposite-Spin Energy      =      -1.5354146389901475 [Eh]
	 Correlation Energy        =      -2.0293766401877611 [Eh]
	 Total Energy              =    -799.8264995080622839 [Eh]

	 ================> DF-SCS-MP2 Energies <==================
	-----------------------------------------------------------
	 SCS Same-Spin Scale       =       0.3333333333333333 [-]
	 SCS Opposite-Spin Scale   =       1.2000000000000000 [-]
	 SCS Same-Spin Energy      =      -0.1646540003992045 [Eh]
	 SCS Opposite-Spin Energy  =      -1.8424975667881769 [Eh]
	 SCS Correlation Energy    =      -2.0071515671873814 [Eh]
	 SCS Total Energy          =    -799.8042744350619841 [Eh]
	-----------------------------------------------------------

  Dipole Moment: [D]
     X:    -0.4103      Y:     6.7851      Z:    -0.9184     Total:     6.8593

*** Psi4 exiting successfully. Buy a developer a beer!
