                               Psi4 1.3.2 release

  ==> Input File <==

--------------------------------------------------------------------------
#psi4
#
memory 32 gb

molecule  {
-1 1
  P       -0.0010900    -1.0890910     0.0004590
  O       -1.1524220    -0.0281740     0.5594010
  O        1.1550712    -0.0193935    -0.5313819
  O        0.5034080    -1.8082920     1.2241620
  O       -0.5221762    -1.8221059    -1.2079275
  C       -1.8201030     0.7715450    -0.4363210
  C        1.8136140     0.7766970     0.4358730
  C       -2.6746040     1.7890640     0.2877210
  C        2.6862580     1.7776730    -0.2896530
  H       -1.0739810     1.2667980    -1.0678550
  H       -2.4287840     0.1238470    -1.0755890
  H        1.0642060     1.2858700     1.0522800
  H        2.4084330     0.1312990     1.0903160
  H       -3.2148500     2.4129370    -0.4309050
  H       -3.4044660     1.2870150     0.9274370
  H       -2.0509410     2.4359130     0.9094240
  H        3.2222650     2.4062160     0.4280610
  H        3.4201870     1.2611760    -0.9129680
  H        2.0763540     2.4215040    -0.9279010
units angstrom
no_reorient  #important for SAPT in psi4, default
symmetry c1  #important for SAPT in psi4, default
}

set PROPERTIES_ORIGIN ["COM"]
properties('MP2/aug-cc-pvtz', properties = ['dipole'])
--------------------------------------------------------------------------

    Molecular point group: c1
  Charge       = -1
  Multiplicity = 1
  Basis Set: AUG-CC-PVTZ
    Blend: AUG-CC-PVTZ
  Basis Set: (AUG-CC-PVTZ AUX)
    Blend: AUG-CC-PVTZ-JKFIT

    Orbital Energies [Eh]
    ---------------------

    Doubly Occupied:

       1A    -79.880434     2A    -20.404578     3A    -20.404189
       4A    -20.306169     5A    -20.302351     6A    -11.145129
       7A    -11.143028     8A    -11.104970     9A    -11.104268
      10A     -7.395880    11A     -5.294772    12A     -5.293813
      13A     -5.292486    14A     -1.239024    15A     -1.191912
      16A     -1.100774    17A     -1.059511    18A     -0.894409
      19A     -0.890047    20A     -0.715132    21A     -0.713131
      22A     -0.602278    23A     -0.541429    24A     -0.530783
      25A     -0.507850    26A     -0.460755    27A     -0.449004
      28A     -0.443950    29A     -0.424449    30A     -0.423578
      31A     -0.402251    32A     -0.399816    33A     -0.367023
      34A     -0.359807    35A     -0.330101    36A     -0.307160
      37A     -0.304014    38A     -0.285085    39A     -0.267777
      40A     -0.250938    41A     -0.236666

  @DF-RHF Final Energy:  -797.83970283779627

   => Energetics <=

    Nuclear Repulsion Energy =            613.4678311696620767
    One-Electron Energy =               -2333.0736252695132862
    Two-Electron Energy =                 921.7660912620549425
    Total Energy =                       -797.8397028377962670
  Basis Set: (AUG-CC-PVTZ AUX)
    Blend: AUG-CC-PVTZ-RI
    Molecular point group: c1

    Geometry (in Angstrom), charge = -1, multiplicity = 1:

       Center              X                  Y                   Z               Mass
    ------------   -----------------  -----------------  -----------------  -----------------
         P            0.000289036559    -0.984328145960    -0.004021963019    30.973761998420
         O           -1.151042963441     0.076588854040     0.554920036981    15.994914619570
         O            1.156450236559     0.085369354040    -0.535862863019    15.994914619570
         O            0.504787036559    -1.703529145960     1.219681036981    15.994914619570
         O           -0.520797163441    -1.717343045960    -1.212408463019    15.994914619570
         C           -1.818723963441     0.876307854040    -0.440801963019    12.000000000000
         C            1.814993036559     0.881459854040     0.431392036981    12.000000000000
         C           -2.673224963441     1.893826854040     0.283240036981    12.000000000000
         C            2.687637036559     1.882435854040    -0.294133963019    12.000000000000
         H           -1.072601963441     1.371560854040    -1.072335963019     1.007825032230
         H           -2.427404963441     0.228609854040    -1.080069963019     1.007825032230
         H            1.065585036559     1.390632854040     1.047799036981     1.007825032230
         H            2.409812036559     0.236061854040     1.085835036981     1.007825032230
         H           -3.213470963441     2.517699854040    -0.435385963019     1.007825032230
         H           -3.403086963441     1.391777854040     0.922956036981     1.007825032230
         H           -2.049561963441     2.540675854040     0.904943036981     1.007825032230
         H            3.223644036559     2.510978854040     0.423580036981     1.007825032230
         H            3.421566036559     1.365938854040    -0.917448963019     1.007825032230
         H            2.077733036559     2.526266854040    -0.932381963019     1.007825032230

  Basis Set: AUG-CC-PVTZ
    Blend: AUG-CC-PVTZ
  Basis Set: (AUG-CC-PVTZ AUX)
    Blend: AUG-CC-PVTZ-JKFIT
	 Reference Energy          =    -797.8397028377962670 [Eh]
	 Singles Energy            =      -0.0000000000000000 [Eh]
	 Same-Spin Energy          =      -0.4977276396466221 [Eh]
	 Opposite-Spin Energy      =      -1.5443524404550237 [Eh]
	 Correlation Energy        =      -2.0420800801016457 [Eh]
	 Total Energy              =    -799.8817829178979082 [Eh]

	 ================> DF-SCS-MP2 Energies <==================
	-----------------------------------------------------------
	 SCS Same-Spin Scale       =       0.3333333333333333 [-]
	 SCS Opposite-Spin Scale   =       1.2000000000000000 [-]
	 SCS Same-Spin Energy      =      -0.1659092132155407 [Eh]
	 SCS Opposite-Spin Energy  =      -1.8532229285460284 [Eh]
	 SCS Correlation Energy    =      -2.0191321417615691 [Eh]
	 SCS Total Energy          =    -799.8588349795578551 [Eh]
	-----------------------------------------------------------

  Dipole Moment: [D]
     X:    -0.0132      Y:     7.4764      Z:    -0.1183     Total:     7.4774

*** Psi4 exiting successfully. Buy a developer a beer!
