                               Psi4 1.4a3.dev225

  ==> Input File <==

--------------------------------------------------------------------------
#psi4
#
memory 32 gb

molecule  {
-1 1
  P        0.0000000     1.0872980     0.0000000
  O       -1.1564220     0.0305830    -0.5476420
  O        1.1564220     0.0305830     0.5476420
  O        0.4924450     1.8091740    -1.2276720
  O       -0.4761055     1.7852218     1.1869373
  C       -1.7989910    -0.7944120     0.4410350
  C        1.7989910    -0.7944120    -0.4410350
  C       -2.7063440    -1.7646140    -0.2844450
  C        2.7063440    -1.7646150     0.2844450
  H       -1.0386670    -1.3302830     1.0205350
  H       -2.3670280    -0.1617970     1.1311080
  H        1.0386660    -1.3302840    -1.0205350
  H        2.3670280    -0.1617970    -1.1311080
  H       -3.2237520    -2.4090830     0.4325060
  H       -3.4553630    -1.2226600    -0.8671100
  H       -2.1260300    -2.3948090    -0.9629160
  H        3.2237520    -2.4090830    -0.4325060
  H        3.4553630    -1.2226600     0.8671100
  H        2.1260300    -2.3948090     0.9629160
units angstrom
no_reorient  #important for SAPT in psi4, default
symmetry c1  #important for SAPT in psi4, default
}

set PROPERTIES_ORIGIN ["COM"]
properties('MP2/aug-cc-pvtz', properties = ['dipole'])
--------------------------------------------------------------------------

    Molecular point group: c1
  Charge       = -1
  Multiplicity = 1
  Basis Set: AUG-CC-PVTZ
    Blend: AUG-CC-PVTZ
  Basis Set: (AUG-CC-PVTZ AUX)
    Blend: AUG-CC-PVTZ-JKFIT

    Orbital Energies [Eh]
    ---------------------

    Doubly Occupied:

       1A    -79.868883     2A    -20.401672     3A    -20.401481
       4A    -20.301028     5A    -20.298502     6A    -11.144487
       7A    -11.143364     8A    -11.104453     9A    -11.103911
      10A     -7.386629    11A     -5.285241    12A     -5.284577
      13A     -5.283400    14A     -1.235875    15A     -1.186457
      16A     -1.110685    17A     -1.062851    18A     -0.893634
      19A     -0.889662    20A     -0.713374    21A     -0.711950
      22A     -0.597717    23A     -0.539182    24A     -0.528436
      25A     -0.505897    26A     -0.456868    27A     -0.448391
      28A     -0.443236    29A     -0.423581    30A     -0.421147
      31A     -0.401847    32A     -0.398488    33A     -0.368273
      34A     -0.361216    35A     -0.332011    36A     -0.306689
      37A     -0.304255    38A     -0.288113    39A     -0.270686
      40A     -0.250618    41A     -0.237035

  @DF-RHF Final Energy:  -797.84100398553130

   => Energetics <=

    Nuclear Repulsion Energy =            615.4536442445102011
    One-Electron Energy =               -2337.1976929729462427
    Two-Electron Energy =                 923.9030447429048536
    Total Energy =                       -797.8410039855313016
  Basis Set: (AUG-CC-PVTZ AUX)
    Blend: AUG-CC-PVTZ-RI
    Molecular point group: c1

    Geometry (in Angstrom), charge = -1, multiplicity = 1:

       Center              X                  Y                   Z               Mass
    ------------   -----------------  -----------------  -----------------  -----------------
         P           -0.001707802694     0.985511616918     0.004257602659    30.973761998420
         O           -1.158129802694    -0.071203383082    -0.543384397341    15.994914619570
         O            1.154714197306    -0.071203383082     0.551899602659    15.994914619570
         O            0.490737197306     1.707387616918    -1.223414397341    15.994914619570
         O           -0.477813302694     1.683435416918     1.191194902659    15.994914619570
         C           -1.800698802694    -0.896198383082     0.445292602659    12.000000000000
         C            1.797283197306    -0.896198383082    -0.436777397341    12.000000000000
         C           -2.708051802694    -1.866400383082    -0.280187397341    12.000000000000
         C            2.704636197306    -1.866401383082     0.288702602659    12.000000000000
         H           -1.040374802694    -1.432069383082     1.024792602659     1.007825032230
         H           -2.368735802694    -0.263583383082     1.135365602659     1.007825032230
         H            1.036958197306    -1.432070383082    -1.016277397341     1.007825032230
         H            2.365320197306    -0.263583383082    -1.126850397341     1.007825032230
         H           -3.225459802694    -2.510869383082     0.436763602659     1.007825032230
         H           -3.457070802694    -1.324446383082    -0.862852397341     1.007825032230
         H           -2.127737802694    -2.496595383082    -0.958658397341     1.007825032230
         H            3.222044197306    -2.510869383082    -0.428248397341     1.007825032230
         H            3.453655197306    -1.324446383082     0.871367602659     1.007825032230
         H            2.124322197306    -2.496595383082     0.967173602659     1.007825032230

  Basis Set: AUG-CC-PVTZ
    Blend: AUG-CC-PVTZ
  Basis Set: (AUG-CC-PVTZ AUX)
    Blend: AUG-CC-PVTZ-JKFIT
	 Reference Energy          =    -797.8410039855313016 [Eh]
	 Singles Energy            =      -0.0000000000000000 [Eh]
	 Same-Spin Energy          =      -0.4968409486356263 [Eh]
	 Opposite-Spin Energy      =      -1.5423695937751889 [Eh]
	 Correlation Energy        =      -2.0392105424108151 [Eh]
	 Total Energy              =    -799.8802145279421438 [Eh]

	 ================> DF-SCS-MP2 Energies <==================
	-----------------------------------------------------------
	 SCS Same-Spin Scale       =       0.3333333333333333 [-]
	 SCS Opposite-Spin Scale   =       1.2000000000000000 [-]
	 SCS Same-Spin Energy      =      -0.1656136495452088 [Eh]
	 SCS Opposite-Spin Energy  =      -1.8508435125302265 [Eh]
	 SCS Correlation Energy    =      -2.0164571620754352 [Eh]
	 SCS Total Energy          =    -799.8574611476067275 [Eh]
	-----------------------------------------------------------

  Dipole Moment: [D]
     X:    -0.0999      Y:    -7.3962      Z:     0.2318     Total:     7.4005

*** Psi4 exiting successfully. Buy a developer a beer!
