                               Psi4 1.3.2 release

  ==> Input File <==

--------------------------------------------------------------------------
#psi4
#
memory 32 gb

molecule  {
-1 1
  P       -0.0010900    -1.0890910     0.0004590
  O       -1.1524220    -0.0281740     0.5594010
  O        1.1407896    -0.0477843    -0.6124092
  O        0.5034080    -1.8082920     1.2241620
  O       -0.4725285    -1.7799123    -1.2523583
  C       -1.8201030     0.7715450    -0.4363210
  C        1.8136140     0.7766970     0.4358730
  C       -2.6746040     1.7890640     0.2877210
  C        2.6862580     1.7776730    -0.2896530
  H       -1.0739810     1.2667980    -1.0678550
  H       -2.4287840     0.1238470    -1.0755890
  H        1.0642060     1.2858700     1.0522800
  H        2.4084330     0.1312990     1.0903160
  H       -3.2148500     2.4129370    -0.4309050
  H       -3.4044660     1.2870150     0.9274370
  H       -2.0509410     2.4359130     0.9094240
  H        3.2222650     2.4062160     0.4280610
  H        3.4201870     1.2611760    -0.9129680
  H        2.0763540     2.4215040    -0.9279010
units angstrom
no_reorient  #important for SAPT in psi4, default
symmetry c1  #important for SAPT in psi4, default
}

set PROPERTIES_ORIGIN ["COM"]
properties('MP2/aug-cc-pvtz', properties = ['dipole'])
--------------------------------------------------------------------------

    Molecular point group: c1
  Charge       = -1
  Multiplicity = 1
  Basis Set: AUG-CC-PVTZ
    Blend: AUG-CC-PVTZ
  Basis Set: (AUG-CC-PVTZ AUX)
    Blend: AUG-CC-PVTZ-JKFIT

    Orbital Energies [Eh]
    ---------------------

    Doubly Occupied:

       1A    -79.877299     2A    -20.405618     3A    -20.404329
       4A    -20.306357     5A    -20.298806     6A    -11.148308
       7A    -11.144623     8A    -11.106030     9A    -11.104966
      10A     -7.392950    11A     -5.291757    12A     -5.290995
      13A     -5.289510    14A     -1.229841    15A     -1.178710
      16A     -1.096039    17A     -1.058971    18A     -0.895206
      19A     -0.891526    20A     -0.713410    21A     -0.712107
      22A     -0.595496    23A     -0.534259    24A     -0.526583
      25A     -0.505430    26A     -0.455532    27A     -0.450006
      28A     -0.438969    29A     -0.422897    30A     -0.419578
      31A     -0.398669    32A     -0.396826    33A     -0.367085
      34A     -0.362725    35A     -0.331055    36A     -0.310372
      37A     -0.306608    38A     -0.282740    39A     -0.265408
      40A     -0.249200    41A     -0.235590

  @DF-RHF Final Energy:  -797.83263846464695

   => Energetics <=

    Nuclear Repulsion Energy =            612.4017115509853966
    One-Electron Energy =               -2331.0839263743432639
    Two-Electron Energy =                 920.8495763587108058
    Total Energy =                       -797.8326384646469478
  Basis Set: (AUG-CC-PVTZ AUX)
    Blend: AUG-CC-PVTZ-RI
    Molecular point group: c1

    Geometry (in Angstrom), charge = -1, multiplicity = 1:

       Center              X                  Y                   Z               Mass
    ------------   -----------------  -----------------  -----------------  -----------------
         P           -0.003407438471    -0.985770818619     0.009090953983    30.973761998420
         O           -1.154739438471     0.075146181381     0.568032953983    15.994914619570
         O            1.138472161529     0.055535881381    -0.603777246017    15.994914619570
         O            0.501090561529    -1.704971818619     1.232793953983    15.994914619570
         O           -0.474845938471    -1.676592118619    -1.243726346017    15.994914619570
         C           -1.822420438471     0.874865181381    -0.427689046017    12.000000000000
         C            1.811296561529     0.880017181381     0.444504953983    12.000000000000
         C           -2.676921438471     1.892384181381     0.296352953983    12.000000000000
         C            2.683940561529     1.880993181381    -0.281021046017    12.000000000000
         H           -1.076298438471     1.370118181381    -1.059223046017     1.007825032230
         H           -2.431101438471     0.227167181381    -1.066957046017     1.007825032230
         H            1.061888561529     1.389190181381     1.060911953983     1.007825032230
         H            2.406115561529     0.234619181381     1.098947953983     1.007825032230
         H           -3.217167438471     2.516257181381    -0.422273046017     1.007825032230
         H           -3.406783438471     1.390335181381     0.936068953983     1.007825032230
         H           -2.053258438471     2.539233181381     0.918055953983     1.007825032230
         H            3.219947561529     2.509536181381     0.436692953983     1.007825032230
         H            3.417869561529     1.364496181381    -0.904336046017     1.007825032230
         H            2.074036561529     2.524824181381    -0.919269046017     1.007825032230

  Basis Set: AUG-CC-PVTZ
    Blend: AUG-CC-PVTZ
  Basis Set: (AUG-CC-PVTZ AUX)
    Blend: AUG-CC-PVTZ-JKFIT
	 Reference Energy          =    -797.8326384646469478 [Eh]
	 Singles Energy            =      -0.0000000000000000 [Eh]
	 Same-Spin Energy          =      -0.4984595715536265 [Eh]
	 Opposite-Spin Energy      =      -1.5470282973527900 [Eh]
	 Correlation Energy        =      -2.0454878689064167 [Eh]
	 Total Energy              =    -799.8781263335533822 [Eh]

	 ================> DF-SCS-MP2 Energies <==================
	-----------------------------------------------------------
	 SCS Same-Spin Scale       =       0.3333333333333333 [-]
	 SCS Opposite-Spin Scale   =       1.2000000000000000 [-]
	 SCS Same-Spin Energy      =      -0.1661531905178755 [Eh]
	 SCS Opposite-Spin Energy  =      -1.8564339568233479 [Eh]
	 SCS Correlation Energy    =      -2.0225871473412234 [Eh]
	 SCS Total Energy          =    -799.8552256119882031 [Eh]
	-----------------------------------------------------------

  Dipole Moment: [D]
     X:     0.0054      Y:     7.5282      Z:     0.2122     Total:     7.5312

*** Psi4 exiting successfully. Buy a developer a beer!
