                               Psi4 1.3.2 release

  ==> Input File <==

--------------------------------------------------------------------------
#psi4
#
memory 32 gb

molecule  {
-1 1
  P       -0.0010900    -1.0890910     0.0004590
  O       -1.1524220    -0.0281740     0.5594010
  O        1.0121022    -0.1561228    -0.4913120
  O        0.5034080    -1.8082920     1.2241620
  O       -0.5057790    -1.8082590    -1.2231120
  C       -1.8201030     0.7715450    -0.4363210
  C        1.8136140     0.7766970     0.4358730
  C       -2.6746040     1.7890640     0.2877210
  C        2.6862580     1.7776730    -0.2896530
  H       -1.0739810     1.2667980    -1.0678550
  H       -2.4287840     0.1238470    -1.0755890
  H        1.0642060     1.2858700     1.0522800
  H        2.4084330     0.1312990     1.0903160
  H       -3.2148500     2.4129370    -0.4309050
  H       -3.4044660     1.2870150     0.9274370
  H       -2.0509410     2.4359130     0.9094240
  H        3.2222650     2.4062160     0.4280610
  H        3.4201870     1.2611760    -0.9129680
  H        2.0763540     2.4215040    -0.9279010
units angstrom
no_reorient  #important for SAPT in psi4, default
symmetry c1  #important for SAPT in psi4, default
}

set PROPERTIES_ORIGIN ["COM"]
properties('MP2/aug-cc-pvtz', properties = ['dipole'])
--------------------------------------------------------------------------

    Molecular point group: c1
  Charge       = -1
  Multiplicity = 1
  Basis Set: AUG-CC-PVTZ
    Blend: AUG-CC-PVTZ
  Basis Set: (AUG-CC-PVTZ AUX)
    Blend: AUG-CC-PVTZ-JKFIT

    Orbital Energies [Eh]
    ---------------------

    Doubly Occupied:

       1A    -79.846702     2A    -20.403320     3A    -20.387741
       4A    -20.282660     5A    -20.282404     6A    -11.173137
       7A    -11.138067     8A    -11.124820     9A    -11.100557
      10A     -7.367778    11A     -5.267605    12A     -5.265391
      13A     -5.263784    14A     -1.262217    15A     -1.181678
      16A     -1.078015    17A     -1.042508    18A     -0.919524
      19A     -0.886509    20A     -0.737990    21A     -0.706691
      22A     -0.597710    23A     -0.545501    24A     -0.528805
      25A     -0.507793    26A     -0.471709    27A     -0.456164
      28A     -0.447586    29A     -0.429567    30A     -0.424710
      31A     -0.399194    32A     -0.392347    33A     -0.382615
      34A     -0.366248    35A     -0.319511    36A     -0.312716
      37A     -0.299894    38A     -0.270441    39A     -0.250411
      40A     -0.232093    41A     -0.216593

  @DF-RHF Final Energy:  -797.81016816112162

   => Energetics <=

    Nuclear Repulsion Energy =            619.1994323620393743
    One-Electron Energy =               -2344.8777863736172549
    Two-Electron Energy =                 927.8681858504563706
    Total Energy =                       -797.8101681611216236
  Basis Set: (AUG-CC-PVTZ AUX)
    Blend: AUG-CC-PVTZ-RI
    Molecular point group: c1

    Geometry (in Angstrom), charge = -1, multiplicity = 1:

       Center              X                  Y                   Z               Mass
    ------------   -----------------  -----------------  -----------------  -----------------
         P            0.013518357808    -0.971484441869    -0.006622992245    30.973761998420
         O           -1.137813642192     0.089432558131     0.552319007755    15.994914619570
         O            1.026710557808    -0.038516241869    -0.498393992245    15.994914619570
         O            0.518016357808    -1.690685441869     1.217080007755    15.994914619570
         O           -0.491170642192    -1.690652441869    -1.230193992245    15.994914619570
         C           -1.805494642192     0.889151558131    -0.443402992245    12.000000000000
         C            1.828222357808     0.894303558131     0.428791007755    12.000000000000
         C           -2.659995642192     1.906670558131     0.280639007755    12.000000000000
         C            2.700866357808     1.895279558131    -0.296734992245    12.000000000000
         H           -1.059372642192     1.384404558131    -1.074936992245     1.007825032230
         H           -2.414175642192     0.241453558131    -1.082670992245     1.007825032230
         H            1.078814357808     1.403476558131     1.045198007755     1.007825032230
         H            2.423041357808     0.248905558131     1.083234007755     1.007825032230
         H           -3.200241642192     2.530543558131    -0.437986992245     1.007825032230
         H           -3.389857642192     1.404621558131     0.920355007755     1.007825032230
         H           -2.036332642192     2.553519558131     0.902342007755     1.007825032230
         H            3.236873357808     2.523822558131     0.420979007755     1.007825032230
         H            3.434795357808     1.378782558131    -0.920049992245     1.007825032230
         H            2.090962357808     2.539110558131    -0.934982992245     1.007825032230

  Basis Set: AUG-CC-PVTZ
    Blend: AUG-CC-PVTZ
  Basis Set: (AUG-CC-PVTZ AUX)
    Blend: AUG-CC-PVTZ-JKFIT
	 Reference Energy          =    -797.8101681611216236 [Eh]
	 Singles Energy            =      -0.0000000000000000 [Eh]
	 Same-Spin Energy          =      -0.4960741770097831 [Eh]
	 Opposite-Spin Energy      =      -1.5404625480686900 [Eh]
	 Correlation Energy        =      -2.0365367250784732 [Eh]
	 Total Energy              =    -799.8467048862000865 [Eh]

	 ================> DF-SCS-MP2 Energies <==================
	-----------------------------------------------------------
	 SCS Same-Spin Scale       =       0.3333333333333333 [-]
	 SCS Opposite-Spin Scale   =       1.2000000000000000 [-]
	 SCS Same-Spin Energy      =      -0.1653580590032610 [Eh]
	 SCS Opposite-Spin Energy  =      -1.8485550576824279 [Eh]
	 SCS Correlation Energy    =      -2.0139131166856887 [Eh]
	 SCS Total Energy          =    -799.8240812778072950 [Eh]
	-----------------------------------------------------------

  Dipole Moment: [D]
     X:     1.2452      Y:     8.5486      Z:    -0.1351     Total:     8.6399

*** Psi4 exiting successfully. Buy a developer a beer!
