                               Psi4 1.3.2 release

  ==> Input File <==

--------------------------------------------------------------------------
#psi4
#
memory 32 gb

molecule  {
-1 1
  P       -0.0010900    -1.0890910     0.0004590
  O       -1.1524220    -0.0281740     0.5594010
  O        1.1506610    -0.0285350    -0.5585640
  O        0.5034080    -1.8082920     1.2241620
  O       -0.5057790    -1.8082590    -1.2231120
  C       -1.8201030     0.7715450    -0.4363210
  C        1.8136140     0.7766970     0.4358730
  C       -2.6746040     1.7890640     0.2877210
  C        2.6862580     1.7776730    -0.2896530
  H       -1.0739810     1.2667980    -1.0678550
  H       -2.4287840     0.1238470    -1.0755890
  H        1.1325937     1.2394051     0.9960294
  H        2.4084330     0.1312990     1.0903160
  H       -3.2148500     2.4129370    -0.4309050
  H       -3.4044660     1.2870150     0.9274370
  H       -2.0509410     2.4359130     0.9094240
  H        3.2222650     2.4062160     0.4280610
  H        3.4201870     1.2611760    -0.9129680
  H        2.0763540     2.4215040    -0.9279010
units angstrom
no_reorient  #important for SAPT in psi4, default
symmetry c1  #important for SAPT in psi4, default
}

set PROPERTIES_ORIGIN ["COM"]
properties('MP2/aug-cc-pvtz', properties = ['dipole'])
--------------------------------------------------------------------------

    Molecular point group: c1
  Charge       = -1
  Multiplicity = 1
  Basis Set: AUG-CC-PVTZ
    Blend: AUG-CC-PVTZ
  Basis Set: (AUG-CC-PVTZ AUX)
    Blend: AUG-CC-PVTZ-JKFIT

    Orbital Energies [Eh]
    ---------------------

    Doubly Occupied:

       1A    -79.878857     2A    -20.404731     3A    -20.402799
       4A    -20.303500     5A    -20.303320     6A    -11.145006
       7A    -11.132326     8A    -11.105091     9A    -11.104142
      10A     -7.394379    11A     -5.293235    12A     -5.292349
      13A     -5.290984    14A     -1.234788    15A     -1.187414
      16A     -1.098982    17A     -1.059178    18A     -0.896760
      19A     -0.891797    20A     -0.724364    21A     -0.713658
      22A     -0.602636    23A     -0.539494    24A     -0.531915
      25A     -0.511705    26A     -0.457926    27A     -0.449038
      28A     -0.442227    29A     -0.423432    30A     -0.422540
      31A     -0.402481    32A     -0.400611    33A     -0.366673
      34A     -0.363834    35A     -0.330655    36A     -0.310283
      37A     -0.305939    38A     -0.284006    39A     -0.266309
      40A     -0.250552    41A     -0.236196

  @DF-RHF Final Energy:  -797.83296150857177

   => Energetics <=

    Nuclear Repulsion Energy =            613.5515043379214148
    One-Electron Energy =               -2333.2567072516030748
    Two-Electron Energy =                 921.8722414051098895
    Total Energy =                       -797.8329615085717705
  Basis Set: (AUG-CC-PVTZ AUX)
    Blend: AUG-CC-PVTZ-RI
    Molecular point group: c1

    Geometry (in Angstrom), charge = -1, multiplicity = 1:

       Center              X                  Y                   Z               Mass
    ------------   -----------------  -----------------  -----------------  -----------------
         P           -0.001414230981    -0.984513950517     0.000776657480    30.973761998420
         O           -1.152746230981     0.076403049483     0.559718657480    15.994914619570
         O            1.150336769019     0.076042049483    -0.558246342520    15.994914619570
         O            0.503083769019    -1.703714950517     1.224479657480    15.994914619570
         O           -0.506103230981    -1.703681950517    -1.222794342520    15.994914619570
         C           -1.820427230981     0.876122049483    -0.436003342520    12.000000000000
         C            1.813289769019     0.881274049483     0.436190657480    12.000000000000
         C           -2.674928230981     1.893641049483     0.288038657480    12.000000000000
         C            2.685933769019     1.882250049483    -0.289335342520    12.000000000000
         H           -1.074305230981     1.371375049483    -1.067537342520     1.007825032230
         H           -2.429108230981     0.228424049483    -1.075271342520     1.007825032230
         H            1.132269469019     1.343982149483     0.996347057480     1.007825032230
         H            2.408108769019     0.235876049483     1.090633657480     1.007825032230
         H           -3.215174230981     2.517514049483    -0.430587342520     1.007825032230
         H           -3.404790230981     1.391592049483     0.927754657480     1.007825032230
         H           -2.051265230981     2.540490049483     0.909741657480     1.007825032230
         H            3.221940769019     2.510793049483     0.428378657480     1.007825032230
         H            3.419862769019     1.365753049483    -0.912650342520     1.007825032230
         H            2.076029769019     2.526081049483    -0.927583342520     1.007825032230

  Basis Set: AUG-CC-PVTZ
    Blend: AUG-CC-PVTZ
  Basis Set: (AUG-CC-PVTZ AUX)
    Blend: AUG-CC-PVTZ-JKFIT
	 Reference Energy          =    -797.8329615085717705 [Eh]
	 Singles Energy            =      -0.0000000000000000 [Eh]
	 Same-Spin Energy          =      -0.4977449528924941 [Eh]
	 Opposite-Spin Energy      =      -1.5444541160491365 [Eh]
	 Correlation Energy        =      -2.0421990689416307 [Eh]
	 Total Energy              =    -799.8751605775133839 [Eh]

	 ================> DF-SCS-MP2 Energies <==================
	-----------------------------------------------------------
	 SCS Same-Spin Scale       =       0.3333333333333333 [-]
	 SCS Opposite-Spin Scale   =       1.2000000000000000 [-]
	 SCS Same-Spin Energy      =      -0.1659149842974980 [Eh]
	 SCS Opposite-Spin Energy  =      -1.8533449392589638 [Eh]
	 SCS Correlation Energy    =      -2.0192599235564619 [Eh]
	 SCS Total Energy          =    -799.8522214321282036 [Eh]
	-----------------------------------------------------------

  Dipole Moment: [D]
     X:    -0.0112      Y:     7.5434      Z:     0.0427     Total:     7.5435

*** Psi4 exiting successfully. Buy a developer a beer!
