                               Psi4 1.3.2 release

  ==> Input File <==

--------------------------------------------------------------------------
#psi4
#
memory 32 gb

molecule  {
-1 1
  P       -0.0036690    -1.0846436    -0.0131065
  O       -1.1524220    -0.0281740     0.5594010
  O        1.1506610    -0.0285350    -0.5585640
  O        0.5034080    -1.8082920     1.2241620
  O       -0.5057790    -1.8082590    -1.2231120
  C       -1.8132408     0.7660094    -0.4452890
  C        1.8136140     0.7766970     0.4358730
  C       -2.6746040     1.7890640     0.2877210
  C        2.6862580     1.7776730    -0.2896530
  H       -1.0739810     1.2667980    -1.0678550
  H       -2.4287840     0.1238470    -1.0755890
  H        1.0642060     1.2858700     1.0522800
  H        2.4084330     0.1312990     1.0903160
  H       -3.2148500     2.4129370    -0.4309050
  H       -3.4044660     1.2870150     0.9274370
  H       -2.0509410     2.4359130     0.9094240
  H        3.2222650     2.4062160     0.4280610
  H        3.4201870     1.2611760    -0.9129680
  H        2.0763540     2.4215040    -0.9279010
units angstrom
no_reorient  #important for SAPT in psi4, default
symmetry c1  #important for SAPT in psi4, default
}

set PROPERTIES_ORIGIN ["COM"]
properties('MP2/aug-cc-pvtz', properties = ['dipole'])
--------------------------------------------------------------------------

    Molecular point group: c1
  Charge       = -1
  Multiplicity = 1
  Basis Set: AUG-CC-PVTZ
    Blend: AUG-CC-PVTZ
  Basis Set: (AUG-CC-PVTZ AUX)
    Blend: AUG-CC-PVTZ-JKFIT

    Orbital Energies [Eh]
    ---------------------

    Doubly Occupied:

       1A    -79.879197     2A    -20.405650     3A    -20.405390
       4A    -20.305596     5A    -20.300562     6A    -11.145536
       7A    -11.144857     8A    -11.105325     9A    -11.105234
      10A     -7.394734    11A     -5.293595    12A     -5.292713
      13A     -5.291308    14A     -1.236477    15A     -1.189086
      16A     -1.099229    17A     -1.056778    18A     -0.894311
      19A     -0.889234    20A     -0.715287    21A     -0.714196
      22A     -0.600828    23A     -0.539562    24A     -0.530252
      25A     -0.507770    26A     -0.458500    27A     -0.449228
      28A     -0.441852    29A     -0.423848    30A     -0.422704
      31A     -0.401417    32A     -0.400151    33A     -0.366478
      34A     -0.360573    35A     -0.330425    36A     -0.309458
      37A     -0.306848    38A     -0.283638    39A     -0.267210
      40A     -0.248768    41A     -0.235077

  @DF-RHF Final Energy:  -797.83806026244713

   => Energetics <=

    Nuclear Repulsion Energy =            613.2222599521356869
    One-Electron Energy =               -2332.6228734447054194
    Two-Electron Energy =                 921.5625532301227167
    Total Energy =                       -797.8380602624471294
  Basis Set: (AUG-CC-PVTZ AUX)
    Blend: AUG-CC-PVTZ-RI
    Molecular point group: c1

    Geometry (in Angstrom), charge = -1, multiplicity = 1:

       Center              X                  Y                   Z               Mass
    ------------   -----------------  -----------------  -----------------  -----------------
         P           -0.003558956378    -0.980838639052    -0.009710396058    30.973761998420
         O           -1.152311956378     0.075630960948     0.562797103942    15.994914619570
         O            1.150771043622     0.075269960948    -0.555167896058    15.994914619570
         O            0.503518043622    -1.704487039052     1.227558103942    15.994914619570
         O           -0.505668956378    -1.704454039052    -1.219715896058    15.994914619570
         C           -1.813130756378     0.869814360948    -0.441892896058    12.000000000000
         C            1.813724043622     0.880501960948     0.439269103942    12.000000000000
         C           -2.674493956378     1.892868960948     0.291117103942    12.000000000000
         C            2.686368043622     1.881477960948    -0.286256896058    12.000000000000
         H           -1.073870956378     1.370602960948    -1.064458896058     1.007825032230
         H           -2.428673956378     0.227651960948    -1.072192896058     1.007825032230
         H            1.064316043622     1.389674960948     1.055676103942     1.007825032230
         H            2.408543043622     0.235103960948     1.093712103942     1.007825032230
         H           -3.214739956378     2.516741960948    -0.427508896058     1.007825032230
         H           -3.404355956378     1.390819960948     0.930833103942     1.007825032230
         H           -2.050830956378     2.539717960948     0.912820103942     1.007825032230
         H            3.222375043622     2.510020960948     0.431457103942     1.007825032230
         H            3.420297043622     1.364980960948    -0.909571896058     1.007825032230
         H            2.076464043622     2.525308960948    -0.924504896058     1.007825032230

  Basis Set: AUG-CC-PVTZ
    Blend: AUG-CC-PVTZ
  Basis Set: (AUG-CC-PVTZ AUX)
    Blend: AUG-CC-PVTZ-JKFIT
	 Reference Energy          =    -797.8380602624471294 [Eh]
	 Singles Energy            =      -0.0000000000000000 [Eh]
	 Same-Spin Energy          =      -0.4978877492663923 [Eh]
	 Opposite-Spin Energy      =      -1.5451461519389174 [Eh]
	 Correlation Energy        =      -2.0430339012053098 [Eh]
	 Total Energy              =    -799.8810941636523921 [Eh]

	 ================> DF-SCS-MP2 Energies <==================
	-----------------------------------------------------------
	 SCS Same-Spin Scale       =       0.3333333333333333 [-]
	 SCS Opposite-Spin Scale   =       1.2000000000000000 [-]
	 SCS Same-Spin Energy      =      -0.1659625830887974 [Eh]
	 SCS Opposite-Spin Energy  =      -1.8541753823267006 [Eh]
	 SCS Correlation Energy    =      -2.0201379654154983 [Eh]
	 SCS Total Energy          =    -799.8581982278626583 [Eh]
	-----------------------------------------------------------

  Dipole Moment: [D]
     X:    -0.0126      Y:     7.5428      Z:    -0.1599     Total:     7.5445

*** Psi4 exiting successfully. Buy a developer a beer!
