                               Psi4 1.3.2 release

  ==> Input File <==

--------------------------------------------------------------------------
#psi4
#
memory 32 gb

molecule  {
-1 1
  P       -0.0010900    -1.0890910     0.0004590
  O       -1.1524220    -0.0281740     0.5594010
  O        1.1327244    -0.0207533    -0.5800025
  O        0.4806768    -1.8214316     1.2255285
  O       -0.5057790    -1.8082590    -1.2231120
  C       -1.8201030     0.7715450    -0.4363210
  C        1.8136140     0.7766970     0.4358730
  C       -2.6746040     1.7890640     0.2877210
  C        2.6862580     1.7776730    -0.2896530
  H       -1.0739810     1.2667980    -1.0678550
  H       -2.4287840     0.1238470    -1.0755890
  H        1.0642060     1.2858700     1.0522800
  H        2.4084330     0.1312990     1.0903160
  H       -3.2148500     2.4129370    -0.4309050
  H       -3.4044660     1.2870150     0.9274370
  H       -2.0509410     2.4359130     0.9094240
  H        3.2222650     2.4062160     0.4280610
  H        3.4201870     1.2611760    -0.9129680
  H        2.0763540     2.4215040    -0.9279010
units angstrom
no_reorient  #important for SAPT in psi4, default
symmetry c1  #important for SAPT in psi4, default
}

set PROPERTIES_ORIGIN ["COM"]
properties('MP2/aug-cc-pvtz', properties = ['dipole'])
--------------------------------------------------------------------------

    Molecular point group: c1
  Charge       = -1
  Multiplicity = 1
  Basis Set: AUG-CC-PVTZ
    Blend: AUG-CC-PVTZ
  Basis Set: (AUG-CC-PVTZ AUX)
    Blend: AUG-CC-PVTZ-JKFIT

    Orbital Energies [Eh]
    ---------------------

    Doubly Occupied:

       1A    -79.878338     2A    -20.407058     3A    -20.403153
       4A    -20.304673     5A    -20.301035     6A    -11.147861
       7A    -11.143811     8A    -11.106398     9A    -11.104304
      10A     -7.393932    11A     -5.292783    12A     -5.291866
      13A     -5.290551    14A     -1.233179    15A     -1.184734
      16A     -1.098377    17A     -1.058316    18A     -0.895508
      19A     -0.890800    20A     -0.714427    21A     -0.712602
      22A     -0.598625    23A     -0.537426    24A     -0.528884
      25A     -0.506420    26A     -0.457367    27A     -0.449560
      28A     -0.441407    29A     -0.423276    30A     -0.421931
      31A     -0.400460    32A     -0.398481    33A     -0.366882
      34A     -0.361744    35A     -0.331044    36A     -0.309576
      37A     -0.305469    38A     -0.283831    39A     -0.266484
      40A     -0.249755    41A     -0.235281

  @DF-RHF Final Energy:  -797.83684982888985

   => Energetics <=

    Nuclear Repulsion Energy =            612.7846907361720241
    One-Electron Energy =               -2331.7878610475158894
    Two-Electron Energy =                 921.1663204824540117
    Total Energy =                       -797.8368498288898536
  Basis Set: (AUG-CC-PVTZ AUX)
    Blend: AUG-CC-PVTZ-RI
    Molecular point group: c1

    Geometry (in Angstrom), charge = -1, multiplicity = 1:

       Center              X                  Y                   Z               Mass
    ------------   -----------------  -----------------  -----------------  -----------------
         P            0.003286762094    -0.984259946470     0.002504137563    30.973761998420
         O           -1.148045237906     0.076657053530     0.561446137563    15.994914619570
         O            1.137101162094     0.084077753530    -0.577957362437    15.994914619570
         O            0.485053562094    -1.716600546470     1.227573637563    15.994914619570
         O           -0.501402237906    -1.703427946470    -1.221066862437    15.994914619570
         C           -1.815726237906     0.876376053530    -0.434275862437    12.000000000000
         C            1.817990762094     0.881528053530     0.437918137563    12.000000000000
         C           -2.670227237906     1.893895053530     0.289766137563    12.000000000000
         C            2.690634762094     1.882504053530    -0.287607862437    12.000000000000
         H           -1.069604237906     1.371629053530    -1.065809862437     1.007825032230
         H           -2.424407237906     0.228678053530    -1.073543862437     1.007825032230
         H            1.068582762094     1.390701053530     1.054325137563     1.007825032230
         H            2.412809762094     0.236130053530     1.092361137563     1.007825032230
         H           -3.210473237906     2.517768053530    -0.428859862437     1.007825032230
         H           -3.400089237906     1.391846053530     0.929482137563     1.007825032230
         H           -2.046564237906     2.540744053530     0.911469137563     1.007825032230
         H            3.226641762094     2.511047053530     0.430106137563     1.007825032230
         H            3.424563762094     1.366007053530    -0.910922862437     1.007825032230
         H            2.080730762094     2.526335053530    -0.925855862437     1.007825032230

  Basis Set: AUG-CC-PVTZ
    Blend: AUG-CC-PVTZ
  Basis Set: (AUG-CC-PVTZ AUX)
    Blend: AUG-CC-PVTZ-JKFIT
	 Reference Energy          =    -797.8368498288898536 [Eh]
	 Singles Energy            =      -0.0000000000000000 [Eh]
	 Same-Spin Energy          =      -0.4980650694549716 [Eh]
	 Opposite-Spin Energy      =      -1.5457170539796394 [Eh]
	 Correlation Energy        =      -2.0437821234346112 [Eh]
	 Total Energy              =    -799.8806319523245065 [Eh]

	 ================> DF-SCS-MP2 Energies <==================
	-----------------------------------------------------------
	 SCS Same-Spin Scale       =       0.3333333333333333 [-]
	 SCS Opposite-Spin Scale   =       1.2000000000000000 [-]
	 SCS Same-Spin Energy      =      -0.1660216898183239 [Eh]
	 SCS Opposite-Spin Energy  =      -1.8548604647755673 [Eh]
	 SCS Correlation Energy    =      -2.0208821545938913 [Eh]
	 SCS Total Energy          =    -799.8577319834837454 [Eh]
	-----------------------------------------------------------

  Dipole Moment: [D]
     X:     0.1521      Y:     7.5593      Z:     0.0579     Total:     7.5611

*** Psi4 exiting successfully. Buy a developer a beer!
