                               Psi4 1.3.2 release

  ==> Input File <==

--------------------------------------------------------------------------
#psi4
#
memory 32 gb

molecule  {
-1 1
  P       -0.0010900    -1.0890910     0.0004590
  O       -1.1184111     0.0158454     0.5428939
  O        1.1166632     0.0154990    -0.5420582
  O        0.5034080    -1.8082920     1.2241620
  O       -0.5057790    -1.8082590    -1.2231120
  C       -1.8201030     0.7715450    -0.4363210
  C        1.8136140     0.7766970     0.4358730
  C       -2.6746040     1.7890640     0.2877210
  C        2.6862580     1.7776730    -0.2896530
  H       -1.0739810     1.2667980    -1.0678550
  H       -2.4287840     0.1238470    -1.0755890
  H        1.0642060     1.2858700     1.0522800
  H        2.4084330     0.1312990     1.0903160
  H       -3.2148500     2.4129370    -0.4309050
  H       -3.4044660     1.2870150     0.9274370
  H       -2.0509410     2.4359130     0.9094240
  H        3.2222650     2.4062160     0.4280610
  H        3.4201870     1.2611760    -0.9129680
  H        2.0763540     2.4215040    -0.9279010
units angstrom
no_reorient  #important for SAPT in psi4, default
symmetry c1  #important for SAPT in psi4, default
}

set PROPERTIES_ORIGIN ["COM"]
properties('MP2/aug-cc-pvtz', properties = ['dipole'])
--------------------------------------------------------------------------

    Molecular point group: c1
  Charge       = -1
  Multiplicity = 1
  Basis Set: AUG-CC-PVTZ
    Blend: AUG-CC-PVTZ
  Basis Set: (AUG-CC-PVTZ AUX)
    Blend: AUG-CC-PVTZ-JKFIT

    Orbital Energies [Eh]
    ---------------------

    Doubly Occupied:

       1A    -79.881483     2A    -20.401250     3A    -20.401220
       4A    -20.307755     5A    -20.307713     6A    -11.141846
       7A    -11.141764     8A    -11.103077     9A    -11.103047
      10A     -7.396925    11A     -5.295901    12A     -5.294776
      13A     -5.293576    14A     -1.240283    15A     -1.190503
      16A     -1.103620    17A     -1.062650    18A     -0.893050
      19A     -0.887958    20A     -0.713978    21A     -0.711752
      22A     -0.602176    23A     -0.540730    24A     -0.531317
      25A     -0.504866    26A     -0.460952    27A     -0.448481
      28A     -0.443937    29A     -0.422877    30A     -0.422833
      31A     -0.403501    32A     -0.397596    33A     -0.366534
      34A     -0.357441    35A     -0.332360    36A     -0.304880
      37A     -0.298766    38A     -0.287813    39A     -0.269655
      40A     -0.254225    41A     -0.240103

  @DF-RHF Final Energy:  -797.83954863774409

   => Energetics <=

    Nuclear Repulsion Energy =            614.4623674393083093
    One-Electron Energy =               -2335.0735000130393928
    Two-Electron Energy =                 922.7715839359869960
    Total Energy =                       -797.8395486377440875
  Basis Set: (AUG-CC-PVTZ AUX)
    Blend: AUG-CC-PVTZ-RI
    Molecular point group: c1

    Geometry (in Angstrom), charge = -1, multiplicity = 1:

       Center              X                  Y                   Z               Mass
    ------------   -----------------  -----------------  -----------------  -----------------
         P           -0.000965217373    -0.994023322641     0.000406342178    30.973761998420
         O           -1.118286317373     0.110913077359     0.542841242178    15.994914619570
         O            1.116787982627     0.110566677359    -0.542110857822    15.994914619570
         O            0.503532782627    -1.713224322641     1.224109342178    15.994914619570
         O           -0.505654217373    -1.713191322641    -1.223164657822    15.994914619570
         C           -1.819978217373     0.866612677359    -0.436373657822    12.000000000000
         C            1.813738782627     0.871764677359     0.435820342178    12.000000000000
         C           -2.674479217373     1.884131677359     0.287668342178    12.000000000000
         C            2.686382782627     1.872740677359    -0.289705657822    12.000000000000
         H           -1.073856217373     1.361865677359    -1.067907657822     1.007825032230
         H           -2.428659217373     0.218914677359    -1.075641657822     1.007825032230
         H            1.064330782627     1.380937677359     1.052227342178     1.007825032230
         H            2.408557782627     0.226366677359     1.090263342178     1.007825032230
         H           -3.214725217373     2.508004677359    -0.430957657822     1.007825032230
         H           -3.404341217373     1.382082677359     0.927384342178     1.007825032230
         H           -2.050816217373     2.530980677359     0.909371342178     1.007825032230
         H            3.222389782627     2.501283677359     0.428008342178     1.007825032230
         H            3.420311782627     1.356243677359    -0.913020657822     1.007825032230
         H            2.076478782627     2.516571677359    -0.927953657822     1.007825032230

  Basis Set: AUG-CC-PVTZ
    Blend: AUG-CC-PVTZ
  Basis Set: (AUG-CC-PVTZ AUX)
    Blend: AUG-CC-PVTZ-JKFIT
	 Reference Energy          =    -797.8395486377440875 [Eh]
	 Singles Energy            =      -0.0000000000000000 [Eh]
	 Same-Spin Energy          =      -0.4978744308939848 [Eh]
	 Opposite-Spin Energy      =      -1.5443251319846596 [Eh]
	 Correlation Energy        =      -2.0421995628786442 [Eh]
	 Total Energy              =    -799.8817482006227237 [Eh]

	 ================> DF-SCS-MP2 Energies <==================
	-----------------------------------------------------------
	 SCS Same-Spin Scale       =       0.3333333333333333 [-]
	 SCS Opposite-Spin Scale   =       1.2000000000000000 [-]
	 SCS Same-Spin Energy      =      -0.1659581436313282 [Eh]
	 SCS Opposite-Spin Energy  =      -1.8531901583815915 [Eh]
	 SCS Correlation Energy    =      -2.0191483020129199 [Eh]
	 SCS Total Energy          =    -799.8586969397570101 [Eh]
	-----------------------------------------------------------

  Dipole Moment: [D]
     X:    -0.0010      Y:     7.2254      Z:    -0.0035     Total:     7.2254

*** Psi4 exiting successfully. Buy a developer a beer!
