                               Psi4 1.3.2 release

  ==> Input File <==

--------------------------------------------------------------------------
#psi4
#
memory 32 gb

molecule  {
-1 1
  P       -0.0010900    -1.0890910     0.0004590
  O       -1.1524220    -0.0281740     0.5594010
  O        1.1284310    -0.0209838    -0.5495405
  O        0.5034080    -1.8082920     1.2241620
  O       -0.5057790    -1.8082590    -1.2231120
  C       -1.8201030     0.7715450    -0.4363210
  C        1.8136140     0.7766970     0.4358730
  C       -2.6746040     1.7890640     0.2877210
  C        2.6862580     1.7776730    -0.2896530
  H       -1.0739810     1.2667980    -1.0678550
  H       -2.4287840     0.1238470    -1.0755890
  H        1.0503674     1.2775990     1.0419909
  H        2.4084330     0.1312990     1.0903160
  H       -3.2148500     2.4129370    -0.4309050
  H       -3.4044660     1.2870150     0.9274370
  H       -2.0509410     2.4359130     0.9094240
  H        3.2222650     2.4062160     0.4280610
  H        3.4201870     1.2611760    -0.9129680
  H        2.0763540     2.4215040    -0.9279010
units angstrom
no_reorient  #important for SAPT in psi4, default
symmetry c1  #important for SAPT in psi4, default
}

set PROPERTIES_ORIGIN ["COM"]
properties('MP2/aug-cc-pvtz', properties = ['dipole'])
--------------------------------------------------------------------------

    Molecular point group: c1
  Charge       = -1
  Multiplicity = 1
  Basis Set: AUG-CC-PVTZ
    Blend: AUG-CC-PVTZ
  Basis Set: (AUG-CC-PVTZ AUX)
    Blend: AUG-CC-PVTZ-JKFIT

    Orbital Energies [Eh]
    ---------------------

    Doubly Occupied:

       1A    -79.877756     2A    -20.404067     3A    -20.402734
       4A    -20.303036     5A    -20.302994     6A    -11.145893
       7A    -11.144013     8A    -11.106036     9A    -11.104346
      10A     -7.393467    11A     -5.292372    12A     -5.291427
      13A     -5.290075    14A     -1.236740    15A     -1.187686
      16A     -1.098592    17A     -1.058873    18A     -0.895227
      19A     -0.890587    20A     -0.715451    21A     -0.712568
      22A     -0.599839    23A     -0.539388    24A     -0.529974
      25A     -0.506697    26A     -0.459284    27A     -0.448912
      28A     -0.442900    29A     -0.423901    30A     -0.423277
      31A     -0.401077    32A     -0.398955    33A     -0.367153
      34A     -0.360530    35A     -0.329739    36A     -0.307851
      37A     -0.304826    38A     -0.284164    39A     -0.266348
      40A     -0.250218    41A     -0.235835

  @DF-RHF Final Energy:  -797.83923726966214

   => Energetics <=

    Nuclear Repulsion Energy =            613.7430736538121891
    One-Electron Energy =               -2333.6950034889887320
    Two-Electron Energy =                 922.1126925655144078
    Total Energy =                       -797.8392372696621351
  Basis Set: (AUG-CC-PVTZ AUX)
    Blend: AUG-CC-PVTZ-RI
    Molecular point group: c1

    Geometry (in Angstrom), charge = -1, multiplicity = 1:

       Center              X                  Y                   Z               Mass
    ------------   -----------------  -----------------  -----------------  -----------------
         P            0.001450775152    -0.985554738786    -0.000469171317    30.973761998420
         O           -1.149881224848     0.075362261214     0.558472828683    15.994914619570
         O            1.130971775152     0.082552461214    -0.550468671317    15.994914619570
         O            0.505948775152    -1.704755738786     1.223233828683    15.994914619570
         O           -0.503238224848    -1.704722738786    -1.224040171317    15.994914619570
         C           -1.817562224848     0.875081261214    -0.437249171317    12.000000000000
         C            1.816154775152     0.880233261214     0.434944828683    12.000000000000
         C           -2.672063224848     1.892600261214     0.286792828683    12.000000000000
         C            2.688798775152     1.881209261214    -0.290581171317    12.000000000000
         H           -1.071440224848     1.370334261214    -1.068783171317     1.007825032230
         H           -2.426243224848     0.227383261214    -1.076517171317     1.007825032230
         H            1.052908175152     1.381135261214     1.041062728683     1.007825032230
         H            2.410973775152     0.234835261214     1.089387828683     1.007825032230
         H           -3.212309224848     2.516473261214    -0.431833171317     1.007825032230
         H           -3.401925224848     1.390551261214     0.926508828683     1.007825032230
         H           -2.048400224848     2.539449261214     0.908495828683     1.007825032230
         H            3.224805775152     2.509752261214     0.427132828683     1.007825032230
         H            3.422727775152     1.364712261214    -0.913896171317     1.007825032230
         H            2.078894775152     2.525040261214    -0.928829171317     1.007825032230

  Basis Set: AUG-CC-PVTZ
    Blend: AUG-CC-PVTZ
  Basis Set: (AUG-CC-PVTZ AUX)
    Blend: AUG-CC-PVTZ-JKFIT
	 Reference Energy          =    -797.8392372696621351 [Eh]
	 Singles Energy            =      -0.0000000000000000 [Eh]
	 Same-Spin Energy          =      -0.4977647170130473 [Eh]
	 Opposite-Spin Energy      =      -1.5446446524847239 [Eh]
	 Correlation Energy        =      -2.0424093694977712 [Eh]
	 Total Energy              =    -799.8816466391599533 [Eh]

	 ================> DF-SCS-MP2 Energies <==================
	-----------------------------------------------------------
	 SCS Same-Spin Scale       =       0.3333333333333333 [-]
	 SCS Opposite-Spin Scale   =       1.2000000000000000 [-]
	 SCS Same-Spin Energy      =      -0.1659215723376824 [Eh]
	 SCS Opposite-Spin Energy  =      -1.8535735829816686 [Eh]
	 SCS Correlation Energy    =      -2.0194951553193512 [Eh]
	 SCS Total Energy          =    -799.8587324249814401 [Eh]
	-----------------------------------------------------------

  Dipole Moment: [D]
     X:     0.0973      Y:     7.5215      Z:    -0.0247     Total:     7.5222

*** Psi4 exiting successfully. Buy a developer a beer!
