                               Psi4 1.4a3.dev225

  ==> Input File <==

--------------------------------------------------------------------------
#psi4
#
memory 32 gb

molecule  {
-1 1
  P        0.0000000     1.0872980     0.0000000
  O       -1.1564220     0.0305830    -0.5476420
  O        1.1564220     0.0305830     0.5476420
  O        0.4924450     1.8091740    -1.2276720
  O       -0.4924450     1.8091740     1.2276720
  C       -1.7900608    -0.7829465     0.4272947
  C        1.7989910    -0.7944120    -0.4410350
  C       -2.7063440    -1.7646140    -0.2844450
  C        2.7063440    -1.7646150     0.2844450
  H       -1.0386670    -1.3302830     1.0205350
  H       -2.3670280    -0.1617970     1.1311080
  H        1.0386660    -1.3302840    -1.0205350
  H        2.3670280    -0.1617970    -1.1311080
  H       -3.2237520    -2.4090830     0.4325060
  H       -3.4553630    -1.2226600    -0.8671100
  H       -2.1260300    -2.3948090    -0.9629160
  H        3.2237520    -2.4090830    -0.4325060
  H        3.4553630    -1.2226600     0.8671100
  H        2.1260300    -2.3948090     0.9629160
units angstrom
no_reorient  #important for SAPT in psi4, default
symmetry c1  #important for SAPT in psi4, default
}

set PROPERTIES_ORIGIN ["COM"]
properties('MP2/aug-cc-pvtz', properties = ['dipole'])
--------------------------------------------------------------------------

    Molecular point group: c1
  Charge       = -1
  Multiplicity = 1
  Basis Set: AUG-CC-PVTZ
    Blend: AUG-CC-PVTZ
  Basis Set: (AUG-CC-PVTZ AUX)
    Blend: AUG-CC-PVTZ-JKFIT

    Orbital Energies [Eh]
    ---------------------

    Doubly Occupied:

       1A    -79.880094     2A    -20.406801     3A    -20.405619
       4A    -20.303827     5A    -20.303755     6A    -11.145979
       7A    -11.145581     8A    -11.105515     9A    -11.104567
      10A     -7.395652    11A     -5.294542    12A     -5.293624
      13A     -5.292217    14A     -1.240317    15A     -1.193279
      16A     -1.099958    17A     -1.059270    18A     -0.894465
      19A     -0.889464    20A     -0.715117    21A     -0.712883
      22A     -0.603130    23A     -0.542594    24A     -0.530325
      25A     -0.506840    26A     -0.460180    27A     -0.449672
      28A     -0.444859    29A     -0.425208    30A     -0.423341
      31A     -0.402317    32A     -0.400012    33A     -0.366024
      34A     -0.359919    35A     -0.330266    36A     -0.307765
      37A     -0.305274    38A     -0.284564    39A     -0.267485
      40A     -0.250803    41A     -0.236391

  @DF-RHF Final Energy:  -797.83939680995445

   => Energetics <=

    Nuclear Repulsion Energy =            613.4895348549401888
    One-Electron Energy =               -2333.0988730411404504
    Two-Electron Energy =                 921.7699413762456970
    Total Energy =                       -797.8393968099544509
  Basis Set: (AUG-CC-PVTZ AUX)
    Blend: AUG-CC-PVTZ-RI
    Molecular point group: c1

    Geometry (in Angstrom), charge = -1, multiplicity = 1:

       Center              X                  Y                   Z               Mass
    ------------   -----------------  -----------------  -----------------  -----------------
         P           -0.000700256304     0.982109057231     0.001077447558    30.973761998420
         O           -1.157122256304    -0.074605942769    -0.546564552442    15.994914619570
         O            1.155721743696    -0.074605942769     0.548719447558    15.994914619570
         O            0.491744743696     1.703985057231    -1.226594552442    15.994914619570
         O           -0.493145256304     1.703985057231     1.228749447558    15.994914619570
         C           -1.790761056304    -0.888135442769     0.428372147558    12.000000000000
         C            1.798290743696    -0.899600942769    -0.439957552442    12.000000000000
         C           -2.707044256304    -1.869802942769    -0.283367552442    12.000000000000
         C            2.705643743696    -1.869803942769     0.285522447558    12.000000000000
         H           -1.039367256304    -1.435471942769     1.021612447558     1.007825032230
         H           -2.367728256304    -0.266985942769     1.132185447558     1.007825032230
         H            1.037965743696    -1.435472942769    -1.019457552442     1.007825032230
         H            2.366327743696    -0.266985942769    -1.130030552442     1.007825032230
         H           -3.224452256304    -2.514271942769     0.433583447558     1.007825032230
         H           -3.456063256304    -1.327848942769    -0.866032552442     1.007825032230
         H           -2.126730256304    -2.499997942769    -0.961838552442     1.007825032230
         H            3.223051743696    -2.514271942769    -0.431428552442     1.007825032230
         H            3.454662743696    -1.327848942769     0.868187447558     1.007825032230
         H            2.125329743696    -2.499997942769     0.963993447558     1.007825032230

  Basis Set: AUG-CC-PVTZ
    Blend: AUG-CC-PVTZ
  Basis Set: (AUG-CC-PVTZ AUX)
    Blend: AUG-CC-PVTZ-JKFIT
	 Reference Energy          =    -797.8393968099544509 [Eh]
	 Singles Energy            =      -0.0000000000000000 [Eh]
	 Same-Spin Energy          =      -0.4977908359513466 [Eh]
	 Opposite-Spin Energy      =      -1.5445863127931192 [Eh]
	 Correlation Energy        =      -2.0423771487444657 [Eh]
	 Total Energy              =    -799.8817739586988864 [Eh]

	 ================> DF-SCS-MP2 Energies <==================
	-----------------------------------------------------------
	 SCS Same-Spin Scale       =       0.3333333333333333 [-]
	 SCS Opposite-Spin Scale   =       1.2000000000000000 [-]
	 SCS Same-Spin Energy      =      -0.1659302786504488 [Eh]
	 SCS Opposite-Spin Energy  =      -1.8535035753517430 [Eh]
	 SCS Correlation Energy    =      -2.0194338540021919 [Eh]
	 SCS Total Energy          =    -799.8588306639566099 [Eh]
	-----------------------------------------------------------

  Dipole Moment: [D]
     X:     0.0623      Y:    -7.5148      Z:    -0.0350     Total:     7.5151

*** Psi4 exiting successfully. Buy a developer a beer!
