                               Psi4 1.3.2 release

  ==> Input File <==

--------------------------------------------------------------------------
#psi4
#
memory 32 gb

molecule  {
-1 1
  P       -0.0010900    -1.0890910     0.0004590
  O       -1.1524220    -0.0281740     0.5594010
  O        1.1506610    -0.0285350    -0.5585640
  O        0.5034080    -1.8082920     1.2241620
  O       -0.5057790    -1.8082590    -1.2231120
  C       -1.8201030     0.7715450    -0.4363210
  C        1.8136140     0.7766970     0.4358730
  C       -2.6746040     1.7890640     0.2877210
  C        2.6862580     1.7776730    -0.2896530
  H       -1.0739810     1.2667980    -1.0678550
  H       -2.4287840     0.1238470    -1.0755890
  H        0.9274306     1.3787998     1.1647812
  H        2.4084330     0.1312990     1.0903160
  H       -3.2148500     2.4129370    -0.4309050
  H       -3.4044660     1.2870150     0.9274370
  H       -2.0509410     2.4359130     0.9094240
  H        3.2222650     2.4062160     0.4280610
  H        3.4201870     1.2611760    -0.9129680
  H        2.0763540     2.4215040    -0.9279010
units angstrom
no_reorient  #important for SAPT in psi4, default
symmetry c1  #important for SAPT in psi4, default
}

set PROPERTIES_ORIGIN ["COM"]
properties('MP2/aug-cc-pvtz', properties = ['dipole'])
--------------------------------------------------------------------------

    Molecular point group: c1
  Charge       = -1
  Multiplicity = 1
  Basis Set: AUG-CC-PVTZ
    Blend: AUG-CC-PVTZ
  Basis Set: (AUG-CC-PVTZ AUX)
    Blend: AUG-CC-PVTZ-JKFIT

    Orbital Energies [Eh]
    ---------------------

    Doubly Occupied:

       1A    -79.880456     2A    -20.409800     3A    -20.404259
       4A    -20.304763     5A    -20.304230     6A    -11.168203
       7A    -11.144625     8A    -11.107375     9A    -11.104425
      10A     -7.395971    11A     -5.294842    12A     -5.293940
      13A     -5.292549    14A     -1.236586    15A     -1.189261
      16A     -1.100022    17A     -1.060207    18A     -0.893562
      19A     -0.889207    20A     -0.713300    21A     -0.701944
      22A     -0.596476    23A     -0.540416    24A     -0.525910
      25A     -0.496214    26A     -0.459864    27A     -0.449911
      28A     -0.443428    29A     -0.423914    30A     -0.423871
      31A     -0.401837    32A     -0.393945    33A     -0.368313
      34A     -0.354123    35A     -0.331133    36A     -0.307074
      37A     -0.295693    38A     -0.285159    39A     -0.267773
      40A     -0.251663    41A     -0.237221

  @DF-RHF Final Energy:  -797.81868108326091

   => Energetics <=

    Nuclear Repulsion Energy =            612.3148317014197346
    One-Electron Energy =               -2330.7800942488170222
    Two-Electron Energy =                 920.6465814641363750
    Total Energy =                       -797.8186810832609126
  Basis Set: (AUG-CC-PVTZ AUX)
    Blend: AUG-CC-PVTZ-RI
    Molecular point group: c1

    Geometry (in Angstrom), charge = -1, multiplicity = 1:

       Center              X                  Y                   Z               Mass
    ------------   -----------------  -----------------  -----------------  -----------------
         P           -0.000063082511    -0.985431966163    -0.000334696055    30.973761998420
         O           -1.151395082511     0.075485033837     0.558607303945    15.994914619570
         O            1.151687917489     0.075124033837    -0.559357696055    15.994914619570
         O            0.504434917489    -1.704632966163     1.223368303945    15.994914619570
         O           -0.504752082511    -1.704599966163    -1.223905696055    15.994914619570
         C           -1.819076082511     0.875204033837    -0.437114696055    12.000000000000
         C            1.814640917489     0.880356033837     0.435079303945    12.000000000000
         C           -2.673577082511     1.892723033837     0.286927303945    12.000000000000
         C            2.687284917489     1.881332033837    -0.290446696055    12.000000000000
         H           -1.072954082511     1.370457033837    -1.068648696055     1.007825032230
         H           -2.427757082511     0.227506033837    -1.076382696055     1.007825032230
         H            0.928457517489     1.482458833837     1.163987503945     1.007825032230
         H            2.409459917489     0.234958033837     1.089522303945     1.007825032230
         H           -3.213823082511     2.516596033837    -0.431698696055     1.007825032230
         H           -3.403439082511     1.390674033837     0.926643303945     1.007825032230
         H           -2.049914082511     2.539572033837     0.908630303945     1.007825032230
         H            3.223291917489     2.509875033837     0.427267303945     1.007825032230
         H            3.421213917489     1.364835033837    -0.913761696055     1.007825032230
         H            2.077380917489     2.525163033837    -0.928694696055     1.007825032230

  Basis Set: AUG-CC-PVTZ
    Blend: AUG-CC-PVTZ
  Basis Set: (AUG-CC-PVTZ AUX)
    Blend: AUG-CC-PVTZ-JKFIT
	 Reference Energy          =    -797.8186810832609126 [Eh]
	 Singles Energy            =      -0.0000000000000000 [Eh]
	 Same-Spin Energy          =      -0.4984048400856687 [Eh]
	 Opposite-Spin Energy      =      -1.5472380576650848 [Eh]
	 Correlation Energy        =      -2.0456428977507537 [Eh]
	 Total Energy              =    -799.8643239810116938 [Eh]

	 ================> DF-SCS-MP2 Energies <==================
	-----------------------------------------------------------
	 SCS Same-Spin Scale       =       0.3333333333333333 [-]
	 SCS Opposite-Spin Scale   =       1.2000000000000000 [-]
	 SCS Same-Spin Energy      =      -0.1661349466952229 [Eh]
	 SCS Opposite-Spin Energy  =      -1.8566856691981017 [Eh]
	 SCS Correlation Energy    =      -2.0228206158933246 [Eh]
	 SCS Total Energy          =    -799.8415016991542643 [Eh]
	-----------------------------------------------------------

  Dipole Moment: [D]
     X:     0.0536      Y:     7.3692      Z:    -0.1440     Total:     7.3708

*** Psi4 exiting successfully. Buy a developer a beer!
