                               Psi4 1.3.2 release

  ==> Input File <==

--------------------------------------------------------------------------
#psi4
#
memory 32 gb

molecule  {
-1 1
  P       -0.0010900    -1.0890910     0.0004590
  O       -1.1524220    -0.0281740     0.5594010
  O        1.1064097    -0.0131896    -0.5402169
  O        0.5034080    -1.8082920     1.2241620
  O       -0.5057790    -1.8082590    -1.2231120
  C       -1.8201030     0.7715450    -0.4363210
  C        1.8136140     0.7766970     0.4358730
  C       -2.6746040     1.7890640     0.2877210
  C        2.6862580     1.7776730    -0.2896530
  H       -1.0739810     1.2667980    -1.0678550
  H       -2.4287840     0.1238470    -1.0755890
  H        1.0367612     1.2691753     1.0315172
  H        2.4084330     0.1312990     1.0903160
  H       -3.2148500     2.4129370    -0.4309050
  H       -3.4044660     1.2870150     0.9274370
  H       -2.0509410     2.4359130     0.9094240
  H        3.2222650     2.4062160     0.4280610
  H        3.4201870     1.2611760    -0.9129680
  H        2.0763540     2.4215040    -0.9279010
units angstrom
no_reorient  #important for SAPT in psi4, default
symmetry c1  #important for SAPT in psi4, default
}

set PROPERTIES_ORIGIN ["COM"]
properties('MP2/aug-cc-pvtz', properties = ['dipole'])
--------------------------------------------------------------------------

    Molecular point group: c1
  Charge       = -1
  Multiplicity = 1
  Basis Set: AUG-CC-PVTZ
    Blend: AUG-CC-PVTZ
  Basis Set: (AUG-CC-PVTZ AUX)
    Blend: AUG-CC-PVTZ-JKFIT

    Orbital Energies [Eh]
    ---------------------

    Doubly Occupied:

       1A    -79.876283     2A    -20.403463     3A    -20.400834
       4A    -20.302452     5A    -20.302349     6A    -11.146869
       7A    -11.143097     8A    -11.107130     9A    -11.103737
      10A     -7.392190    11A     -5.291140    12A     -5.290140
      13A     -5.288805    14A     -1.238552    15A     -1.187398
      16A     -1.098033    17A     -1.058354    18A     -0.896178
      19A     -0.890181    20A     -0.717182    21A     -0.711805
      22A     -0.599765    23A     -0.540062    24A     -0.530324
      25A     -0.506271    26A     -0.460438    27A     -0.448584
      28A     -0.443259    29A     -0.424369    30A     -0.423595
      31A     -0.401337    32A     -0.398552    33A     -0.367378
      34A     -0.360057    35A     -0.329085    36A     -0.307866
      37A     -0.303795    38A     -0.283985    39A     -0.265976
      40A     -0.249625    41A     -0.235255

  @DF-RHF Final Energy:  -797.83915947592118

   => Energetics <=

    Nuclear Repulsion Energy =            614.3878483157434403
    One-Electron Energy =               -2335.0025138140172203
    Two-Electron Energy =                 922.7755060223526016
    Total Energy =                       -797.8391594759211785
  Basis Set: (AUG-CC-PVTZ AUX)
    Blend: AUG-CC-PVTZ-RI
    Molecular point group: c1

    Geometry (in Angstrom), charge = -1, multiplicity = 1:

       Center              X                  Y                   Z               Mass
    ------------   -----------------  -----------------  -----------------  -----------------
         P            0.003842054555    -0.986313914630    -0.001374699749    30.973761998420
         O           -1.147489945445     0.074603085370     0.557567300251    15.994914619570
         O            1.111341754555     0.089587485370    -0.542050599749    15.994914619570
         O            0.508340054555    -1.705514914630     1.222328300251    15.994914619570
         O           -0.500846945445    -1.705481914630    -1.224945699749    15.994914619570
         C           -1.815170945445     0.874322085370    -0.438154699749    12.000000000000
         C            1.818546054555     0.879474085370     0.434039300251    12.000000000000
         C           -2.669671945445     1.891841085370     0.285887300251    12.000000000000
         C            2.691190054555     1.880450085370    -0.291486699749    12.000000000000
         H           -1.069048945445     1.369575085370    -1.069688699749     1.007825032230
         H           -2.423851945445     0.226624085370    -1.077422699749     1.007825032230
         H            1.041693254555     1.371952385370     1.029683500251     1.007825032230
         H            2.413365054555     0.234076085370     1.088482300251     1.007825032230
         H           -3.209917945445     2.515714085370    -0.432738699749     1.007825032230
         H           -3.399533945445     1.389792085370     0.925603300251     1.007825032230
         H           -2.046008945445     2.538690085370     0.907590300251     1.007825032230
         H            3.227197054555     2.508993085370     0.426227300251     1.007825032230
         H            3.425119054555     1.363953085370    -0.914801699749     1.007825032230
         H            2.081286054555     2.524281085370    -0.929734699749     1.007825032230

  Basis Set: AUG-CC-PVTZ
    Blend: AUG-CC-PVTZ
  Basis Set: (AUG-CC-PVTZ AUX)
    Blend: AUG-CC-PVTZ-JKFIT
	 Reference Energy          =    -797.8391594759211785 [Eh]
	 Singles Energy            =      -0.0000000000000000 [Eh]
	 Same-Spin Energy          =      -0.4976480714677541 [Eh]
	 Opposite-Spin Energy      =      -1.5442270407059449 [Eh]
	 Correlation Energy        =      -2.0418751121736989 [Eh]
	 Total Energy              =    -799.8810345880948489 [Eh]

	 ================> DF-SCS-MP2 Energies <==================
	-----------------------------------------------------------
	 SCS Same-Spin Scale       =       0.3333333333333333 [-]
	 SCS Opposite-Spin Scale   =       1.2000000000000000 [-]
	 SCS Same-Spin Energy      =      -0.1658826904892514 [Eh]
	 SCS Opposite-Spin Energy  =      -1.8530724488471337 [Eh]
	 SCS Correlation Energy    =      -2.0189551393363852 [Eh]
	 SCS Total Energy          =    -799.8581146152575911 [Eh]
	-----------------------------------------------------------

  Dipole Moment: [D]
     X:     0.1936      Y:     7.5407      Z:    -0.0468     Total:     7.5433

*** Psi4 exiting successfully. Buy a developer a beer!
