                               Psi4 1.4a3.dev225

  ==> Input File <==

--------------------------------------------------------------------------
#psi4
#
memory 32 gb

molecule  {
-1 1
  P        0.0000000     1.0872980     0.0000000
  O       -1.1564220     0.0305830    -0.5476420
  O        1.1703592     0.0178475     0.5542422
  O        0.4924450     1.8091740    -1.2276720
  O       -0.4924450     1.8091740     1.2276720
  C       -1.7989910    -0.7944120     0.4410350
  C        1.7989910    -0.7944120    -0.4410350
  C       -2.7063440    -1.7646140    -0.2844450
  C        2.7063440    -1.7646150     0.2844450
  H       -1.0386670    -1.3302830     1.0205350
  H       -2.3670280    -0.1617970     1.1311080
  H        1.0386660    -1.3302840    -1.0205350
  H        2.3670280    -0.1617970    -1.1311080
  H       -3.2237520    -2.4090830     0.4325060
  H       -3.4553630    -1.2226600    -0.8671100
  H       -2.1260300    -2.3948090    -0.9629160
  H        3.2237520    -2.4090830    -0.4325060
  H        3.4553630    -1.2226600     0.8671100
  H        2.1260300    -2.3948090     0.9629160
units angstrom
no_reorient  #important for SAPT in psi4, default
symmetry c1  #important for SAPT in psi4, default
}

set PROPERTIES_ORIGIN ["COM"]
properties('MP2/aug-cc-pvtz', properties = ['dipole'])
--------------------------------------------------------------------------

    Molecular point group: c1
  Charge       = -1
  Multiplicity = 1
  Basis Set: AUG-CC-PVTZ
    Blend: AUG-CC-PVTZ
  Basis Set: (AUG-CC-PVTZ AUX)
    Blend: AUG-CC-PVTZ-JKFIT

    Orbital Energies [Eh]
    ---------------------

    Doubly Occupied:

       1A    -79.881493     2A    -20.406542     3A    -20.404502
       4A    -20.304984     5A    -20.304877     6A    -11.146196
       7A    -11.143114     8A    -11.105726     9A    -11.103438
      10A     -7.396770    11A     -5.295618    12A     -5.294724
      13A     -5.293350    14A     -1.235581    15A     -1.189622
      16A     -1.100595    17A     -1.060054    18A     -0.894605
      19A     -0.889442    20A     -0.715065    21A     -0.711830
      22A     -0.601075    23A     -0.540117    24A     -0.530107
      25A     -0.507304    26A     -0.458141    27A     -0.449414
      28A     -0.443770    29A     -0.423473    30A     -0.421894
      31A     -0.401666    32A     -0.399511    33A     -0.366700
      34A     -0.360969    35A     -0.331227    36A     -0.307628
      37A     -0.305198    38A     -0.284798    39A     -0.267722
      40A     -0.251619    41A     -0.237329

  @DF-RHF Final Energy:  -797.83812218993239

   => Energetics <=

    Nuclear Repulsion Energy =            612.5735795260042096
    One-Electron Energy =               -2331.2878290506259873
    Two-Electron Energy =                 920.8761273346892722
    Total Energy =                       -797.8381221899323918
  Basis Set: (AUG-CC-PVTZ AUX)
    Blend: AUG-CC-PVTZ-RI
    Molecular point group: c1

    Geometry (in Angstrom), charge = -1, multiplicity = 1:

       Center              X                  Y                   Z               Mass
    ------------   -----------------  -----------------  -----------------  -----------------
         P           -0.001456713601     0.984339244180    -0.000689854818    30.973761998420
         O           -1.157878713601    -0.072375755820    -0.548331854818    15.994914619570
         O            1.168902486399    -0.085111255820     0.553552345182    15.994914619570
         O            0.490988286399     1.706215244180    -1.228361854818    15.994914619570
         O           -0.493901713601     1.706215244180     1.226982145182    15.994914619570
         C           -1.800447713601    -0.897370755820     0.440345145182    12.000000000000
         C            1.797534286399    -0.897370755820    -0.441724854818    12.000000000000
         C           -2.707800713601    -1.867572755820    -0.285134854818    12.000000000000
         C            2.704887286399    -1.867573755820     0.283755145182    12.000000000000
         H           -1.040123713601    -1.433241755820     1.019845145182     1.007825032230
         H           -2.368484713601    -0.264755755820     1.130418145182     1.007825032230
         H            1.037209286399    -1.433242755820    -1.021224854818     1.007825032230
         H            2.365571286399    -0.264755755820    -1.131797854818     1.007825032230
         H           -3.225208713601    -2.512041755820     0.431816145182     1.007825032230
         H           -3.456819713601    -1.325618755820    -0.867799854818     1.007825032230
         H           -2.127486713601    -2.497767755820    -0.963605854818     1.007825032230
         H            3.222295286399    -2.512041755820    -0.433195854818     1.007825032230
         H            3.453906286399    -1.325618755820     0.866420145182     1.007825032230
         H            2.124573286399    -2.497767755820     0.962226145182     1.007825032230

  Basis Set: AUG-CC-PVTZ
    Blend: AUG-CC-PVTZ
  Basis Set: (AUG-CC-PVTZ AUX)
    Blend: AUG-CC-PVTZ-JKFIT
	 Reference Energy          =    -797.8381221899323918 [Eh]
	 Singles Energy            =      -0.0000000000000000 [Eh]
	 Same-Spin Energy          =      -0.4980695309366963 [Eh]
	 Opposite-Spin Energy      =      -1.5454033934754887 [Eh]
	 Correlation Energy        =      -2.0434729244121850 [Eh]
	 Total Energy              =    -799.8815951143445773 [Eh]

	 ================> DF-SCS-MP2 Energies <==================
	-----------------------------------------------------------
	 SCS Same-Spin Scale       =       0.3333333333333333 [-]
	 SCS Opposite-Spin Scale   =       1.2000000000000000 [-]
	 SCS Same-Spin Energy      =      -0.1660231769788988 [Eh]
	 SCS Opposite-Spin Energy  =      -1.8544840721705864 [Eh]
	 SCS Correlation Energy    =      -2.0205072491494853 [Eh]
	 SCS Total Energy          =    -799.8586294390818239 [Eh]
	-----------------------------------------------------------

  Dipole Moment: [D]
     X:    -0.1182      Y:    -7.4749      Z:    -0.0110     Total:     7.4758

*** Psi4 exiting successfully. Buy a developer a beer!
