                               Psi4 1.3.2 release

  ==> Input File <==

--------------------------------------------------------------------------
#psi4
#
memory 32 gb

molecule  {
-1 1
  P       -0.0010900    -1.0890910     0.0004590
  O       -1.1524220    -0.0281740     0.5594010
  O        1.1395203    -0.0247899    -0.5540899
  O        0.5034080    -1.8082920     1.2241620
  O       -0.5057790    -1.8082590    -1.2231120
  C       -1.8201030     0.7715450    -0.4363210
  C        1.8136140     0.7766970     0.4358730
  C       -2.6746040     1.7890640     0.2877210
  C        2.6862580     1.7776730    -0.2896530
  H       -1.0739810     1.2667980    -1.0678550
  H       -2.4287840     0.1238470    -1.0755890
  H        1.0572579     1.2817537     1.0471587
  H        2.4084330     0.1312990     1.0903160
  H       -3.2148500     2.4129370    -0.4309050
  H       -3.4044660     1.2870150     0.9274370
  H       -2.0509410     2.4359130     0.9094240
  H        3.2222650     2.4062160     0.4280610
  H        3.4201870     1.2611760    -0.9129680
  H        2.0763540     2.4215040    -0.9279010
units angstrom
no_reorient  #important for SAPT in psi4, default
symmetry c1  #important for SAPT in psi4, default
}

set PROPERTIES_ORIGIN ["COM"]
properties('MP2/aug-cc-pvtz', properties = ['dipole'])
--------------------------------------------------------------------------

    Molecular point group: c1
  Charge       = -1
  Multiplicity = 1
  Basis Set: AUG-CC-PVTZ
    Blend: AUG-CC-PVTZ
  Basis Set: (AUG-CC-PVTZ AUX)
    Blend: AUG-CC-PVTZ-JKFIT

    Orbital Energies [Eh]
    ---------------------

    Doubly Occupied:

       1A    -79.878506     2A    -20.404350     3A    -20.403680
       4A    -20.303349     5A    -20.303332     6A    -11.145395
       7A    -11.144471     8A    -11.105480     9A    -11.104650
      10A     -7.394121    11A     -5.293004    12A     -5.292086
      13A     -5.290725    14A     -1.235911    15A     -1.187754
      16A     -1.098889    17A     -1.059147    18A     -0.894857
      19A     -0.890672    20A     -0.714657    21A     -0.712895
      22A     -0.599867    23A     -0.539172    24A     -0.529682
      25A     -0.506874    26A     -0.458786    27A     -0.449082
      28A     -0.442707    29A     -0.423674    30A     -0.423097
      31A     -0.400977    32A     -0.399056    33A     -0.367089
      34A     -0.360707    35A     -0.330136    36A     -0.307797
      37A     -0.305290    38A     -0.284239    39A     -0.266524
      40A     -0.250523    41A     -0.236140

  @DF-RHF Final Energy:  -797.83903865742741

   => Energetics <=

    Nuclear Repulsion Energy =            613.4189877849427148
    One-Electron Energy =               -2333.0373550648801029
    Two-Electron Energy =                 921.7793286225100928
    Total Energy =                       -797.8390386574274089
  Basis Set: (AUG-CC-PVTZ AUX)
    Blend: AUG-CC-PVTZ-RI
    Molecular point group: c1

    Geometry (in Angstrom), charge = -1, multiplicity = 1:

       Center              X                  Y                   Z               Mass
    ------------   -----------------  -----------------  -----------------  -----------------
         P            0.000246339338    -0.985184285837    -0.000027700437    30.973761998420
         O           -1.151085660662     0.075732714163     0.558914299563    15.994914619570
         O            1.140856639338     0.079116814163    -0.554576600437    15.994914619570
         O            0.504744339338    -1.704385285837     1.223675299563    15.994914619570
         O           -0.504442660662    -1.704352285837    -1.223598700437    15.994914619570
         C           -1.818766660662     0.875451714163    -0.436807700437    12.000000000000
         C            1.814950339338     0.880603714163     0.435386299563    12.000000000000
         C           -2.673267660662     1.892970714163     0.287234299563    12.000000000000
         C            2.687594339338     1.881579714163    -0.290139700437    12.000000000000
         H           -1.072644660662     1.370704714163    -1.068341700437     1.007825032230
         H           -2.427447660662     0.227753714163    -1.076075700437     1.007825032230
         H            1.058594239338     1.385660414163     1.046671999563     1.007825032230
         H            2.409769339338     0.235205714163     1.089829299563     1.007825032230
         H           -3.213513660662     2.516843714163    -0.431391700437     1.007825032230
         H           -3.403129660662     1.390921714163     0.926950299563     1.007825032230
         H           -2.049604660662     2.539819714163     0.908937299563     1.007825032230
         H            3.223601339338     2.510122714163     0.427574299563     1.007825032230
         H            3.421523339338     1.365082714163    -0.913454700437     1.007825032230
         H            2.077690339338     2.525410714163    -0.928387700437     1.007825032230

  Basis Set: AUG-CC-PVTZ
    Blend: AUG-CC-PVTZ
  Basis Set: (AUG-CC-PVTZ AUX)
    Blend: AUG-CC-PVTZ-JKFIT
	 Reference Energy          =    -797.8390386574274089 [Eh]
	 Singles Energy            =      -0.0000000000000000 [Eh]
	 Same-Spin Energy          =      -0.4978343997023971 [Eh]
	 Opposite-Spin Energy      =      -1.5448750417818435 [Eh]
	 Correlation Energy        =      -2.0427094414842406 [Eh]
	 Total Energy              =    -799.8817480989116575 [Eh]

	 ================> DF-SCS-MP2 Energies <==================
	-----------------------------------------------------------
	 SCS Same-Spin Scale       =       0.3333333333333333 [-]
	 SCS Opposite-Spin Scale   =       1.2000000000000000 [-]
	 SCS Same-Spin Energy      =      -0.1659447999007990 [Eh]
	 SCS Opposite-Spin Energy  =      -1.8538500501382122 [Eh]
	 SCS Correlation Energy    =      -2.0197948500390113 [Eh]
	 SCS Total Energy          =    -799.8588335074664428 [Eh]
	-----------------------------------------------------------

  Dipole Moment: [D]
     X:     0.0485      Y:     7.5109      Z:    -0.0139     Total:     7.5110

*** Psi4 exiting successfully. Buy a developer a beer!
