                               Psi4 1.3.2 release

  ==> Input File <==

--------------------------------------------------------------------------
#psi4
#
memory 32 gb

molecule  {
-1 1
  P       -0.0010900    -1.0890910     0.0004590
  O       -1.0139064    -0.1558119     0.4921552
  O        1.1506610    -0.0285350    -0.5585640
  O        0.5034080    -1.8082920     1.2241620
  O       -0.5057790    -1.8082590    -1.2231120
  C       -1.8201030     0.7715450    -0.4363210
  C        1.8136140     0.7766970     0.4358730
  C       -2.6746040     1.7890640     0.2877210
  C        2.6862580     1.7776730    -0.2896530
  H       -1.0739810     1.2667980    -1.0678550
  H       -2.4287840     0.1238470    -1.0755890
  H        1.0642060     1.2858700     1.0522800
  H        2.4084330     0.1312990     1.0903160
  H       -3.2148500     2.4129370    -0.4309050
  H       -3.4044660     1.2870150     0.9274370
  H       -2.0509410     2.4359130     0.9094240
  H        3.2222650     2.4062160     0.4280610
  H        3.4201870     1.2611760    -0.9129680
  H        2.0763540     2.4215040    -0.9279010
units angstrom
no_reorient  #important for SAPT in psi4, default
symmetry c1  #important for SAPT in psi4, default
}

set PROPERTIES_ORIGIN ["COM"]
properties('MP2/aug-cc-pvtz', properties = ['dipole'])
--------------------------------------------------------------------------

    Molecular point group: c1
  Charge       = -1
  Multiplicity = 1
  Basis Set: AUG-CC-PVTZ
    Blend: AUG-CC-PVTZ
  Basis Set: (AUG-CC-PVTZ AUX)
    Blend: AUG-CC-PVTZ-JKFIT

    Orbital Energies [Eh]
    ---------------------

    Doubly Occupied:

       1A    -79.846702     2A    -20.403334     3A    -20.387731
       4A    -20.282635     5A    -20.282448     6A    -11.173164
       7A    -11.138048     8A    -11.124839     9A    -11.100496
      10A     -7.367782    11A     -5.267610    12A     -5.265393
      13A     -5.263788    14A     -1.262276    15A     -1.181651
      16A     -1.078024    17A     -1.042518    18A     -0.919555
      19A     -0.886453    20A     -0.737999    21A     -0.706678
      22A     -0.597718    23A     -0.545539    24A     -0.528829
      25A     -0.507736    26A     -0.471809    27A     -0.456129
      28A     -0.447596    29A     -0.429439    30A     -0.424779
      31A     -0.399092    32A     -0.392475    33A     -0.382584
      34A     -0.366216    35A     -0.319555    36A     -0.312662
      37A     -0.299896    38A     -0.270412    39A     -0.250470
      40A     -0.232085    41A     -0.216606

  @DF-RHF Final Energy:  -797.81015068665658

   => Energetics <=

    Nuclear Repulsion Energy =            619.2022201810219713
    One-Electron Energy =               -2344.8832393378861525
    Two-Electron Energy =                 927.8708684702077107
    Total Energy =                       -797.8101506866565842
  Basis Set: (AUG-CC-PVTZ AUX)
    Blend: AUG-CC-PVTZ-RI
    Molecular point group: c1

    Geometry (in Angstrom), charge = -1, multiplicity = 1:

       Center              X                  Y                   Z               Mass
    ------------   -----------------  -----------------  -----------------  -----------------
         P           -0.015441538847    -0.971479205402     0.007434756822    30.973761998420
         O           -1.028257938847    -0.038200105402     0.499130956822    15.994914619570
         O            1.136309461153     0.089076794598    -0.551588243178    15.994914619570
         O            0.489056461153    -1.690680205402     1.231137756822    15.994914619570
         O           -0.520130538847    -1.690647205402    -1.216136243178    15.994914619570
         C           -1.834454538847     0.889156794598    -0.429345243178    12.000000000000
         C            1.799262461153     0.894308794598     0.442848756822    12.000000000000
         C           -2.688955538847     1.906675794598     0.294696756822    12.000000000000
         C            2.671906461153     1.895284794598    -0.282677243178    12.000000000000
         H           -1.088332538847     1.384409794598    -1.060879243178     1.007825032230
         H           -2.443135538847     0.241458794598    -1.068613243178     1.007825032230
         H            1.049854461153     1.403481794598     1.059255756822     1.007825032230
         H            2.394081461153     0.248910794598     1.097291756822     1.007825032230
         H           -3.229201538847     2.530548794598    -0.423929243178     1.007825032230
         H           -3.418817538847     1.404626794598     0.934412756822     1.007825032230
         H           -2.065292538847     2.553524794598     0.916399756822     1.007825032230
         H            3.207913461153     2.523827794598     0.435036756822     1.007825032230
         H            3.405835461153     1.378787794598    -0.905992243178     1.007825032230
         H            2.062002461153     2.539115794598    -0.920925243178     1.007825032230

  Basis Set: AUG-CC-PVTZ
    Blend: AUG-CC-PVTZ
  Basis Set: (AUG-CC-PVTZ AUX)
    Blend: AUG-CC-PVTZ-JKFIT
	 Reference Energy          =    -797.8101506866565842 [Eh]
	 Singles Energy            =      -0.0000000000000000 [Eh]
	 Same-Spin Energy          =      -0.4960740766475108 [Eh]
	 Opposite-Spin Energy      =      -1.5404616848302854 [Eh]
	 Correlation Energy        =      -2.0365357614777961 [Eh]
	 Total Energy              =    -799.8466864481343919 [Eh]

	 ================> DF-SCS-MP2 Energies <==================
	-----------------------------------------------------------
	 SCS Same-Spin Scale       =       0.3333333333333333 [-]
	 SCS Opposite-Spin Scale   =       1.2000000000000000 [-]
	 SCS Same-Spin Energy      =      -0.1653580255491703 [Eh]
	 SCS Opposite-Spin Energy  =      -1.8485540217963425 [Eh]
	 SCS Correlation Energy    =      -2.0139120473455128 [Eh]
	 SCS Total Energy          =    -799.8240627340020410 [Eh]
	-----------------------------------------------------------

  Dipole Moment: [D]
     X:    -1.2462      Y:     8.5478      Z:     0.1276     Total:     8.6391

*** Psi4 exiting successfully. Buy a developer a beer!
