                               Psi4 1.4a3.dev225

  ==> Input File <==

--------------------------------------------------------------------------
#psi4
#
memory 32 gb

molecule  {
-1 1
  P        0.0000000     1.0872980     0.0000000
  O       -1.1564220     0.0305830    -0.5476420
  O        1.1564220     0.0305830     0.5476420
  O        0.4924450     1.8091740    -1.2276720
  O       -0.4924450     1.8091740     1.2276720
  C       -1.7989910    -0.7944120     0.4410350
  C        1.7989910    -0.7944120    -0.4410350
  C       -2.7063440    -1.7646140    -0.2844450
  C        2.7063440    -1.7646150     0.2844450
  H       -1.0386670    -1.3302830     1.0205350
  H       -2.3670280    -0.1617970     1.1311080
  H        1.0733544    -1.3058358    -0.9940964
  H        2.3670280    -0.1617970    -1.1311080
  H       -3.2237520    -2.4090830     0.4325060
  H       -3.4553630    -1.2226600    -0.8671100
  H       -2.1260300    -2.3948090    -0.9629160
  H        3.2237520    -2.4090830    -0.4325060
  H        3.4553630    -1.2226600     0.8671100
  H        2.1260300    -2.3948090     0.9629160
units angstrom
no_reorient  #important for SAPT in psi4, default
symmetry c1  #important for SAPT in psi4, default
}

set PROPERTIES_ORIGIN ["COM"]
properties('MP2/aug-cc-pvtz', properties = ['dipole'])
--------------------------------------------------------------------------

    Molecular point group: c1
  Charge       = -1
  Multiplicity = 1
  Basis Set: AUG-CC-PVTZ
    Blend: AUG-CC-PVTZ
  Basis Set: (AUG-CC-PVTZ AUX)
    Blend: AUG-CC-PVTZ-JKFIT

    Orbital Energies [Eh]
    ---------------------

    Doubly Occupied:

       1A    -79.878702     2A    -20.405049     3A    -20.403990
       4A    -20.302884     5A    -20.302782     6A    -11.145609
       7A    -11.139282     8A    -11.105391     9A    -11.104871
      10A     -7.394250    11A     -5.293134    12A     -5.292223
      13A     -5.290837    14A     -1.236345    15A     -1.189017
      16A     -1.098533    17A     -1.058338    18A     -0.895915
      19A     -0.891699    20A     -0.719250    21A     -0.714311
      22A     -0.602166    23A     -0.540436    24A     -0.531527
      25A     -0.509955    26A     -0.458336    27A     -0.449248
      28A     -0.443697    29A     -0.424212    30A     -0.422355
      31A     -0.401519    32A     -0.400916    33A     -0.366530
      34A     -0.363167    35A     -0.329799    36A     -0.309400
      37A     -0.306616    38A     -0.283591    39A     -0.266393
      40A     -0.249757    41A     -0.235413

  @DF-RHF Final Energy:  -797.83812256690965

   => Energetics <=

    Nuclear Repulsion Energy =            613.3260641701010627
    One-Electron Energy =               -2332.8134831730121732
    Two-Electron Energy =                 921.6492964360014639
    Total Energy =                       -797.8381225669096466
  Basis Set: (AUG-CC-PVTZ AUX)
    Blend: AUG-CC-PVTZ-RI
    Molecular point group: c1

    Geometry (in Angstrom), charge = -1, multiplicity = 1:

       Center              X                  Y                   Z               Mass
    ------------   -----------------  -----------------  -----------------  -----------------
         P           -0.000228441798     0.982847116819    -0.000174117441    30.973761998420
         O           -1.156650441798    -0.073867883181    -0.547816117441    15.994914619570
         O            1.156193558202    -0.073867883181     0.547467882559    15.994914619570
         O            0.492216558202     1.704723116819    -1.227846117441    15.994914619570
         O           -0.492673441798     1.704723116819     1.227497882559    15.994914619570
         C           -1.799219441798    -0.898862883181     0.440860882559    12.000000000000
         C            1.798762558202    -0.898862883181    -0.441209117441    12.000000000000
         C           -2.706572441798    -1.869064883181    -0.284619117441    12.000000000000
         C            2.706115558202    -1.869065883181     0.284270882559    12.000000000000
         H           -1.038895441798    -1.434733883181     1.020360882559     1.007825032230
         H           -2.367256441798    -0.266247883181     1.130933882559     1.007825032230
         H            1.073125958202    -1.410286683181    -0.994270517441     1.007825032230
         H            2.366799558202    -0.266247883181    -1.131282117441     1.007825032230
         H           -3.223980441798    -2.513533883181     0.432331882559     1.007825032230
         H           -3.455591441798    -1.327110883181    -0.867284117441     1.007825032230
         H           -2.126258441798    -2.499259883181    -0.963090117441     1.007825032230
         H            3.223523558202    -2.513533883181    -0.432680117441     1.007825032230
         H            3.455134558202    -1.327110883181     0.866935882559     1.007825032230
         H            2.125801558202    -2.499259883181     0.962741882559     1.007825032230

  Basis Set: AUG-CC-PVTZ
    Blend: AUG-CC-PVTZ
  Basis Set: (AUG-CC-PVTZ AUX)
    Blend: AUG-CC-PVTZ-JKFIT
	 Reference Energy          =    -797.8381225669096466 [Eh]
	 Singles Energy            =      -0.0000000000000000 [Eh]
	 Same-Spin Energy          =      -0.4977366980042131 [Eh]
	 Opposite-Spin Energy      =      -1.5444721510252188 [Eh]
	 Correlation Energy        =      -2.0422088490294321 [Eh]
	 Total Energy              =    -799.8803314159390538 [Eh]

	 ================> DF-SCS-MP2 Energies <==================
	-----------------------------------------------------------
	 SCS Same-Spin Scale       =       0.3333333333333333 [-]
	 SCS Opposite-Spin Scale   =       1.2000000000000000 [-]
	 SCS Same-Spin Energy      =      -0.1659122326680710 [Eh]
	 SCS Opposite-Spin Energy  =      -1.8533665812302624 [Eh]
	 SCS Correlation Energy    =      -2.0192788138983335 [Eh]
	 SCS Total Energy          =    -799.8574013808080281 [Eh]
	-----------------------------------------------------------

  Dipole Moment: [D]
     X:    -0.0081      Y:    -7.6005      Z:    -0.0247     Total:     7.6006

*** Psi4 exiting successfully. Buy a developer a beer!
