                               Psi4 1.3.2 release

  ==> Input File <==

--------------------------------------------------------------------------
#psi4
#
memory 32 gb

molecule  {
-1 1
  P        0.0014013    -1.0934576     0.0140671
  O       -1.1524220    -0.0281740     0.5594010
  O        1.1506610    -0.0285350    -0.5585640
  O        0.5034080    -1.8082920     1.2241620
  O       -0.5057790    -1.8082590    -1.2231120
  C       -1.8269144     0.7770197    -0.4272772
  C        1.8136140     0.7766970     0.4358730
  C       -2.6746040     1.7890640     0.2877210
  C        2.6862580     1.7776730    -0.2896530
  H       -1.0739810     1.2667980    -1.0678550
  H       -2.4287840     0.1238470    -1.0755890
  H        1.0642060     1.2858700     1.0522800
  H        2.4084330     0.1312990     1.0903160
  H       -3.2148500     2.4129370    -0.4309050
  H       -3.4044660     1.2870150     0.9274370
  H       -2.0509410     2.4359130     0.9094240
  H        3.2222650     2.4062160     0.4280610
  H        3.4201870     1.2611760    -0.9129680
  H        2.0763540     2.4215040    -0.9279010
units angstrom
no_reorient  #important for SAPT in psi4, default
symmetry c1  #important for SAPT in psi4, default
}

set PROPERTIES_ORIGIN ["COM"]
properties('MP2/aug-cc-pvtz', properties = ['dipole'])
--------------------------------------------------------------------------

    Molecular point group: c1
  Charge       = -1
  Multiplicity = 1
  Basis Set: AUG-CC-PVTZ
    Blend: AUG-CC-PVTZ
  Basis Set: (AUG-CC-PVTZ AUX)
    Blend: AUG-CC-PVTZ-JKFIT

    Orbital Energies [Eh]
    ---------------------

    Doubly Occupied:

       1A    -79.879278     2A    -20.403894     3A    -20.403575
       4A    -20.306743     5A    -20.301802     6A    -11.145069
       7A    -11.144244     8A    -11.104672     9A    -11.104503
      10A     -7.394849    11A     -5.293694    12A     -5.292817
      13A     -5.291463    14A     -1.233907    15A     -1.186447
      16A     -1.101689    17A     -1.059613    18A     -0.896118
      19A     -0.890896    20A     -0.713063    21A     -0.711687
      22A     -0.598953    23A     -0.538490    24A     -0.528452
      25A     -0.506331    26A     -0.458497    27A     -0.449401
      28A     -0.443166    29A     -0.423725    30A     -0.422413
      31A     -0.400699    32A     -0.397976    33A     -0.368174
      34A     -0.360471    35A     -0.330820    36A     -0.306556
      37A     -0.303864    38A     -0.285224    39A     -0.268431
      40A     -0.250553    41A     -0.237115

  @DF-RHF Final Energy:  -797.83824931012157

   => Energetics <=

    Nuclear Repulsion Energy =            612.9734633218366753
    One-Electron Energy =               -2332.1447596218963554
    Two-Electron Energy =                 921.3330469899379978
    Total Energy =                       -797.8382493101215687
  Basis Set: (AUG-CC-PVTZ AUX)
    Blend: AUG-CC-PVTZ-RI
    Molecular point group: c1

    Geometry (in Angstrom), charge = -1, multiplicity = 1:

       Center              X                  Y                   Z               Mass
    ------------   -----------------  -----------------  -----------------  -----------------
         P            0.001557327140    -0.988732050931     0.010550842511    30.973761998420
         O           -1.152265972860     0.076551549069     0.555884742511    15.994914619570
         O            1.150817027140     0.076190549069    -0.562080257489    15.994914619570
         O            0.503564027140    -1.703566450931     1.220645742511    15.994914619570
         O           -0.505622972860    -1.703533450931    -1.226628257489    15.994914619570
         C           -1.826758372860     0.881745249069    -0.430793457489    12.000000000000
         C            1.813770027140     0.881422549069     0.432356742511    12.000000000000
         C           -2.674447972860     1.893789549069     0.284204742511    12.000000000000
         C            2.686414027140     1.882398549069    -0.293169257489    12.000000000000
         H           -1.073824972860     1.371523549069    -1.071371257489     1.007825032230
         H           -2.428627972860     0.228572549069    -1.079105257489     1.007825032230
         H            1.064362027140     1.390595549069     1.048763742511     1.007825032230
         H            2.408589027140     0.236024549069     1.086799742511     1.007825032230
         H           -3.214693972860     2.517662549069    -0.434421257489     1.007825032230
         H           -3.404309972860     1.391740549069     0.923920742511     1.007825032230
         H           -2.050784972860     2.540638549069     0.905907742511     1.007825032230
         H            3.222421027140     2.510941549069     0.424544742511     1.007825032230
         H            3.420343027140     1.365901549069    -0.916484257489     1.007825032230
         H            2.076510027140     2.526229549069    -0.931417257489     1.007825032230

  Basis Set: AUG-CC-PVTZ
    Blend: AUG-CC-PVTZ
  Basis Set: (AUG-CC-PVTZ AUX)
    Blend: AUG-CC-PVTZ-JKFIT
	 Reference Energy          =    -797.8382493101215687 [Eh]
	 Singles Energy            =      -0.0000000000000000 [Eh]
	 Same-Spin Energy          =      -0.4979519689770840 [Eh]
	 Opposite-Spin Energy      =      -1.5451296765228468 [Eh]
	 Correlation Energy        =      -2.0430816454999308 [Eh]
	 Total Energy              =    -799.8813309556214790 [Eh]

	 ================> DF-SCS-MP2 Energies <==================
	-----------------------------------------------------------
	 SCS Same-Spin Scale       =       0.3333333333333333 [-]
	 SCS Opposite-Spin Scale   =       1.2000000000000000 [-]
	 SCS Same-Spin Energy      =      -0.1659839896590280 [Eh]
	 SCS Opposite-Spin Energy  =      -1.8541556118274161 [Eh]
	 SCS Correlation Energy    =      -2.0201396014864441 [Eh]
	 SCS Total Energy          =    -799.8583889116080172 [Eh]
	-----------------------------------------------------------

  Dipole Moment: [D]
     X:     0.0102      Y:     7.4579      Z:     0.1531     Total:     7.4595

*** Psi4 exiting successfully. Buy a developer a beer!
