                               Psi4 1.3.2 release

  ==> Input File <==

--------------------------------------------------------------------------
#psi4
#
memory 32 gb

molecule  {
-1 1
  P       -0.0010900    -1.0890910     0.0004590
  O       -1.1524220    -0.0281740     0.5594010
  O        1.2199404     0.0352589    -0.5921900
  O        0.5034080    -1.8082920     1.2241620
  O       -0.5057790    -1.8082590    -1.2231120
  C       -1.8201030     0.7715450    -0.4363210
  C        1.8136140     0.7766970     0.4358730
  C       -2.6746040     1.7890640     0.2877210
  C        2.6862580     1.7776730    -0.2896530
  H       -1.0739810     1.2667980    -1.0678550
  H       -2.4287840     0.1238470    -1.0755890
  H        1.0642060     1.2858700     1.0522800
  H        2.4084330     0.1312990     1.0903160
  H       -3.2148500     2.4129370    -0.4309050
  H       -3.4044660     1.2870150     0.9274370
  H       -2.0509410     2.4359130     0.9094240
  H        3.2222650     2.4062160     0.4280610
  H        3.4201870     1.2611760    -0.9129680
  H        2.0763540     2.4215040    -0.9279010
units angstrom
no_reorient  #important for SAPT in psi4, default
symmetry c1  #important for SAPT in psi4, default
}

set PROPERTIES_ORIGIN ["COM"]
properties('MP2/aug-cc-pvtz', properties = ['dipole'])
--------------------------------------------------------------------------

    Molecular point group: c1
  Charge       = -1
  Multiplicity = 1
  Basis Set: AUG-CC-PVTZ
    Blend: AUG-CC-PVTZ
  Basis Set: (AUG-CC-PVTZ AUX)
    Blend: AUG-CC-PVTZ-JKFIT

    Orbital Energies [Eh]
    ---------------------

    Doubly Occupied:

       1A    -79.891012     2A    -20.412173     3A    -20.401418
       4A    -20.313363     5A    -20.312712     6A    -11.148122
       7A    -11.133559     8A    -11.106998     9A    -11.095889
      10A     -7.405515    11A     -5.304205    12A     -5.303386
      13A     -5.302036    14A     -1.232346    15A     -1.189642
      16A     -1.108410    17A     -1.067009    18A     -0.895632
      19A     -0.879092    20A     -0.716696    21A     -0.702450
      22A     -0.600878    23A     -0.538210    24A     -0.528004
      25A     -0.506561    26A     -0.458060    27A     -0.450569
      28A     -0.441130    29A     -0.421608    30A     -0.419118
      31A     -0.402112    32A     -0.396446    33A     -0.368985
      34A     -0.357572    35A     -0.337335    36A     -0.307592
      37A     -0.297728    38A     -0.288278    39A     -0.270224
      40A     -0.258941    41A     -0.244874

  @DF-RHF Final Energy:  -797.82940443091218

   => Energetics <=

    Nuclear Repulsion Energy =            610.5561719575800907
    One-Electron Energy =               -2327.1393768466050460
    Two-Electron Energy =                 918.7538004581127780
    Total Energy =                       -797.8294044309121773
  Basis Set: (AUG-CC-PVTZ AUX)
    Blend: AUG-CC-PVTZ-RI
    Molecular point group: c1

    Geometry (in Angstrom), charge = -1, multiplicity = 1:

       Center              X                  Y                   Z               Mass
    ------------   -----------------  -----------------  -----------------  -----------------
         P           -0.008204951140    -0.991487712664     0.003920805575    30.973761998420
         O           -1.159536951140     0.069429287336     0.562862805575    15.994914619570
         O            1.212825448860     0.132862187336    -0.588728194425    15.994914619570
         O            0.496293048860    -1.710688712664     1.227623805575    15.994914619570
         O           -0.512893951140    -1.710655712664    -1.219650194425    15.994914619570
         C           -1.827217951140     0.869148287336    -0.432859194425    12.000000000000
         C            1.806499048860     0.874300287336     0.439334805575    12.000000000000
         C           -2.681718951140     1.886667287336     0.291182805575    12.000000000000
         C            2.679143048860     1.875276287336    -0.286191194425    12.000000000000
         H           -1.081095951140     1.364401287336    -1.064393194425     1.007825032230
         H           -2.435898951140     0.221450287336    -1.072127194425     1.007825032230
         H            1.057091048860     1.383473287336     1.055741805575     1.007825032230
         H            2.401318048860     0.228902287336     1.093777805575     1.007825032230
         H           -3.221964951140     2.510540287336    -0.427443194425     1.007825032230
         H           -3.411580951140     1.384618287336     0.930898805575     1.007825032230
         H           -2.058055951140     2.533516287336     0.912885805575     1.007825032230
         H            3.215150048860     2.503819287336     0.431522805575     1.007825032230
         H            3.413072048860     1.358779287336    -0.909506194425     1.007825032230
         H            2.069239048860     2.519107287336    -0.924439194425     1.007825032230

  Basis Set: AUG-CC-PVTZ
    Blend: AUG-CC-PVTZ
  Basis Set: (AUG-CC-PVTZ AUX)
    Blend: AUG-CC-PVTZ-JKFIT
	 Reference Energy          =    -797.8294044309121773 [Eh]
	 Singles Energy            =      -0.0000000000000000 [Eh]
	 Same-Spin Energy          =      -0.4992345045732056 [Eh]
	 Opposite-Spin Energy      =      -1.5481090419808496 [Eh]
	 Correlation Energy        =      -2.0473435465540550 [Eh]
	 Total Energy              =    -799.8767479774662661 [Eh]

	 ================> DF-SCS-MP2 Energies <==================
	-----------------------------------------------------------
	 SCS Same-Spin Scale       =       0.3333333333333333 [-]
	 SCS Opposite-Spin Scale   =       1.2000000000000000 [-]
	 SCS Same-Spin Energy      =      -0.1664115015244019 [Eh]
	 SCS Opposite-Spin Energy  =      -1.8577308503770196 [Eh]
	 SCS Correlation Energy    =      -2.0241423519014212 [Eh]
	 SCS Total Energy          =    -799.8535467828136234 [Eh]
	-----------------------------------------------------------

  Dipole Moment: [D]
     X:    -0.5754      Y:     7.0128      Z:     0.0531     Total:     7.0366

*** Psi4 exiting successfully. Buy a developer a beer!
