                               Psi4 1.3.2 release

  ==> Input File <==

--------------------------------------------------------------------------
#psi4
#
memory 32 gb

molecule  {
-1 1
  P       -0.0010900    -1.0890910     0.0004590
  O       -1.1082600    -0.0134502     0.5403431
  O        1.1506610    -0.0285350    -0.5585640
  O        0.5034080    -1.8082920     1.2241620
  O       -0.5057790    -1.8082590    -1.2231120
  C       -1.8201030     0.7715450    -0.4363210
  C        1.8136140     0.7766970     0.4358730
  C       -2.6746040     1.7890640     0.2877210
  C        2.6862580     1.7776730    -0.2896530
  H       -1.0464281     1.2500999    -1.0472392
  H       -2.4287840     0.1238470    -1.0755890
  H        1.0642060     1.2858700     1.0522800
  H        2.4084330     0.1312990     1.0903160
  H       -3.2148500     2.4129370    -0.4309050
  H       -3.4044660     1.2870150     0.9274370
  H       -2.0509410     2.4359130     0.9094240
  H        3.2222650     2.4062160     0.4280610
  H        3.4201870     1.2611760    -0.9129680
  H        2.0763540     2.4215040    -0.9279010
units angstrom
no_reorient  #important for SAPT in psi4, default
symmetry c1  #important for SAPT in psi4, default
}

set PROPERTIES_ORIGIN ["COM"]
properties('MP2/aug-cc-pvtz', properties = ['dipole'])
--------------------------------------------------------------------------

    Molecular point group: c1
  Charge       = -1
  Multiplicity = 1
  Basis Set: AUG-CC-PVTZ
    Blend: AUG-CC-PVTZ
  Basis Set: (AUG-CC-PVTZ AUX)
    Blend: AUG-CC-PVTZ-JKFIT

    Orbital Energies [Eh]
    ---------------------

    Doubly Occupied:

       1A    -79.876214     2A    -20.403467     3A    -20.400809
       4A    -20.302397     5A    -20.302295     6A    -11.146958
       7A    -11.143059     8A    -11.107194     9A    -11.103696
      10A     -7.392132    11A     -5.291083    12A     -5.290083
      13A     -5.288746    14A     -1.238645    15A     -1.187425
      16A     -1.097986    17A     -1.058310    18A     -0.896254
      19A     -0.890154    20A     -0.717263    21A     -0.711787
      22A     -0.599790    23A     -0.540083    24A     -0.530376
      25A     -0.506306    26A     -0.460514    27A     -0.448562
      28A     -0.443245    29A     -0.424436    30A     -0.423569
      31A     -0.401301    32A     -0.398580    33A     -0.367429
      34A     -0.360018    35A     -0.329068    36A     -0.307858
      37A     -0.303860    38A     -0.283925    39A     -0.265960
      40A     -0.249569    41A     -0.235207

  @DF-RHF Final Energy:  -797.83917532532132

   => Energetics <=

    Nuclear Repulsion Energy =            614.4073165618932535
    One-Electron Energy =               -2335.0417602253255609
    Two-Electron Energy =                 922.7952683381108727
    Total Energy =                       -797.8391753253213210
  Basis Set: (AUG-CC-PVTZ AUX)
    Blend: AUG-CC-PVTZ-RI
    Molecular point group: c1

    Geometry (in Angstrom), charge = -1, multiplicity = 1:

       Center              X                  Y                   Z               Mass
    ------------   -----------------  -----------------  -----------------  -----------------
         P           -0.005761129125    -0.986248922426     0.002262373476    30.973761998420
         O           -1.112931129125     0.089391877574     0.542146473476    15.994914619570
         O            1.145989870875     0.074307077574    -0.556760626524    15.994914619570
         O            0.498736870875    -1.705449922426     1.225965373476    15.994914619570
         O           -0.510450129125    -1.705416922426    -1.221308626524    15.994914619570
         C           -1.824774129125     0.874387077574    -0.434517626524    12.000000000000
         C            1.808942870875     0.879539077574     0.437676373476    12.000000000000
         C           -2.679275129125     1.891906077574     0.289524373476    12.000000000000
         C            2.681586870875     1.880515077574    -0.287849626524    12.000000000000
         H           -1.051099229125     1.352941977574    -1.045435826524     1.007825032230
         H           -2.433455129125     0.226689077574    -1.073785626524     1.007825032230
         H            1.059534870875     1.388712077574     1.054083373476     1.007825032230
         H            2.403761870875     0.234141077574     1.092119373476     1.007825032230
         H           -3.219521129125     2.515779077574    -0.429101626524     1.007825032230
         H           -3.409137129125     1.389857077574     0.929240373476     1.007825032230
         H           -2.055612129125     2.538755077574     0.911227373476     1.007825032230
         H            3.217593870875     2.509058077574     0.429864373476     1.007825032230
         H            3.415515870875     1.364018077574    -0.911164626524     1.007825032230
         H            2.071682870875     2.524346077574    -0.926097626524     1.007825032230

  Basis Set: AUG-CC-PVTZ
    Blend: AUG-CC-PVTZ
  Basis Set: (AUG-CC-PVTZ AUX)
    Blend: AUG-CC-PVTZ-JKFIT
	 Reference Energy          =    -797.8391753253213210 [Eh]
	 Singles Energy            =      -0.0000000000000000 [Eh]
	 Same-Spin Energy          =      -0.4976403049941142 [Eh]
	 Opposite-Spin Energy      =      -1.5442044088219242 [Eh]
	 Correlation Energy        =      -2.0418447138160385 [Eh]
	 Total Energy              =    -799.8810200391374110 [Eh]

	 ================> DF-SCS-MP2 Energies <==================
	-----------------------------------------------------------
	 SCS Same-Spin Scale       =       0.3333333333333333 [-]
	 SCS Opposite-Spin Scale   =       1.2000000000000000 [-]
	 SCS Same-Spin Energy      =      -0.1658801016647047 [Eh]
	 SCS Opposite-Spin Energy  =      -1.8530452905863091 [Eh]
	 SCS Correlation Energy    =      -2.0189253922510138 [Eh]
	 SCS Total Energy          =    -799.8581007175723698 [Eh]
	-----------------------------------------------------------

  Dipole Moment: [D]
     X:    -0.1964      Y:     7.5436      Z:     0.0417     Total:     7.5463

*** Psi4 exiting successfully. Buy a developer a beer!
