                               Psi4 1.3.2 release

  ==> Input File <==

--------------------------------------------------------------------------
#psi4
#
memory 32 gb

molecule  {
-1 1
  P       -0.0010900    -1.0890910     0.0004590
  O       -1.1524220    -0.0281740     0.5594010
  O        1.1506610    -0.0285350    -0.5585640
  O        0.5034080    -1.8082920     1.2241620
  O       -0.5057790    -1.8082590    -1.2231120
  C       -1.8201030     0.7715450    -0.4363210
  C        1.8596168     0.8325727     0.5048777
  C       -2.6746040     1.7890640     0.2877210
  C        2.6862580     1.7776730    -0.2896530
  H       -1.0739810     1.2667980    -1.0678550
  H       -2.4287840     0.1238470    -1.0755890
  H        1.0642060     1.2858700     1.0522800
  H        2.4084330     0.1312990     1.0903160
  H       -3.2148500     2.4129370    -0.4309050
  H       -3.4044660     1.2870150     0.9274370
  H       -2.0509410     2.4359130     0.9094240
  H        3.2222650     2.4062160     0.4280610
  H        3.4201870     1.2611760    -0.9129680
  H        2.0763540     2.4215040    -0.9279010
units angstrom
no_reorient  #important for SAPT in psi4, default
symmetry c1  #important for SAPT in psi4, default
}

set PROPERTIES_ORIGIN ["COM"]
properties('MP2/aug-cc-pvtz', properties = ['dipole'])
--------------------------------------------------------------------------

    Molecular point group: c1
  Charge       = -1
  Multiplicity = 1
  Basis Set: AUG-CC-PVTZ
    Blend: AUG-CC-PVTZ
  Basis Set: (AUG-CC-PVTZ AUX)
    Blend: AUG-CC-PVTZ-JKFIT

    Orbital Energies [Eh]
    ---------------------

    Doubly Occupied:

       1A    -79.873728     2A    -20.401597     3A    -20.395351
       4A    -20.300063     5A    -20.299647     6A    -11.147147
       7A    -11.142847     8A    -11.108995     9A    -11.103931
      10A     -7.389210    11A     -5.288054    12A     -5.287172
      13A     -5.285882    14A     -1.223390    15A     -1.166608
      16A     -1.092435    17A     -1.055676    18A     -0.905474
      19A     -0.890879    20A     -0.720078    21A     -0.711640
      22A     -0.590358    23A     -0.531848    24A     -0.528636
      25A     -0.509698    26A     -0.455531    27A     -0.449502
      28A     -0.441043    29A     -0.421924    30A     -0.416483
      31A     -0.400655    32A     -0.389991    33A     -0.373492
      34A     -0.362254    35A     -0.325703    36A     -0.312498
      37A     -0.302570    38A     -0.280206    39A     -0.261946
      40A     -0.246418    41A     -0.232309

  @DF-RHF Final Energy:  -797.82736488485102

   => Energetics <=

    Nuclear Repulsion Energy =            611.2348646145895827
    One-Electron Energy =               -2328.8787205969215393
    Two-Electron Energy =                 919.8164910974808208
    Total Energy =                       -797.8273648848510220
  Basis Set: (AUG-CC-PVTZ AUX)
    Blend: AUG-CC-PVTZ-RI
    Molecular point group: c1

    Geometry (in Angstrom), charge = -1, multiplicity = 1:

       Center              X                  Y                   Z               Mass
    ------------   -----------------  -----------------  -----------------  -----------------
         P           -0.004571164193    -0.989201456611    -0.005004806959    30.973761998420
         O           -1.155903164193     0.071715543389     0.553937193041    15.994914619570
         O            1.147179835807     0.071354543389    -0.564027806959    15.994914619570
         O            0.499926835807    -1.708402456611     1.218698193041    15.994914619570
         O           -0.509260164193    -1.708369456611    -1.228575806959    15.994914619570
         C           -1.823584164193     0.871434543389    -0.441784806959    12.000000000000
         C            1.856135635807     0.932462243389     0.499413893041    12.000000000000
         C           -2.678085164193     1.888953543389     0.282257193041    12.000000000000
         C            2.682776835807     1.877562543389    -0.295116806959    12.000000000000
         H           -1.077462164193     1.366687543389    -1.073318806959     1.007825032230
         H           -2.432265164193     0.223736543389    -1.081052806959     1.007825032230
         H            1.060724835807     1.385759543389     1.046816193041     1.007825032230
         H            2.404951835807     0.231188543389     1.084852193041     1.007825032230
         H           -3.218331164193     2.512826543389    -0.436368806959     1.007825032230
         H           -3.407947164193     1.386904543389     0.921973193041     1.007825032230
         H           -2.054422164193     2.535802543389     0.903960193041     1.007825032230
         H            3.218783835807     2.506105543389     0.422597193041     1.007825032230
         H            3.416705835807     1.361065543389    -0.918431806959     1.007825032230
         H            2.072872835807     2.521393543389    -0.933364806959     1.007825032230

  Basis Set: AUG-CC-PVTZ
    Blend: AUG-CC-PVTZ
  Basis Set: (AUG-CC-PVTZ AUX)
    Blend: AUG-CC-PVTZ-JKFIT
	 Reference Energy          =    -797.8273648848510220 [Eh]
	 Singles Energy            =      -0.0000000000000000 [Eh]
	 Same-Spin Energy          =      -0.4984787953763404 [Eh]
	 Opposite-Spin Energy      =      -1.5470422354967437 [Eh]
	 Correlation Energy        =      -2.0455210308730840 [Eh]
	 Total Energy              =    -799.8728859157240549 [Eh]

	 ================> DF-SCS-MP2 Energies <==================
	-----------------------------------------------------------
	 SCS Same-Spin Scale       =       0.3333333333333333 [-]
	 SCS Opposite-Spin Scale   =       1.2000000000000000 [-]
	 SCS Same-Spin Energy      =      -0.1661595984587801 [Eh]
	 SCS Opposite-Spin Energy  =      -1.8564506825960922 [Eh]
	 SCS Correlation Energy    =      -2.0226102810548725 [Eh]
	 SCS Total Energy          =    -799.8499751659059029 [Eh]
	-----------------------------------------------------------

  Dipole Moment: [D]
     X:     0.2809      Y:     7.7664      Z:     0.1447     Total:     7.7728

*** Psi4 exiting successfully. Buy a developer a beer!
