                               Psi4 1.4a3.dev225

  ==> Input File <==

--------------------------------------------------------------------------
#psi4
#
memory 32 gb

molecule  {
-1 1
  P        0.0000000     1.0872980     0.0000000
  O       -1.1564220     0.0305830    -0.5476420
  O        1.1564220     0.0305830     0.5476420
  O        0.4989808     1.8187549    -1.2439659
  O       -0.4924450     1.8091740     1.2276720
  C       -1.7989910    -0.7944120     0.4410350
  C        1.7989910    -0.7944120    -0.4410350
  C       -2.7063440    -1.7646140    -0.2844450
  C        2.7063440    -1.7646150     0.2844450
  H       -1.0386670    -1.3302830     1.0205350
  H       -2.3670280    -0.1617970     1.1311080
  H        1.0386660    -1.3302840    -1.0205350
  H        2.3670280    -0.1617970    -1.1311080
  H       -3.2237520    -2.4090830     0.4325060
  H       -3.4553630    -1.2226600    -0.8671100
  H       -2.1260300    -2.3948090    -0.9629160
  H        3.2237520    -2.4090830    -0.4325060
  H        3.4553630    -1.2226600     0.8671100
  H        2.1260300    -2.3948090     0.9629160
units angstrom
no_reorient  #important for SAPT in psi4, default
symmetry c1  #important for SAPT in psi4, default
}

set PROPERTIES_ORIGIN ["COM"]
properties('MP2/aug-cc-pvtz', properties = ['dipole'])
--------------------------------------------------------------------------

    Molecular point group: c1
  Charge       = -1
  Multiplicity = 1
  Basis Set: AUG-CC-PVTZ
    Blend: AUG-CC-PVTZ
  Basis Set: (AUG-CC-PVTZ AUX)
    Blend: AUG-CC-PVTZ-JKFIT

    Orbital Energies [Eh]
    ---------------------

    Doubly Occupied:

       1A    -79.882592     2A    -20.406346     3A    -20.406268
       4A    -20.304740     5A    -20.303702     6A    -11.146406
       7A    -11.145978     8A    -11.105853     9A    -11.105648
      10A     -7.397436    11A     -5.296393    12A     -5.295440
      13A     -5.293922    14A     -1.237037    15A     -1.190326
      16A     -1.095825    17A     -1.054939    18A     -0.895694
      19A     -0.891614    20A     -0.715746    21A     -0.714160
      22A     -0.602126    23A     -0.540906    24A     -0.530968
      25A     -0.508000    26A     -0.459277    27A     -0.449842
      28A     -0.444155    29A     -0.424576    30A     -0.423079
      31A     -0.400956    32A     -0.400380    33A     -0.366246
      34A     -0.361901    35A     -0.328952    36A     -0.308683
      37A     -0.307099    38A     -0.282155    39A     -0.266037
      40A     -0.248587    41A     -0.234666

  @DF-RHF Final Energy:  -797.83675778719862

   => Energetics <=

    Nuclear Repulsion Energy =            612.1950116914305227
    One-Electron Energy =               -2330.5142263531442950
    Two-Electron Energy =                 920.4824568745152646
    Total Energy =                       -797.8367577871986214
  Basis Set: (AUG-CC-PVTZ AUX)
    Blend: AUG-CC-PVTZ-RI
    Molecular point group: c1

    Geometry (in Angstrom), charge = -1, multiplicity = 1:

       Center              X                  Y                   Z               Mass
    ------------   -----------------  -----------------  -----------------  -----------------
         P           -0.000683117126     0.982006727579     0.001703043154    30.973761998420
         O           -1.157105117126    -0.074708272421    -0.545938956846    15.994914619570
         O            1.155738882874    -0.074708272421     0.549345043154    15.994914619570
         O            0.498297682874     1.713463627579    -1.242262856846    15.994914619570
         O           -0.493128117126     1.703882727579     1.229375043154    15.994914619570
         C           -1.799674117126    -0.899703272421     0.442738043154    12.000000000000
         C            1.798307882874    -0.899703272421    -0.439331956846    12.000000000000
         C           -2.707027117126    -1.869905272421    -0.282741956846    12.000000000000
         C            2.705660882874    -1.869906272421     0.286148043154    12.000000000000
         H           -1.039350117126    -1.435574272421     1.022238043154     1.007825032230
         H           -2.367711117126    -0.267088272421     1.132811043154     1.007825032230
         H            1.037982882874    -1.435575272421    -1.018831956846     1.007825032230
         H            2.366344882874    -0.267088272421    -1.129404956846     1.007825032230
         H           -3.224435117126    -2.514374272421     0.434209043154     1.007825032230
         H           -3.456046117126    -1.327951272421    -0.865406956846     1.007825032230
         H           -2.126713117126    -2.500100272421    -0.961212956846     1.007825032230
         H            3.223068882874    -2.514374272421    -0.430802956846     1.007825032230
         H            3.454679882874    -1.327951272421     0.868813043154     1.007825032230
         H            2.125346882874    -2.500100272421     0.964619043154     1.007825032230

  Basis Set: AUG-CC-PVTZ
    Blend: AUG-CC-PVTZ
  Basis Set: (AUG-CC-PVTZ AUX)
    Blend: AUG-CC-PVTZ-JKFIT
	 Reference Energy          =    -797.8367577871986214 [Eh]
	 Singles Energy            =      -0.0000000000000000 [Eh]
	 Same-Spin Energy          =      -0.4982171829757083 [Eh]
	 Opposite-Spin Energy      =      -1.5458341050637896 [Eh]
	 Correlation Energy        =      -2.0440512880394981 [Eh]
	 Total Energy              =    -799.8808090752381759 [Eh]

	 ================> DF-SCS-MP2 Energies <==================
	-----------------------------------------------------------
	 SCS Same-Spin Scale       =       0.3333333333333333 [-]
	 SCS Opposite-Spin Scale   =       1.2000000000000000 [-]
	 SCS Same-Spin Energy      =      -0.1660723943252361 [Eh]
	 SCS Opposite-Spin Energy  =      -1.8550009260765474 [Eh]
	 SCS Correlation Energy    =      -2.0210733204017837 [Eh]
	 SCS Total Energy          =    -799.8578311076004184 [Eh]
	-----------------------------------------------------------

  Dipole Moment: [D]
     X:    -0.0397      Y:    -7.6466      Z:     0.0926     Total:     7.6473

*** Psi4 exiting successfully. Buy a developer a beer!
