                               Psi4 1.3.2 release

  ==> Input File <==

--------------------------------------------------------------------------
#psi4
#
memory 32 gb

molecule  {
-1 1
  P       -0.0010900    -1.0890910     0.0004590
  O       -1.1440492    -0.0170459     0.5553373
  O        1.1422915    -0.0174032    -0.5545006
  O        0.5034080    -1.8082920     1.2241620
  O       -0.5057790    -1.8082590    -1.2231120
  C       -1.8201030     0.7715450    -0.4363210
  C        1.8136140     0.7766970     0.4358730
  C       -2.6746040     1.7890640     0.2877210
  C        2.6862580     1.7776730    -0.2896530
  H       -1.0739810     1.2667980    -1.0678550
  H       -2.4287840     0.1238470    -1.0755890
  H        1.0642060     1.2858700     1.0522800
  H        2.4084330     0.1312990     1.0903160
  H       -3.2148500     2.4129370    -0.4309050
  H       -3.4044660     1.2870150     0.9274370
  H       -2.0509410     2.4359130     0.9094240
  H        3.2222650     2.4062160     0.4280610
  H        3.4201870     1.2611760    -0.9129680
  H        2.0763540     2.4215040    -0.9279010
units angstrom
no_reorient  #important for SAPT in psi4, default
symmetry c1  #important for SAPT in psi4, default
}

set PROPERTIES_ORIGIN ["COM"]
properties('MP2/aug-cc-pvtz', properties = ['dipole'])
--------------------------------------------------------------------------

    Molecular point group: c1
  Charge       = -1
  Multiplicity = 1
  Basis Set: AUG-CC-PVTZ
    Blend: AUG-CC-PVTZ
  Basis Set: (AUG-CC-PVTZ AUX)
    Blend: AUG-CC-PVTZ-JKFIT

    Orbital Energies [Eh]
    ---------------------

    Doubly Occupied:

       1A    -79.879824     2A    -20.403818     3A    -20.403799
       4A    -20.304722     5A    -20.304684     6A    -11.144144
       7A    -11.144095     8A    -11.104477     9A    -11.104441
      10A     -7.395324    11A     -5.294214    12A     -5.293263
      13A     -5.291936    14A     -1.236455    15A     -1.188553
      16A     -1.100329    17A     -1.060243    18A     -0.894195
      19A     -0.889965    20A     -0.714043    21A     -0.712694
      22A     -0.600520    23A     -0.539508    24A     -0.529839
      25A     -0.506538    26A     -0.459014    27A     -0.448935
      28A     -0.442976    29A     -0.423330    30A     -0.422896
      31A     -0.401623    32A     -0.398730    33A     -0.366900
      34A     -0.360002    35A     -0.330941    36A     -0.306978
      37A     -0.304104    38A     -0.285241    39A     -0.267499
      40A     -0.251706    41A     -0.237378

  @DF-RHF Final Energy:  -797.83929277795312

   => Energetics <=

    Nuclear Repulsion Energy =            613.4386013137409464
    One-Electron Energy =               -2333.0560406031067942
    Two-Electron Energy =                 921.7781465114127286
    Total Energy =                       -797.8392927779531192
  Basis Set: (AUG-CC-PVTZ AUX)
    Blend: AUG-CC-PVTZ-RI
    Molecular point group: c1

    Geometry (in Angstrom), charge = -1, multiplicity = 1:

       Center              X                  Y                   Z               Mass
    ------------   -----------------  -----------------  -----------------  -----------------
         P           -0.000964193075    -0.987146566937     0.000406237658    30.973761998420
         O           -1.143923393075     0.084898533063     0.555284537658    15.994914619570
         O            1.142417306925     0.084541233063    -0.554553362342    15.994914619570
         O            0.503533806925    -1.706347566937     1.224109237658    15.994914619570
         O           -0.505653193075    -1.706314566937    -1.223164762342    15.994914619570
         C           -1.819977193075     0.873489433063    -0.436373762342    12.000000000000
         C            1.813739806925     0.878641433063     0.435820237658    12.000000000000
         C           -2.674478193075     1.891008433063     0.287668237658    12.000000000000
         C            2.686383806925     1.879617433063    -0.289705762342    12.000000000000
         H           -1.073855193075     1.368742433063    -1.067907762342     1.007825032230
         H           -2.428658193075     0.225791433063    -1.075641762342     1.007825032230
         H            1.064331806925     1.387814433063     1.052227237658     1.007825032230
         H            2.408558806925     0.233243433063     1.090263237658     1.007825032230
         H           -3.214724193075     2.514881433063    -0.430957762342     1.007825032230
         H           -3.404340193075     1.388959433063     0.927384237658     1.007825032230
         H           -2.050815193075     2.537857433063     0.909371237658     1.007825032230
         H            3.222390806925     2.508160433063     0.428008237658     1.007825032230
         H            3.420312806925     1.363120433063    -0.913020762342     1.007825032230
         H            2.076479806925     2.523448433063    -0.927953762342     1.007825032230

  Basis Set: AUG-CC-PVTZ
    Blend: AUG-CC-PVTZ
  Basis Set: (AUG-CC-PVTZ AUX)
    Blend: AUG-CC-PVTZ-JKFIT
	 Reference Energy          =    -797.8392927779531192 [Eh]
	 Singles Energy            =      -0.0000000000000000 [Eh]
	 Same-Spin Energy          =      -0.4978830535468739 [Eh]
	 Opposite-Spin Energy      =      -1.5448778667400964 [Eh]
	 Correlation Energy        =      -2.0427609202869705 [Eh]
	 Total Energy              =    -799.8820536982400426 [Eh]

	 ================> DF-SCS-MP2 Energies <==================
	-----------------------------------------------------------
	 SCS Same-Spin Scale       =       0.3333333333333333 [-]
	 SCS Opposite-Spin Scale   =       1.2000000000000000 [-]
	 SCS Same-Spin Energy      =      -0.1659610178489579 [Eh]
	 SCS Opposite-Spin Energy  =      -1.8538534400881157 [Eh]
	 SCS Correlation Energy    =      -2.0198144579370738 [Eh]
	 SCS Total Energy          =    -799.8591072358901783 [Eh]
	-----------------------------------------------------------

  Dipole Moment: [D]
     X:    -0.0007      Y:     7.4310      Z:    -0.0034     Total:     7.4310

*** Psi4 exiting successfully. Buy a developer a beer!
