                               Psi4 1.3.2 release

  ==> Input File <==

--------------------------------------------------------------------------
#psi4
#
memory 32 gb

molecule  {
-1 1
  P       -0.0143647    -1.1144320    -0.0817422
  O       -1.1524220    -0.0281740     0.5594010
  O        1.1506610    -0.0285350    -0.5585640
  O        0.5034080    -1.8082920     1.2241620
  O       -0.5057790    -1.8082590    -1.2231120
  C       -1.8201030     0.7715450    -0.4363210
  C        1.8538419     0.8084341     0.3804938
  C       -2.6746040     1.7890640     0.2877210
  C        2.6862580     1.7776730    -0.2896530
  H       -1.0739810     1.2667980    -1.0678550
  H       -2.4287840     0.1238470    -1.0755890
  H        1.0642060     1.2858700     1.0522800
  H        2.4084330     0.1312990     1.0903160
  H       -3.2148500     2.4129370    -0.4309050
  H       -3.4044660     1.2870150     0.9274370
  H       -2.0509410     2.4359130     0.9094240
  H        3.2222650     2.4062160     0.4280610
  H        3.4201870     1.2611760    -0.9129680
  H        2.0763540     2.4215040    -0.9279010
units angstrom
no_reorient  #important for SAPT in psi4, default
symmetry c1  #important for SAPT in psi4, default
}

set PROPERTIES_ORIGIN ["COM"]
properties('MP2/aug-cc-pvtz', properties = ['dipole'])
--------------------------------------------------------------------------

    Molecular point group: c1
  Charge       = -1
  Multiplicity = 1
  Basis Set: AUG-CC-PVTZ
    Blend: AUG-CC-PVTZ
  Basis Set: (AUG-CC-PVTZ AUX)
    Blend: AUG-CC-PVTZ-JKFIT

    Orbital Energies [Eh]
    ---------------------

    Doubly Occupied:

       1A    -79.878436     2A    -20.400806     3A    -20.398058
       4A    -20.321784     5A    -20.292569     6A    -11.146686
       7A    -11.140936     8A    -11.103189     9A    -11.102354
      10A     -7.395311    11A     -5.293867    12A     -5.293468
      13A     -5.291816    14A     -1.230084    15A     -1.179728
      16A     -1.134192    17A     -1.040684    18A     -0.909531
      19A     -0.887613    20A     -0.708476    21A     -0.705063
      22A     -0.594387    23A     -0.535750    24A     -0.524755
      25A     -0.503885    26A     -0.465493    27A     -0.452085
      28A     -0.444494    29A     -0.426629    30A     -0.418798
      31A     -0.403827    32A     -0.392994    33A     -0.372002
      34A     -0.358817    35A     -0.333690    36A     -0.303560
      37A     -0.296148    38A     -0.287640    39A     -0.285723
      40A     -0.235946    41A     -0.231504

  @DF-RHF Final Energy:  -797.81904410641368

   => Energetics <=

    Nuclear Repulsion Energy =            612.4932170470960955
    One-Electron Energy =               -2331.1789684559685156
    Two-Electron Energy =                 920.8667073024587353
    Total Energy =                       -797.8190441064136849
  Basis Set: (AUG-CC-PVTZ AUX)
    Blend: AUG-CC-PVTZ-RI
    Molecular point group: c1

    Geometry (in Angstrom), charge = -1, multiplicity = 1:

       Center              X                  Y                   Z               Mass
    ------------   -----------------  -----------------  -----------------  -----------------
         P           -0.014706212147    -1.007520581353    -0.060814821503    30.973761998420
         O           -1.152763512147     0.078737418647     0.580328378497    15.994914619570
         O            1.150319487853     0.078376418647    -0.537636621503    15.994914619570
         O            0.503066487853    -1.701380581353     1.245089378497    15.994914619570
         O           -0.506120512147    -1.701347581353    -1.202184621503    15.994914619570
         C           -1.820444512147     0.878456418647    -0.415393621503    12.000000000000
         C            1.853500387853     0.915345518647     0.401421178497    12.000000000000
         C           -2.674945512147     1.895975418647     0.308648378497    12.000000000000
         C            2.685916487853     1.884584418647    -0.268725621503    12.000000000000
         H           -1.074322512147     1.373709418647    -1.046927621503     1.007825032230
         H           -2.429125512147     0.230758418647    -1.054661621503     1.007825032230
         H            1.063864487853     1.392781418647     1.073207378497     1.007825032230
         H            2.408091487853     0.238210418647     1.111243378497     1.007825032230
         H           -3.215191512147     2.519848418647    -0.409977621503     1.007825032230
         H           -3.404807512147     1.393926418647     0.948364378497     1.007825032230
         H           -2.051282512147     2.542824418647     0.930351378497     1.007825032230
         H            3.221923487853     2.513127418647     0.448988378497     1.007825032230
         H            3.419845487853     1.368087418647    -0.892040621503     1.007825032230
         H            2.076012487853     2.528415418647    -0.906973621503     1.007825032230

  Basis Set: AUG-CC-PVTZ
    Blend: AUG-CC-PVTZ
  Basis Set: (AUG-CC-PVTZ AUX)
    Blend: AUG-CC-PVTZ-JKFIT
	 Reference Energy          =    -797.8190441064136849 [Eh]
	 Singles Energy            =      -0.0000000000000000 [Eh]
	 Same-Spin Energy          =      -0.4984001937926631 [Eh]
	 Opposite-Spin Energy      =      -1.5457215449433612 [Eh]
	 Correlation Energy        =      -2.0441217387360244 [Eh]
	 Total Energy              =    -799.8631658451497515 [Eh]

	 ================> DF-SCS-MP2 Energies <==================
	-----------------------------------------------------------
	 SCS Same-Spin Scale       =       0.3333333333333333 [-]
	 SCS Opposite-Spin Scale   =       1.2000000000000000 [-]
	 SCS Same-Spin Energy      =      -0.1661333979308877 [Eh]
	 SCS Opposite-Spin Energy  =      -1.8548658539320333 [Eh]
	 SCS Correlation Energy    =      -2.0209992518629210 [Eh]
	 SCS Total Energy          =    -799.8400433582766027 [Eh]
	-----------------------------------------------------------

  Dipole Moment: [D]
     X:    -0.0452      Y:     7.2664      Z:    -0.9398     Total:     7.3270

*** Psi4 exiting successfully. Buy a developer a beer!
