                               Psi4 1.3.2 release

  ==> Input File <==

--------------------------------------------------------------------------
#psi4
#
memory 32 gb

molecule  {
-1 1
  P       -0.0010900    -1.0890910     0.0004590
  O       -1.1580418    -0.0214948     0.5684544
  O        1.1506610    -0.0285350    -0.5585640
  O        0.5034080    -1.8082920     1.2241620
  O       -0.5057790    -1.8082590    -1.2231120
  C       -1.8201030     0.7715450    -0.4363210
  C        1.8136140     0.7766970     0.4358730
  C       -2.6705302     1.7841682     0.2992886
  C        2.6862580     1.7776730    -0.2896530
  H       -1.0739810     1.2667980    -1.0678550
  H       -2.4287840     0.1238470    -1.0755890
  H        1.0642060     1.2858700     1.0522800
  H        2.4084330     0.1312990     1.0903160
  H       -3.2148500     2.4129370    -0.4309050
  H       -3.4044660     1.2870150     0.9274370
  H       -2.0509410     2.4359130     0.9094240
  H        3.2222650     2.4062160     0.4280610
  H        3.4201870     1.2611760    -0.9129680
  H        2.0763540     2.4215040    -0.9279010
units angstrom
no_reorient  #important for SAPT in psi4, default
symmetry c1  #important for SAPT in psi4, default
}

set PROPERTIES_ORIGIN ["COM"]
properties('MP2/aug-cc-pvtz', properties = ['dipole'])
--------------------------------------------------------------------------

    Molecular point group: c1
  Charge       = -1
  Multiplicity = 1
  Basis Set: AUG-CC-PVTZ
    Blend: AUG-CC-PVTZ
  Basis Set: (AUG-CC-PVTZ AUX)
    Blend: AUG-CC-PVTZ-JKFIT

    Orbital Energies [Eh]
    ---------------------

    Doubly Occupied:

       1A    -79.880397     2A    -20.405406     3A    -20.404355
       4A    -20.304956     5A    -20.304207     6A    -11.145168
       7A    -11.144109     8A    -11.105120     9A    -11.104172
      10A     -7.395786    11A     -5.294618    12A     -5.293747
      13A     -5.292385    14A     -1.233962    15A     -1.187140
      16A     -1.099999    17A     -1.060153    18A     -0.894163
      19A     -0.889892    20A     -0.713935    21A     -0.712293
      22A     -0.599576    23A     -0.538165    24A     -0.529410
      25A     -0.507453    26A     -0.457887    27A     -0.448427
      28A     -0.442233    29A     -0.423567    30A     -0.420337
      31A     -0.400733    32A     -0.399657    33A     -0.367087
      34A     -0.361119    35A     -0.331579    36A     -0.307540
      37A     -0.305561    38A     -0.284683    39A     -0.267072
      40A     -0.251624    41A     -0.237268

  @DF-RHF Final Energy:  -797.83768343112911

   => Energetics <=

    Nuclear Repulsion Energy =            612.7935129936473686
    One-Electron Energy =               -2331.7685173484428560
    Two-Electron Energy =                 921.1373209236664934
    Total Energy =                       -797.8376834311291077
  Basis Set: (AUG-CC-PVTZ AUX)
    Blend: AUG-CC-PVTZ-RI
    Molecular point group: c1

    Geometry (in Angstrom), charge = -1, multiplicity = 1:

       Center              X                  Y                   Z               Mass
    ------------   -----------------  -----------------  -----------------  -----------------
         P           -0.000695912632    -0.985134162808    -0.001447132674    30.973761998420
         O           -1.157647712632     0.082462037192     0.566548267326    15.994914619570
         O            1.151055087368     0.075421837192    -0.560470132674    15.994914619570
         O            0.503802087368    -1.704335162808     1.222255867326    15.994914619570
         O           -0.505384912632    -1.704302162808    -1.225018132674    15.994914619570
         C           -1.819708912632     0.875501837192    -0.438227132674    12.000000000000
         C            1.814008087368     0.880653837192     0.433966867326    12.000000000000
         C           -2.670136112632     1.888125037192     0.297382467326    12.000000000000
         C            2.686652087368     1.881629837192    -0.291559132674    12.000000000000
         H           -1.073586912632     1.370754837192    -1.069761132674     1.007825032230
         H           -2.428389912632     0.227803837192    -1.077495132674     1.007825032230
         H            1.064600087368     1.389826837192     1.050373867326     1.007825032230
         H            2.408827087368     0.235255837192     1.088409867326     1.007825032230
         H           -3.214455912632     2.516893837192    -0.432811132674     1.007825032230
         H           -3.404071912632     1.390971837192     0.925530867326     1.007825032230
         H           -2.050546912632     2.539869837192     0.907517867326     1.007825032230
         H            3.222659087368     2.510172837192     0.426154867326     1.007825032230
         H            3.420581087368     1.365132837192    -0.914874132674     1.007825032230
         H            2.076748087368     2.525460837192    -0.929807132674     1.007825032230

  Basis Set: AUG-CC-PVTZ
    Blend: AUG-CC-PVTZ
  Basis Set: (AUG-CC-PVTZ AUX)
    Blend: AUG-CC-PVTZ-JKFIT
	 Reference Energy          =    -797.8376834311291077 [Eh]
	 Singles Energy            =      -0.0000000000000000 [Eh]
	 Same-Spin Energy          =      -0.4980886281826304 [Eh]
	 Opposite-Spin Energy      =      -1.5455982189428286 [Eh]
	 Correlation Energy        =      -2.0436868471254588 [Eh]
	 Total Energy              =    -799.8813702782546216 [Eh]

	 ================> DF-SCS-MP2 Energies <==================
	-----------------------------------------------------------
	 SCS Same-Spin Scale       =       0.3333333333333333 [-]
	 SCS Opposite-Spin Scale   =       1.2000000000000000 [-]
	 SCS Same-Spin Energy      =      -0.1660295427275434 [Eh]
	 SCS Opposite-Spin Energy  =      -1.8547178627313943 [Eh]
	 SCS Correlation Energy    =      -2.0207474054589376 [Eh]
	 SCS Total Energy          =    -799.8584308365880133 [Eh]
	-----------------------------------------------------------

  Dipole Moment: [D]
     X:     0.0551      Y:     7.4476      Z:    -0.0126     Total:     7.4478

*** Psi4 exiting successfully. Buy a developer a beer!
