                               Psi4 1.3.2 release

  ==> Input File <==

--------------------------------------------------------------------------
#psi4
#
memory 32 gb

molecule  {
-1 1
  P       -0.0102930    -1.1063125    -0.0541854
  O       -1.1524220    -0.0281740     0.5594010
  O        1.1506610    -0.0285350    -0.5585640
  O        0.5034080    -1.8082920     1.2241620
  O       -0.5057790    -1.8082590    -1.2231120
  C       -1.8201030     0.7715450    -0.4363210
  C        1.8406414     0.7981058     0.3992471
  C       -2.6746040     1.7890640     0.2877210
  C        2.6862580     1.7776730    -0.2896530
  H       -1.0739810     1.2667980    -1.0678550
  H       -2.4287840     0.1238470    -1.0755890
  H        1.0642060     1.2858700     1.0522800
  H        2.4084330     0.1312990     1.0903160
  H       -3.2148500     2.4129370    -0.4309050
  H       -3.4044660     1.2870150     0.9274370
  H       -2.0509410     2.4359130     0.9094240
  H        3.2222650     2.4062160     0.4280610
  H        3.4201870     1.2611760    -0.9129680
  H        2.0763540     2.4215040    -0.9279010
units angstrom
no_reorient  #important for SAPT in psi4, default
symmetry c1  #important for SAPT in psi4, default
}

set PROPERTIES_ORIGIN ["COM"]
properties('MP2/aug-cc-pvtz', properties = ['dipole'])
--------------------------------------------------------------------------

    Molecular point group: c1
  Charge       = -1
  Multiplicity = 1
  Basis Set: AUG-CC-PVTZ
    Blend: AUG-CC-PVTZ
  Basis Set: (AUG-CC-PVTZ AUX)
    Blend: AUG-CC-PVTZ-JKFIT

    Orbital Energies [Eh]
    ---------------------

    Doubly Occupied:

       1A    -79.878968     2A    -20.401927     3A    -20.400299
       4A    -20.315878     5A    -20.296214     6A    -11.145843
       7A    -11.142276     8A    -11.103773     9A    -11.103239
      10A     -7.395101    11A     -5.293818    12A     -5.293130
      13A     -5.291698    14A     -1.231006    15A     -1.182403
      16A     -1.119405    17A     -1.050200    18A     -0.903682
      19A     -0.889152    20A     -0.710258    21A     -0.707621
      22A     -0.596185    23A     -0.536814    24A     -0.526081
      25A     -0.504660    26A     -0.461388    27A     -0.450691
      28A     -0.444400    29A     -0.425076    30A     -0.420355
      31A     -0.401940    32A     -0.394860    33A     -0.371063
      34A     -0.359023    35A     -0.332094    36A     -0.304024
      37A     -0.297493    38A     -0.288664    39A     -0.279589
      40A     -0.242617    41A     -0.235200

  @DF-RHF Final Energy:  -797.83027171170454

   => Energetics <=

    Nuclear Repulsion Energy =            612.6584262166147710
    One-Electron Energy =               -2331.5211779225664941
    Two-Electron Energy =                 921.0324799942471827
    Total Energy =                       -797.8302717117045404
  Basis Set: (AUG-CC-PVTZ AUX)
    Blend: AUG-CC-PVTZ-RI
    Molecular point group: c1

    Geometry (in Angstrom), charge = -1, multiplicity = 1:

       Center              X                  Y                   Z               Mass
    ------------   -----------------  -----------------  -----------------  -----------------
         P           -0.010423509201    -1.000234581111    -0.040306087821    30.973761998420
         O           -1.152552509201     0.077903918889     0.573280312179    15.994914619570
         O            1.150530490799     0.077542918889    -0.544684687821    15.994914619570
         O            0.503277490799    -1.702214081111     1.238041312179    15.994914619570
         O           -0.505909509201    -1.702181081111    -1.209232687821    15.994914619570
         C           -1.820233509201     0.877622918889    -0.422441687821    12.000000000000
         C            1.840510890799     0.904183718889     0.413126412179    12.000000000000
         C           -2.674734509201     1.895141918889     0.301600312179    12.000000000000
         C            2.686127490799     1.883750918889    -0.275773687821    12.000000000000
         H           -1.074111509201     1.372875918889    -1.053975687821     1.007825032230
         H           -2.428914509201     0.229924918889    -1.061709687821     1.007825032230
         H            1.064075490799     1.391947918889     1.066159312179     1.007825032230
         H            2.408302490799     0.237376918889     1.104195312179     1.007825032230
         H           -3.214980509201     2.519014918889    -0.417025687821     1.007825032230
         H           -3.404596509201     1.393092918889     0.941316312179     1.007825032230
         H           -2.051071509201     2.541990918889     0.923303312179     1.007825032230
         H            3.222134490799     2.512293918889     0.441940312179     1.007825032230
         H            3.420056490799     1.367253918889    -0.899088687821     1.007825032230
         H            2.076223490799     2.527581918889    -0.914021687821     1.007825032230

  Basis Set: AUG-CC-PVTZ
    Blend: AUG-CC-PVTZ
  Basis Set: (AUG-CC-PVTZ AUX)
    Blend: AUG-CC-PVTZ-JKFIT
	 Reference Energy          =    -797.8302717117045404 [Eh]
	 Singles Energy            =      -0.0000000000000000 [Eh]
	 Same-Spin Energy          =      -0.4981727527003803 [Eh]
	 Opposite-Spin Energy      =      -1.5453791534816972 [Eh]
	 Correlation Energy        =      -2.0435519061820777 [Eh]
	 Total Energy              =    -799.8738236178866146 [Eh]

	 ================> DF-SCS-MP2 Energies <==================
	-----------------------------------------------------------
	 SCS Same-Spin Scale       =       0.3333333333333333 [-]
	 SCS Opposite-Spin Scale   =       1.2000000000000000 [-]
	 SCS Same-Spin Energy      =      -0.1660575842334601 [Eh]
	 SCS Opposite-Spin Energy  =      -1.8544549841780364 [Eh]
	 SCS Correlation Energy    =      -2.0205125684114966 [Eh]
	 SCS Total Energy          =    -799.8507842801160450 [Eh]
	-----------------------------------------------------------

  Dipole Moment: [D]
     X:    -0.0344      Y:     7.3382      Z:    -0.6281     Total:     7.3651

*** Psi4 exiting successfully. Buy a developer a beer!
