                               Psi4 1.4a3.dev225

  ==> Input File <==

--------------------------------------------------------------------------
#psi4
#
memory 32 gb

molecule  {
-1 1
  P        0.0000000     1.0872980     0.0000000
  O       -1.1564220     0.0305830    -0.5476420
  O        1.1564220     0.0305830     0.5476420
  O        0.4924450     1.8091740    -1.2276720
  O       -0.4924450     1.8091740     1.2276720
  C       -1.7989910    -0.7944120     0.4410350
  C        1.7989910    -0.7944120    -0.4410350
  C       -2.7063440    -1.7646140    -0.2844450
  C        2.7063440    -1.7646150     0.2844450
  H       -1.0525424    -1.3205037     1.0099595
  H       -2.3670280    -0.1617970     1.1311080
  H        1.0386660    -1.3302840    -1.0205350
  H        2.3670280    -0.1617970    -1.1311080
  H       -3.2237520    -2.4090830     0.4325060
  H       -3.4553630    -1.2226600    -0.8671100
  H       -2.1260300    -2.3948090    -0.9629160
  H        3.2237520    -2.4090830    -0.4325060
  H        3.4553630    -1.2226600     0.8671100
  H        2.1260300    -2.3948090     0.9629160
units angstrom
no_reorient  #important for SAPT in psi4, default
symmetry c1  #important for SAPT in psi4, default
}

set PROPERTIES_ORIGIN ["COM"]
properties('MP2/aug-cc-pvtz', properties = ['dipole'])
--------------------------------------------------------------------------

    Molecular point group: c1
  Charge       = -1
  Multiplicity = 1
  Basis Set: AUG-CC-PVTZ
    Blend: AUG-CC-PVTZ
  Basis Set: (AUG-CC-PVTZ AUX)
    Blend: AUG-CC-PVTZ-JKFIT

    Orbital Energies [Eh]
    ---------------------

    Doubly Occupied:

       1A    -79.878834     2A    -20.405010     3A    -20.404569
       4A    -20.302946     5A    -20.302902     6A    -11.145576
       7A    -11.143058     8A    -11.105343     9A    -11.105123
      10A     -7.394382    11A     -5.293267    12A     -5.292355
      13A     -5.290967    14A     -1.236465    15A     -1.189140
      16A     -1.098608    17A     -1.058424    18A     -0.895377
      19A     -0.891324    20A     -0.716357    21A     -0.714119
      22A     -0.601374    23A     -0.540373    24A     -0.530746
      25A     -0.508457    26A     -0.458471    27A     -0.449318
      28A     -0.443791    29A     -0.424227    30A     -0.422462
      31A     -0.401045    32A     -0.400482    33A     -0.366661
      34A     -0.362272    35A     -0.329794    36A     -0.308585
      37A     -0.306533    38A     -0.283687    39A     -0.266515
      40A     -0.249851    41A     -0.235500

  @DF-RHF Final Energy:  -797.83905248008955

   => Energetics <=

    Nuclear Repulsion Energy =            613.1912872815357787
    One-Electron Energy =               -2332.5520950245045242
    Two-Electron Energy =                 921.5217552628791964
    Total Energy =                       -797.8390524800895491
  Basis Set: (AUG-CC-PVTZ AUX)
    Blend: AUG-CC-PVTZ-RI
    Molecular point group: c1

    Geometry (in Angstrom), charge = -1, multiplicity = 1:

       Center              X                  Y                   Z               Mass
    ------------   -----------------  -----------------  -----------------  -----------------
         P            0.000091386203     0.982943722212     0.000069647372    30.973761998420
         O           -1.156330613797    -0.073771277788    -0.547572352628    15.994914619570
         O            1.156513386203    -0.073771277788     0.547711647372    15.994914619570
         O            0.492536386203     1.704819722212    -1.227602352628    15.994914619570
         O           -0.492353613797     1.704819722212     1.227741647372    15.994914619570
         C           -1.798899613797    -0.898766277788     0.441104647372    12.000000000000
         C            1.799082386203    -0.898766277788    -0.440965352628    12.000000000000
         C           -2.706252613797    -1.868968277788    -0.284375352628    12.000000000000
         C            2.706435386203    -1.868969277788     0.284514647372    12.000000000000
         H           -1.052451013797    -1.424857977788     1.010029147372     1.007825032230
         H           -2.366936613797    -0.266151277788     1.131177647372     1.007825032230
         H            1.038757386203    -1.434638277788    -1.020465352628     1.007825032230
         H            2.367119386203    -0.266151277788    -1.131038352628     1.007825032230
         H           -3.223660613797    -2.513437277788     0.432575647372     1.007825032230
         H           -3.455271613797    -1.327014277788    -0.867040352628     1.007825032230
         H           -2.125938613797    -2.499163277788    -0.962846352628     1.007825032230
         H            3.223843386203    -2.513437277788    -0.432436352628     1.007825032230
         H            3.455454386203    -1.327014277788     0.867179647372     1.007825032230
         H            2.126121386203    -2.499163277788     0.962985647372     1.007825032230

  Basis Set: AUG-CC-PVTZ
    Blend: AUG-CC-PVTZ
  Basis Set: (AUG-CC-PVTZ AUX)
    Blend: AUG-CC-PVTZ-JKFIT
	 Reference Energy          =    -797.8390524800895491 [Eh]
	 Singles Energy            =      -0.0000000000000000 [Eh]
	 Same-Spin Energy          =      -0.4977902125681929 [Eh]
	 Opposite-Spin Energy      =      -1.5446877104220658 [Eh]
	 Correlation Energy        =      -2.0424779229902588 [Eh]
	 Total Energy              =    -799.8815304030798643 [Eh]

	 ================> DF-SCS-MP2 Energies <==================
	-----------------------------------------------------------
	 SCS Same-Spin Scale       =       0.3333333333333333 [-]
	 SCS Opposite-Spin Scale   =       1.2000000000000000 [-]
	 SCS Same-Spin Energy      =      -0.1659300708560643 [Eh]
	 SCS Opposite-Spin Energy  =      -1.8536252525064789 [Eh]
	 SCS Correlation Energy    =      -2.0195553233625434 [Eh]
	 SCS Total Energy          =    -799.8586078034520597 [Eh]
	-----------------------------------------------------------

  Dipole Moment: [D]
     X:     0.0036      Y:    -7.5858      Z:     0.0104     Total:     7.5859

*** Psi4 exiting successfully. Buy a developer a beer!
