                               Psi4 1.3.2 release

  ==> Input File <==

--------------------------------------------------------------------------
#psi4
#
memory 32 gb

molecule  {
-1 1
  P       -0.0010900    -1.0890910     0.0004590
  O       -1.0865009    -0.0057284     0.5303665
  O        1.1506610    -0.0285350    -0.5585640
  O        0.5034080    -1.8082920     1.2241620
  O       -0.5057790    -1.8082590    -1.2231120
  C       -1.8201030     0.7715450    -0.4363210
  C        1.8136140     0.7766970     0.4358730
  C       -2.6746040     1.7890640     0.2877210
  C        2.6862580     1.7776730    -0.2896530
  H       -1.0330030     1.2415309    -1.0366506
  H       -2.4287840     0.1238470    -1.0755890
  H        1.0642060     1.2858700     1.0522800
  H        2.4084330     0.1312990     1.0903160
  H       -3.2148500     2.4129370    -0.4309050
  H       -3.4044660     1.2870150     0.9274370
  H       -2.0509410     2.4359130     0.9094240
  H        3.2222650     2.4062160     0.4280610
  H        3.4201870     1.2611760    -0.9129680
  H        2.0763540     2.4215040    -0.9279010
units angstrom
no_reorient  #important for SAPT in psi4, default
symmetry c1  #important for SAPT in psi4, default
}

set PROPERTIES_ORIGIN ["COM"]
properties('MP2/aug-cc-pvtz', properties = ['dipole'])
--------------------------------------------------------------------------

    Molecular point group: c1
  Charge       = -1
  Multiplicity = 1
  Basis Set: AUG-CC-PVTZ
    Blend: AUG-CC-PVTZ
  Basis Set: (AUG-CC-PVTZ AUX)
    Blend: AUG-CC-PVTZ-JKFIT

    Orbital Energies [Eh]
    ---------------------

    Doubly Occupied:

       1A    -79.874745     2A    -20.402816     3A    -20.398891
       4A    -20.301816     5A    -20.301693     6A    -11.147929
       7A    -11.142148     8A    -11.108272     9A    -11.103086
      10A     -7.390872    11A     -5.289867    12A     -5.288814
      13A     -5.287489    14A     -1.240701    15A     -1.186961
      16A     -1.097450    17A     -1.057810    18A     -0.897372
      19A     -0.889576    20A     -0.719101    21A     -0.710997
      22A     -0.599700    23A     -0.541101    24A     -0.530418
      25A     -0.505815    26A     -0.461874    27A     -0.448291
      28A     -0.443554    29A     -0.424904    30A     -0.423850
      31A     -0.401536    32A     -0.398021    33A     -0.367783
      34A     -0.359387    35A     -0.328603    36A     -0.307693
      37A     -0.302769    38A     -0.283672    39A     -0.265554
      40A     -0.248971    41A     -0.234638

  @DF-RHF Final Energy:  -797.83845270808752

   => Energetics <=

    Nuclear Repulsion Energy =            615.0570539947749467
    One-Electron Energy =               -2336.3579394560961191
    Two-Electron Energy =                 923.4624327532337702
    Total Energy =                       -797.8384527080875159
  Basis Set: (AUG-CC-PVTZ AUX)
    Blend: AUG-CC-PVTZ-RI
    Molecular point group: c1

    Geometry (in Angstrom), charge = -1, multiplicity = 1:

       Center              X                  Y                   Z               Mass
    ------------   -----------------  -----------------  -----------------  -----------------
         P           -0.008123810632    -0.986999574095     0.003235396957    30.973761998420
         O           -1.093534710632     0.096363025905     0.533142896957    15.994914619570
         O            1.143627189368     0.073556425905    -0.555787603043    15.994914619570
         O            0.496374189368    -1.706200574095     1.226938396957    15.994914619570
         O           -0.512812810632    -1.706167574095    -1.220335603043    15.994914619570
         C           -1.827136810632     0.873636425905    -0.433544603043    12.000000000000
         C            1.806580189368     0.878788425905     0.438649396957    12.000000000000
         C           -2.681637810632     1.891155425905     0.290497396957    12.000000000000
         C            2.679224189368     1.879764425905    -0.286876603043    12.000000000000
         H           -1.040036810632     1.343622325905    -1.033874203043     1.007825032230
         H           -2.435817810632     0.225938425905    -1.072812603043     1.007825032230
         H            1.057172189368     1.387961425905     1.055056396957     1.007825032230
         H            2.401399189368     0.233390425905     1.093092396957     1.007825032230
         H           -3.221883810632     2.515028425905    -0.428128603043     1.007825032230
         H           -3.411499810632     1.389106425905     0.930213396957     1.007825032230
         H           -2.057974810632     2.538004425905     0.912200396957     1.007825032230
         H            3.215231189368     2.508307425905     0.430837396957     1.007825032230
         H            3.413153189368     1.363267425905    -0.910191603043     1.007825032230
         H            2.069320189368     2.523595425905    -0.925124603043     1.007825032230

  Basis Set: AUG-CC-PVTZ
    Blend: AUG-CC-PVTZ
  Basis Set: (AUG-CC-PVTZ AUX)
    Blend: AUG-CC-PVTZ-JKFIT
	 Reference Energy          =    -797.8384527080875159 [Eh]
	 Singles Energy            =      -0.0000000000000000 [Eh]
	 Same-Spin Energy          =      -0.4975507592344253 [Eh]
	 Opposite-Spin Energy      =      -1.5438346817346489 [Eh]
	 Correlation Energy        =      -2.0413854409690741 [Eh]
	 Total Energy              =    -799.8798381490565816 [Eh]

	 ================> DF-SCS-MP2 Energies <==================
	-----------------------------------------------------------
	 SCS Same-Spin Scale       =       0.3333333333333333 [-]
	 SCS Opposite-Spin Scale   =       1.2000000000000000 [-]
	 SCS Same-Spin Energy      =      -0.1658502530781417 [Eh]
	 SCS Opposite-Spin Energy  =      -1.8526016180815785 [Eh]
	 SCS Correlation Energy    =      -2.0184518711597201 [Eh]
	 SCS Total Energy          =    -799.8569045792472707 [Eh]
	-----------------------------------------------------------

  Dipole Moment: [D]
     X:    -0.2916      Y:     7.5616      Z:     0.0656     Total:     7.5675

*** Psi4 exiting successfully. Buy a developer a beer!
