                               Psi4 1.3.2 release

  ==> Input File <==

--------------------------------------------------------------------------
#psi4
#
memory 32 gb

molecule  {
-1 1
  P       -0.0010900    -1.0890910     0.0004590
  O       -1.1524220    -0.0281740     0.5594010
  O        1.1730929    -0.0358409    -0.5672846
  O        0.5034080    -1.8082920     1.2241620
  O       -0.5057790    -1.8082590    -1.2231120
  C       -1.8201030     0.7715450    -0.4363210
  C        1.8136140     0.7766970     0.4358730
  C       -2.6746040     1.7890640     0.2877210
  C        2.6862580     1.7776730    -0.2896530
  H       -1.0739810     1.2667980    -1.0678550
  H       -2.4287840     0.1238470    -1.0755890
  H        1.0782729     1.2939859     1.0623813
  H        2.4084330     0.1312990     1.0903160
  H       -3.2148500     2.4129370    -0.4309050
  H       -3.4044660     1.2870150     0.9274370
  H       -2.0509410     2.4359130     0.9094240
  H        3.2222650     2.4062160     0.4280610
  H        3.4201870     1.2611760    -0.9129680
  H        2.0763540     2.4215040    -0.9279010
units angstrom
no_reorient  #important for SAPT in psi4, default
symmetry c1  #important for SAPT in psi4, default
}

set PROPERTIES_ORIGIN ["COM"]
properties('MP2/aug-cc-pvtz', properties = ['dipole'])
--------------------------------------------------------------------------

    Molecular point group: c1
  Charge       = -1
  Multiplicity = 1
  Basis Set: AUG-CC-PVTZ
    Blend: AUG-CC-PVTZ
  Basis Set: (AUG-CC-PVTZ AUX)
    Blend: AUG-CC-PVTZ-JKFIT

    Orbital Energies [Eh]
    ---------------------

    Doubly Occupied:

       1A    -79.880804     2A    -20.406501     3A    -20.405114
       4A    -20.304447     5A    -20.304334     6A    -11.145848
       7A    -11.143869     8A    -11.105561     9A    -11.103772
      10A     -7.396145    11A     -5.294958    12A     -5.294126
      13A     -5.292728    14A     -1.233770    15A     -1.187624
      16A     -1.099844    17A     -1.060027    18A     -0.894491
      19A     -0.890144    20A     -0.714436    21A     -0.711791
      22A     -0.599917    23A     -0.538900    24A     -0.528467
      25A     -0.507222    26A     -0.457697    27A     -0.449532
      28A     -0.442070    29A     -0.423103    30A     -0.422439
      31A     -0.400968    32A     -0.398746    33A     -0.367113
      34A     -0.360971    35A     -0.331573    36A     -0.307872
      37A     -0.306062    38A     -0.284419    39A     -0.266994
      40A     -0.251468    41A     -0.237105

  @DF-RHF Final Energy:  -797.83750966038167

   => Energetics <=

    Nuclear Repulsion Energy =            612.4412886561980258
    One-Electron Energy =               -2331.0516458946740386
    Two-Electron Energy =                 920.7728475780942290
    Total Energy =                       -797.8375096603816701
  Basis Set: (AUG-CC-PVTZ AUX)
    Blend: AUG-CC-PVTZ-RI
    Molecular point group: c1

    Geometry (in Angstrom), charge = -1, multiplicity = 1:

       Center              X                  Y                   Z               Mass
    ------------   -----------------  -----------------  -----------------  -----------------
         P           -0.003401077636    -0.984109790059     0.001251161524    30.973761998420
         O           -1.154733077636     0.076807209941     0.560193161524    15.994914619570
         O            1.170781822364     0.069140309941    -0.566492438476    15.994914619570
         O            0.501096922364    -1.703310790059     1.224954161524    15.994914619570
         O           -0.508090077636    -1.703277790059    -1.222319838476    15.994914619570
         C           -1.822414077636     0.876526209941    -0.435528838476    12.000000000000
         C            1.811302922364     0.881678209941     0.436665161524    12.000000000000
         C           -2.676915077636     1.894045209941     0.288513161524    12.000000000000
         C            2.683946922364     1.882654209941    -0.288860838476    12.000000000000
         H           -1.076292077636     1.371779209941    -1.067062838476     1.007825032230
         H           -2.431095077636     0.228828209941    -1.074796838476     1.007825032230
         H            1.075961822364     1.398967109941     1.063173461524     1.007825032230
         H            2.406121922364     0.236280209941     1.091108161524     1.007825032230
         H           -3.217161077636     2.517918209941    -0.430112838476     1.007825032230
         H           -3.406777077636     1.391996209941     0.928229161524     1.007825032230
         H           -2.053252077636     2.540894209941     0.910216161524     1.007825032230
         H            3.219953922364     2.511197209941     0.428853161524     1.007825032230
         H            3.417875922364     1.366157209941    -0.912175838476     1.007825032230
         H            2.074042922364     2.526485209941    -0.927108838476     1.007825032230

  Basis Set: AUG-CC-PVTZ
    Blend: AUG-CC-PVTZ
  Basis Set: (AUG-CC-PVTZ AUX)
    Blend: AUG-CC-PVTZ-JKFIT
	 Reference Energy          =    -797.8375096603816701 [Eh]
	 Singles Energy            =      -0.0000000000000000 [Eh]
	 Same-Spin Energy          =      -0.4980877526729016 [Eh]
	 Opposite-Spin Energy      =      -1.5456497141250405 [Eh]
	 Correlation Energy        =      -2.0437374667979422 [Eh]
	 Total Energy              =    -799.8812471271795630 [Eh]

	 ================> DF-SCS-MP2 Energies <==================
	-----------------------------------------------------------
	 SCS Same-Spin Scale       =       0.3333333333333333 [-]
	 SCS Opposite-Spin Scale   =       1.2000000000000000 [-]
	 SCS Same-Spin Energy      =      -0.1660292508909672 [Eh]
	 SCS Opposite-Spin Energy  =      -1.8547796569500485 [Eh]
	 SCS Correlation Energy    =      -2.0208089078410159 [Eh]
	 SCS Total Energy          =    -799.8583185682226713 [Eh]
	-----------------------------------------------------------

  Dipole Moment: [D]
     X:    -0.1001      Y:     7.4752      Z:     0.0171     Total:     7.4759

*** Psi4 exiting successfully. Buy a developer a beer!
