                               Psi4 1.3.2 release

  ==> Input File <==

--------------------------------------------------------------------------
#psi4
#
memory 32 gb

molecule  {
-1 1
  P       -0.0010900    -1.0890910     0.0004590
  O       -1.1607071    -0.0393829     0.5634221
  O        1.1589428    -0.0397475    -0.5625848
  O        0.5034080    -1.8082920     1.2241620
  O       -0.5057790    -1.8082590    -1.2231120
  C       -1.8201030     0.7715450    -0.4363210
  C        1.8136140     0.7766970     0.4358730
  C       -2.6746040     1.7890640     0.2877210
  C        2.6862580     1.7776730    -0.2896530
  H       -1.0739810     1.2667980    -1.0678550
  H       -2.4287840     0.1238470    -1.0755890
  H        1.0642060     1.2858700     1.0522800
  H        2.4084330     0.1312990     1.0903160
  H       -3.2148500     2.4129370    -0.4309050
  H       -3.4044660     1.2870150     0.9274370
  H       -2.0509410     2.4359130     0.9094240
  H        3.2222650     2.4062160     0.4280610
  H        3.4201870     1.2611760    -0.9129680
  H        2.0763540     2.4215040    -0.9279010
units angstrom
no_reorient  #important for SAPT in psi4, default
symmetry c1  #important for SAPT in psi4, default
}

set PROPERTIES_ORIGIN ["COM"]
properties('MP2/aug-cc-pvtz', properties = ['dipole'])
--------------------------------------------------------------------------

    Molecular point group: c1
  Charge       = -1
  Multiplicity = 1
  Basis Set: AUG-CC-PVTZ
    Blend: AUG-CC-PVTZ
  Basis Set: (AUG-CC-PVTZ AUX)
    Blend: AUG-CC-PVTZ-JKFIT

    Orbital Energies [Eh]
    ---------------------

    Doubly Occupied:

       1A    -79.878703     2A    -20.405419     3A    -20.405405
       4A    -20.302666     5A    -20.302631     6A    -11.145725
       7A    -11.145697     8A    -11.105437     9A    -11.105397
      10A     -7.394248    11A     -5.293076    12A     -5.292249
      13A     -5.290831    14A     -1.233804    15A     -1.186921
      16A     -1.098047    17A     -1.058615    18A     -0.895017
      19A     -0.891310    20A     -0.714167    21A     -0.713307
      22A     -0.599220    23A     -0.538511    24A     -0.528799
      25A     -0.507470    26A     -0.457685    27A     -0.449604
      28A     -0.441991    29A     -0.423576    30A     -0.422899
      31A     -0.400184    32A     -0.399365    33A     -0.367239
      34A     -0.361664    35A     -0.330292    36A     -0.308528
      37A     -0.307138    38A     -0.283346    39A     -0.265844
      40A     -0.249945    41A     -0.235521

  @DF-RHF Final Energy:  -797.83781549396872

   => Energetics <=

    Nuclear Repulsion Energy =            612.7476840134311260
    One-Electron Energy =               -2331.6960116013838160
    Two-Electron Energy =                 921.1105120939839708
    Total Energy =                       -797.8378154939687192
  Basis Set: (AUG-CC-PVTZ AUX)
    Blend: AUG-CC-PVTZ-RI
    Molecular point group: c1

    Geometry (in Angstrom), charge = -1, multiplicity = 1:

       Center              X                  Y                   Z               Mass
    ------------   -----------------  -----------------  -----------------  -----------------
         P           -0.000963503241    -0.982476464501     0.000406174945    30.973761998420
         O           -1.160580603241     0.067231635499     0.563369274945    15.994914619570
         O            1.159069296759     0.066867035499    -0.562637625055    15.994914619570
         O            0.503534496759    -1.701677464501     1.224109174945    15.994914619570
         O           -0.505652503241    -1.701644464501    -1.223164825055    15.994914619570
         C           -1.819976503241     0.878159535499    -0.436373825055    12.000000000000
         C            1.813740496759     0.883311535499     0.435820174945    12.000000000000
         C           -2.674477503241     1.895678535499     0.287668174945    12.000000000000
         C            2.686384496759     1.884287535499    -0.289705825055    12.000000000000
         H           -1.073854503241     1.373412535499    -1.067907825055     1.007825032230
         H           -2.428657503241     0.230461535499    -1.075641825055     1.007825032230
         H            1.064332496759     1.392484535499     1.052227174945     1.007825032230
         H            2.408559496759     0.237913535499     1.090263174945     1.007825032230
         H           -3.214723503241     2.519551535499    -0.430957825055     1.007825032230
         H           -3.404339503241     1.393629535499     0.927384174945     1.007825032230
         H           -2.050814503241     2.542527535499     0.909371174945     1.007825032230
         H            3.222391496759     2.512830535499     0.428008174945     1.007825032230
         H            3.420313496759     1.367790535499    -0.913020825055     1.007825032230
         H            2.076480496759     2.528118535499    -0.927953825055     1.007825032230

  Basis Set: AUG-CC-PVTZ
    Blend: AUG-CC-PVTZ
  Basis Set: (AUG-CC-PVTZ AUX)
    Blend: AUG-CC-PVTZ-JKFIT
	 Reference Energy          =    -797.8378154939687192 [Eh]
	 Singles Energy            =      -0.0000000000000000 [Eh]
	 Same-Spin Energy          =      -0.4979526460193480 [Eh]
	 Opposite-Spin Energy      =      -1.5453894169012303 [Eh]
	 Correlation Energy        =      -2.0433420629205781 [Eh]
	 Total Energy              =    -799.8811575568893204 [Eh]

	 ================> DF-SCS-MP2 Energies <==================
	-----------------------------------------------------------
	 SCS Same-Spin Scale       =       0.3333333333333333 [-]
	 SCS Opposite-Spin Scale   =       1.2000000000000000 [-]
	 SCS Same-Spin Energy      =      -0.1659842153397826 [Eh]
	 SCS Opposite-Spin Energy  =      -1.8544673002814762 [Eh]
	 SCS Correlation Energy    =      -2.0204515156212590 [Eh]
	 SCS Total Energy          =    -799.8582670095900085 [Eh]
	-----------------------------------------------------------

  Dipole Moment: [D]
     X:    -0.0006      Y:     7.5682      Z:    -0.0034     Total:     7.5682

*** Psi4 exiting successfully. Buy a developer a beer!
