                               Psi4 1.3.2 release

  ==> Input File <==

--------------------------------------------------------------------------
#psi4
#
memory 32 gb

molecule  {
-1 1
  P       -0.0010900    -1.0890910     0.0004590
  O       -1.1302359    -0.0209328     0.5500223
  O        1.1506610    -0.0285350    -0.5585640
  O        0.5034080    -1.8082920     1.2241620
  O       -0.5057790    -1.8082590    -1.2231120
  C       -1.8201030     0.7715450    -0.4363210
  C        1.8136140     0.7766970     0.4358730
  C       -2.6746040     1.7890640     0.2877210
  C        2.6862580     1.7776730    -0.2896530
  H       -1.0600888     1.2585231    -1.0576417
  H       -2.4287840     0.1238470    -1.0755890
  H        1.0642060     1.2858700     1.0522800
  H        2.4084330     0.1312990     1.0903160
  H       -3.2148500     2.4129370    -0.4309050
  H       -3.4044660     1.2870150     0.9274370
  H       -2.0509410     2.4359130     0.9094240
  H        3.2222650     2.4062160     0.4280610
  H        3.4201870     1.2611760    -0.9129680
  H        2.0763540     2.4215040    -0.9279010
units angstrom
no_reorient  #important for SAPT in psi4, default
symmetry c1  #important for SAPT in psi4, default
}

set PROPERTIES_ORIGIN ["COM"]
properties('MP2/aug-cc-pvtz', properties = ['dipole'])
--------------------------------------------------------------------------

    Molecular point group: c1
  Charge       = -1
  Multiplicity = 1
  Basis Set: AUG-CC-PVTZ
    Blend: AUG-CC-PVTZ
  Basis Set: (AUG-CC-PVTZ AUX)
    Blend: AUG-CC-PVTZ-JKFIT

    Orbital Energies [Eh]
    ---------------------

    Doubly Occupied:

       1A    -79.877723     2A    -20.404072     3A    -20.402720
       4A    -20.303024     5A    -20.302952     6A    -11.145956
       7A    -11.143974     8A    -11.106087     9A    -11.104306
      10A     -7.393438    11A     -5.292344    12A     -5.291398
      13A     -5.290046    14A     -1.236783    15A     -1.187702
      16A     -1.098569    17A     -1.058851    18A     -0.895265
      19A     -0.890571    20A     -0.715496    21A     -0.712553
      22A     -0.599852    23A     -0.539397    24A     -0.530001
      25A     -0.506715    26A     -0.459321    27A     -0.448901
      28A     -0.442892    29A     -0.423943    30A     -0.423254
      31A     -0.401058    32A     -0.398970    33A     -0.367178
      34A     -0.360511    35A     -0.329731    36A     -0.307842
      37A     -0.304865    38A     -0.284134    39A     -0.266341
      40A     -0.250190    41A     -0.235812

  @DF-RHF Final Energy:  -797.83924872029661

   => Energetics <=

    Nuclear Repulsion Energy =            613.7526254148314138
    One-Electron Energy =               -2333.7142696119417451
    Two-Electron Energy =                 922.1223954768136082
    Total Energy =                       -797.8392487202966095
  Basis Set: (AUG-CC-PVTZ AUX)
    Blend: AUG-CC-PVTZ-RI
    Molecular point group: c1

    Geometry (in Angstrom), charge = -1, multiplicity = 1:

       Center              X                  Y                   Z               Mass
    ------------   -----------------  -----------------  -----------------  -----------------
         P           -0.003374236022    -0.985522311812     0.001319208725    30.973761998420
         O           -1.132520136022     0.082635888188     0.550882508725    15.994914619570
         O            1.148376763978     0.075033688188    -0.557703791275    15.994914619570
         O            0.501123763978    -1.704723311812     1.225022208725    15.994914619570
         O           -0.508063236022    -1.704690311812    -1.222251791275    15.994914619570
         C           -1.822387236022     0.875113688188    -0.435460791275    12.000000000000
         C            1.811329763978     0.880265688188     0.436733208725    12.000000000000
         C           -2.676888236022     1.892632688188     0.288581208725    12.000000000000
         C            2.683973763978     1.881241688188    -0.288792791275    12.000000000000
         H           -1.062373036022     1.362091788188    -1.056781491275     1.007825032230
         H           -2.431068236022     0.227415688188    -1.074728791275     1.007825032230
         H            1.061921763978     1.389438688188     1.053140208725     1.007825032230
         H            2.406148763978     0.234867688188     1.091176208725     1.007825032230
         H           -3.217134236022     2.516505688188    -0.430044791275     1.007825032230
         H           -3.406750236022     1.390583688188     0.928297208725     1.007825032230
         H           -2.053225236022     2.539481688188     0.910284208725     1.007825032230
         H            3.219980763978     2.509784688188     0.428921208725     1.007825032230
         H            3.417902763978     1.364744688188    -0.912107791275     1.007825032230
         H            2.074069763978     2.525072688188    -0.927040791275     1.007825032230

  Basis Set: AUG-CC-PVTZ
    Blend: AUG-CC-PVTZ
  Basis Set: (AUG-CC-PVTZ AUX)
    Blend: AUG-CC-PVTZ-JKFIT
	 Reference Energy          =    -797.8392487202966095 [Eh]
	 Singles Energy            =      -0.0000000000000000 [Eh]
	 Same-Spin Energy          =      -0.4977608231350255 [Eh]
	 Opposite-Spin Energy      =      -1.5446333715206237 [Eh]
	 Correlation Energy        =      -2.0423941946556492 [Eh]
	 Total Energy              =    -799.8816429149522946 [Eh]

	 ================> DF-SCS-MP2 Energies <==================
	-----------------------------------------------------------
	 SCS Same-Spin Scale       =       0.3333333333333333 [-]
	 SCS Opposite-Spin Scale   =       1.2000000000000000 [-]
	 SCS Same-Spin Energy      =      -0.1659202743783418 [Eh]
	 SCS Opposite-Spin Energy  =      -1.8535600458247483 [Eh]
	 SCS Correlation Energy    =      -2.0194803202030900 [Eh]
	 SCS Total Energy          =    -799.8587290404997248 [Eh]
	-----------------------------------------------------------

  Dipole Moment: [D]
     X:    -0.0994      Y:     7.5229      Z:     0.0188     Total:     7.5236

*** Psi4 exiting successfully. Buy a developer a beer!
