                               Psi4 1.3.2 release

  ==> Input File <==

--------------------------------------------------------------------------
#psi4
#
memory 32 gb

molecule  {
-1 1
  P       -0.0010900    -1.0890910     0.0004590
  O       -1.1524220    -0.0281740     0.5594010
  O        1.1506610    -0.0285350    -0.5585640
  O        0.5126762    -1.7616602     1.2466180
  O       -0.5150332    -1.7616290    -1.2455726
  C       -1.8201030     0.7715450    -0.4363210
  C        1.8136140     0.7766970     0.4358730
  C       -2.6746040     1.7890640     0.2877210
  C        2.6862580     1.7776730    -0.2896530
  H       -1.0739810     1.2667980    -1.0678550
  H       -2.4287840     0.1238470    -1.0755890
  H        1.0642060     1.2858700     1.0522800
  H        2.4084330     0.1312990     1.0903160
  H       -3.2148500     2.4129370    -0.4309050
  H       -3.4044660     1.2870150     0.9274370
  H       -2.0509410     2.4359130     0.9094240
  H        3.2222650     2.4062160     0.4280610
  H        3.4201870     1.2611760    -0.9129680
  H        2.0763540     2.4215040    -0.9279010
units angstrom
no_reorient  #important for SAPT in psi4, default
symmetry c1  #important for SAPT in psi4, default
}

set PROPERTIES_ORIGIN ["COM"]
properties('MP2/aug-cc-pvtz', properties = ['dipole'])
--------------------------------------------------------------------------

    Molecular point group: c1
  Charge       = -1
  Multiplicity = 1
  Basis Set: AUG-CC-PVTZ
    Blend: AUG-CC-PVTZ
  Basis Set: (AUG-CC-PVTZ AUX)
    Blend: AUG-CC-PVTZ-JKFIT

    Orbital Energies [Eh]
    ---------------------

    Doubly Occupied:

       1A    -79.880111     2A    -20.401491     3A    -20.401474
       4A    -20.307029     5A    -20.306993     6A    -11.142519
       7A    -11.142477     8A    -11.103330     9A    -11.103294
      10A     -7.395587    11A     -5.294453    12A     -5.293717
      13A     -5.292096    14A     -1.233604    15A     -1.185111
      16A     -1.099576    17A     -1.064441    18A     -0.892647
      19A     -0.888768    20A     -0.712114    21A     -0.710848
      22A     -0.597610    23A     -0.537439    24A     -0.527241
      25A     -0.505000    26A     -0.456647    27A     -0.448528
      28A     -0.441881    29A     -0.422151    30A     -0.421287
      31A     -0.399904    32A     -0.397266    33A     -0.367959
      34A     -0.358823    35A     -0.330741    36A     -0.305313
      37A     -0.303222    38A     -0.285484    39A     -0.266703
      40A     -0.254547    41A     -0.241217

  @DF-RHF Final Energy:  -797.83833407338943

   => Energetics <=

    Nuclear Repulsion Energy =            613.8306265883330752
    One-Electron Energy =               -2333.8966379256935397
    Two-Electron Energy =                 922.2276772639711453
    Total Energy =                       -797.8383340733894329
  Basis Set: (AUG-CC-PVTZ AUX)
    Blend: AUG-CC-PVTZ-RI
    Molecular point group: c1

    Geometry (in Angstrom), charge = -1, multiplicity = 1:

       Center              X                  Y                   Z               Mass
    ------------   -----------------  -----------------  -----------------  -----------------
         P           -0.000965311442    -0.994567706119     0.000406687095    30.973761998420
         O           -1.152297311442     0.066349293881     0.559348687095    15.994914619570
         O            1.150785688558     0.065988293881    -0.558616312905    15.994914619570
         O            0.512800888558    -1.667136906119     1.246565687095    15.994914619570
         O           -0.514908511442    -1.667105706119    -1.245624912905    15.994914619570
         C           -1.819978311442     0.866068293881    -0.436373312905    12.000000000000
         C            1.813738688558     0.871220293881     0.435820687095    12.000000000000
         C           -2.674479311442     1.883587293881     0.287668687095    12.000000000000
         C            2.686382688558     1.872196293881    -0.289705312905    12.000000000000
         H           -1.073856311442     1.361321293881    -1.067907312905     1.007825032230
         H           -2.428659311442     0.218370293881    -1.075641312905     1.007825032230
         H            1.064330688558     1.380393293881     1.052227687095     1.007825032230
         H            2.408557688558     0.225822293881     1.090263687095     1.007825032230
         H           -3.214725311442     2.507460293881    -0.430957312905     1.007825032230
         H           -3.404341311442     1.381538293881     0.927384687095     1.007825032230
         H           -2.050816311442     2.530436293881     0.909371687095     1.007825032230
         H            3.222389688558     2.500739293881     0.428008687095     1.007825032230
         H            3.420311688558     1.355699293881    -0.913020312905     1.007825032230
         H            2.076478688558     2.516027293881    -0.927953312905     1.007825032230

  Basis Set: AUG-CC-PVTZ
    Blend: AUG-CC-PVTZ
  Basis Set: (AUG-CC-PVTZ AUX)
    Blend: AUG-CC-PVTZ-JKFIT
	 Reference Energy          =    -797.8383340733894329 [Eh]
	 Singles Energy            =      -0.0000000000000000 [Eh]
	 Same-Spin Energy          =      -0.4981635978254596 [Eh]
	 Opposite-Spin Energy      =      -1.5455458912147191 [Eh]
	 Correlation Energy        =      -2.0437094890401788 [Eh]
	 Total Energy              =    -799.8820435624296579 [Eh]

	 ================> DF-SCS-MP2 Energies <==================
	-----------------------------------------------------------
	 SCS Same-Spin Scale       =       0.3333333333333333 [-]
	 SCS Opposite-Spin Scale   =       1.2000000000000000 [-]
	 SCS Same-Spin Energy      =      -0.1660545326084865 [Eh]
	 SCS Opposite-Spin Energy  =      -1.8546550694576629 [Eh]
	 SCS Correlation Energy    =      -2.0207096020661495 [Eh]
	 SCS Total Energy          =    -799.8590436754556094 [Eh]
	-----------------------------------------------------------

  Dipole Moment: [D]
     X:    -0.0007      Y:     7.1833      Z:    -0.0033     Total:     7.1833

*** Psi4 exiting successfully. Buy a developer a beer!
