                               Psi4 1.3.2 release

  ==> Input File <==

--------------------------------------------------------------------------
#psi4
#
memory 32 gb

molecule  {
-1 1
  P       -0.0178718    -1.0612068    -0.0802595
  O       -1.1524220    -0.0281740     0.5594010
  O        1.1506610    -0.0285350    -0.5585640
  O        0.5034080    -1.8082920     1.2241620
  O       -0.5057790    -1.8082590    -1.2231120
  C       -1.7781853     0.7374331    -0.4889677
  C        1.8136140     0.7766970     0.4358730
  C       -2.6746040     1.7890640     0.2877210
  C        2.6862580     1.7776730    -0.2896530
  H       -1.0739810     1.2667980    -1.0678550
  H       -2.4287840     0.1238470    -1.0755890
  H        1.0642060     1.2858700     1.0522800
  H        2.4084330     0.1312990     1.0903160
  H       -3.2148500     2.4129370    -0.4309050
  H       -3.4044660     1.2870150     0.9274370
  H       -2.0509410     2.4359130     0.9094240
  H        3.2222650     2.4062160     0.4280610
  H        3.4201870     1.2611760    -0.9129680
  H        2.0763540     2.4215040    -0.9279010
units angstrom
no_reorient  #important for SAPT in psi4, default
symmetry c1  #important for SAPT in psi4, default
}

set PROPERTIES_ORIGIN ["COM"]
properties('MP2/aug-cc-pvtz', properties = ['dipole'])
--------------------------------------------------------------------------

    Molecular point group: c1
  Charge       = -1
  Multiplicity = 1
  Basis Set: AUG-CC-PVTZ
    Blend: AUG-CC-PVTZ
  Basis Set: (AUG-CC-PVTZ AUX)
    Blend: AUG-CC-PVTZ-JKFIT

    Orbital Energies [Eh]
    ---------------------

    Doubly Occupied:

       1A    -79.878225     2A    -20.410614     3A    -20.409748
       4A    -20.315165     5A    -20.284882     6A    -11.148696
       7A    -11.145505     8A    -11.107287     9A    -11.106624
      10A     -7.394686    11A     -5.293389    12A     -5.292789
      13A     -5.291083    14A     -1.244354    15A     -1.195674
      16A     -1.118900    17A     -1.025121    18A     -0.897314
      19A     -0.879019    20A     -0.722869    21A     -0.718975
      22A     -0.605535    23A     -0.542206    24A     -0.535839
      25A     -0.512106    26A     -0.461827    27A     -0.450473
      28A     -0.440895    29A     -0.426914    30A     -0.420655
      31A     -0.406709    32A     -0.405146    33A     -0.370233
      34A     -0.352129    35A     -0.332743    36A     -0.319316
      37A     -0.309636    38A     -0.282148    39A     -0.278955
      40A     -0.225977    41A     -0.220098

  @DF-RHF Final Energy:  -797.82012649416265

   => Energetics <=

    Nuclear Repulsion Energy =            613.9719460490233587
    One-Electron Energy =               -2334.0232215937685396
    Two-Electron Energy =                 922.2311490505826441
    Total Energy =                       -797.8201264941626505
  Basis Set: (AUG-CC-PVTZ AUX)
    Blend: AUG-CC-PVTZ-RI
    Molecular point group: c1

    Geometry (in Angstrom), charge = -1, multiplicity = 1:

       Center              X                  Y                   Z               Mass
    ------------   -----------------  -----------------  -----------------  -----------------
         P           -0.017635977532    -0.959904656039    -0.059846490826    30.973761998420
         O           -1.152186177532     0.073128143961     0.579814009174    15.994914619570
         O            1.150896822468     0.072767143961    -0.538150990826    15.994914619570
         O            0.503643822468    -1.706989856039     1.244575009174    15.994914619570
         O           -0.505543177532    -1.706956856039    -1.202698990826    15.994914619570
         C           -1.777949477532     0.838735243961    -0.468554690826    12.000000000000
         C            1.813849822468     0.877999143961     0.456286009174    12.000000000000
         C           -2.674368177532     1.890366143961     0.308134009174    12.000000000000
         C            2.686493822468     1.878975143961    -0.269239990826    12.000000000000
         H           -1.073745177532     1.368100143961    -1.047441990826     1.007825032230
         H           -2.428548177532     0.225149143961    -1.055175990826     1.007825032230
         H            1.064441822468     1.387172143961     1.072693009174     1.007825032230
         H            2.408668822468     0.232601143961     1.110729009174     1.007825032230
         H           -3.214614177532     2.514239143961    -0.410491990826     1.007825032230
         H           -3.404230177532     1.388317143961     0.947850009174     1.007825032230
         H           -2.050705177532     2.537215143961     0.929837009174     1.007825032230
         H            3.222500822468     2.507518143961     0.448474009174     1.007825032230
         H            3.420422822468     1.362478143961    -0.892554990826     1.007825032230
         H            2.076589822468     2.522806143961    -0.907487990826     1.007825032230

  Basis Set: AUG-CC-PVTZ
    Blend: AUG-CC-PVTZ
  Basis Set: (AUG-CC-PVTZ AUX)
    Blend: AUG-CC-PVTZ-JKFIT
	 Reference Energy          =    -797.8201264941626505 [Eh]
	 Singles Energy            =      -0.0000000000000000 [Eh]
	 Same-Spin Energy          =      -0.4980322327494592 [Eh]
	 Opposite-Spin Energy      =      -1.5458583253901448 [Eh]
	 Correlation Energy        =      -2.0438905581396041 [Eh]
	 Total Energy              =    -799.8640170523023016 [Eh]

	 ================> DF-SCS-MP2 Energies <==================
	-----------------------------------------------------------
	 SCS Same-Spin Scale       =       0.3333333333333333 [-]
	 SCS Opposite-Spin Scale   =       1.2000000000000000 [-]
	 SCS Same-Spin Energy      =      -0.1660107442498197 [Eh]
	 SCS Opposite-Spin Energy  =      -1.8550299904681737 [Eh]
	 SCS Correlation Energy    =      -2.0210407347179933 [Eh]
	 SCS Total Energy          =    -799.8411672288806358 [Eh]
	-----------------------------------------------------------

  Dipole Moment: [D]
     X:    -0.0898      Y:     7.7818      Z:    -0.9416     Total:     7.8391

*** Psi4 exiting successfully. Buy a developer a beer!
