                               Psi4 1.3.2 release

  ==> Input File <==

--------------------------------------------------------------------------
#psi4
#
memory 32 gb

molecule  {
-1 1
  P       -0.0010900    -1.0890910     0.0004590
  O       -1.1524220    -0.0281740     0.5594010
  O        1.1591292    -0.0105779    -0.5040377
  O        0.5034080    -1.8082920     1.2241620
  O       -0.5384146    -1.8357295    -1.1923750
  C       -1.8201030     0.7715450    -0.4363210
  C        1.8136140     0.7766970     0.4358730
  C       -2.6746040     1.7890640     0.2877210
  C        2.6862580     1.7776730    -0.2896530
  H       -1.0739810     1.2667980    -1.0678550
  H       -2.4287840     0.1238470    -1.0755890
  H        1.0642060     1.2858700     1.0522800
  H        2.4084330     0.1312990     1.0903160
  H       -3.2148500     2.4129370    -0.4309050
  H       -3.4044660     1.2870150     0.9274370
  H       -2.0509410     2.4359130     0.9094240
  H        3.2222650     2.4062160     0.4280610
  H        3.4201870     1.2611760    -0.9129680
  H        2.0763540     2.4215040    -0.9279010
units angstrom
no_reorient  #important for SAPT in psi4, default
symmetry c1  #important for SAPT in psi4, default
}

set PROPERTIES_ORIGIN ["COM"]
properties('MP2/aug-cc-pvtz', properties = ['dipole'])
--------------------------------------------------------------------------

    Molecular point group: c1
  Charge       = -1
  Multiplicity = 1
  Basis Set: AUG-CC-PVTZ
    Blend: AUG-CC-PVTZ
  Basis Set: (AUG-CC-PVTZ AUX)
    Blend: AUG-CC-PVTZ-JKFIT

    Orbital Energies [Eh]
    ---------------------

    Doubly Occupied:

       1A    -79.881725     2A    -20.404411     3A    -20.403799
       4A    -20.308658     5A    -20.301067     6A    -11.145358
       7A    -11.141092     8A    -11.105001     9A    -11.103560
      10A     -7.397087    11A     -5.296015    12A     -5.294984
      13A     -5.293695    14A     -1.243889    15A     -1.195606
      16A     -1.102345    17A     -1.059522    18A     -0.894295
      19A     -0.889368    20A     -0.716509    21A     -0.713224
      22A     -0.604725    23A     -0.543807    24A     -0.532367
      25A     -0.508692    26A     -0.463879    27A     -0.448897
      28A     -0.444991    29A     -0.425632    30A     -0.423865
      31A     -0.403604    32A     -0.400470    33A     -0.366974
      34A     -0.358758    35A     -0.329500    36A     -0.306815
      37A     -0.301762    38A     -0.285831    39A     -0.269037
      40A     -0.250692    41A     -0.236761

  @DF-RHF Final Energy:  -797.83928969552096

   => Energetics <=

    Nuclear Repulsion Energy =            613.8592192518453885
    One-Electron Energy =               -2333.8004712426140941
    Two-Electron Energy =                 922.1019622952477448
    Total Energy =                       -797.8392896955209608
  Basis Set: (AUG-CC-PVTZ AUX)
    Blend: AUG-CC-PVTZ-RI
    Molecular point group: c1

    Geometry (in Angstrom), charge = -1, multiplicity = 1:

       Center              X                  Y                   Z               Mass
    ------------   -----------------  -----------------  -----------------  -----------------
         P            0.001562135500    -0.983825612405    -0.008505538546    30.973761998420
         O           -1.149769864500     0.077091387595     0.550436461454    15.994914619570
         O            1.161781335500     0.094687487595    -0.513002238546    15.994914619570
         O            0.506060135500    -1.703026612405     1.215197461454    15.994914619570
         O           -0.535762464500    -1.730464112405    -1.201339538546    15.994914619570
         C           -1.817450864500     0.876810387595    -0.445285538546    12.000000000000
         C            1.816266135500     0.881962387595     0.426908461454    12.000000000000
         C           -2.671951864500     1.894329387595     0.278756461454    12.000000000000
         C            2.688910135500     1.882938387595    -0.298617538546    12.000000000000
         H           -1.071328864500     1.372063387595    -1.076819538546     1.007825032230
         H           -2.426131864500     0.229112387595    -1.084553538546     1.007825032230
         H            1.066858135500     1.391135387595     1.043315461454     1.007825032230
         H            2.411085135500     0.236564387595     1.081351461454     1.007825032230
         H           -3.212197864500     2.518202387595    -0.439869538546     1.007825032230
         H           -3.401813864500     1.392280387595     0.918472461454     1.007825032230
         H           -2.048288864500     2.541178387595     0.900459461454     1.007825032230
         H            3.224917135500     2.511481387595     0.419096461454     1.007825032230
         H            3.422839135500     1.366441387595    -0.921932538546     1.007825032230
         H            2.079006135500     2.526769387595    -0.936865538546     1.007825032230

  Basis Set: AUG-CC-PVTZ
    Blend: AUG-CC-PVTZ
  Basis Set: (AUG-CC-PVTZ AUX)
    Blend: AUG-CC-PVTZ-JKFIT
	 Reference Energy          =    -797.8392896955209608 [Eh]
	 Singles Energy            =      -0.0000000000000000 [Eh]
	 Same-Spin Energy          =      -0.4976029159867549 [Eh]
	 Opposite-Spin Energy      =      -1.5437081596448627 [Eh]
	 Correlation Energy        =      -2.0413110756316177 [Eh]
	 Total Energy              =    -799.8806007711525581 [Eh]

	 ================> DF-SCS-MP2 Energies <==================
	-----------------------------------------------------------
	 SCS Same-Spin Scale       =       0.3333333333333333 [-]
	 SCS Opposite-Spin Scale   =       1.2000000000000000 [-]
	 SCS Same-Spin Energy      =      -0.1658676386622516 [Eh]
	 SCS Opposite-Spin Energy  =      -1.8524497915738352 [Eh]
	 SCS Correlation Energy    =      -2.0183174302360869 [Eh]
	 SCS Total Energy          =    -799.8576071257569993 [Eh]
	-----------------------------------------------------------

  Dipole Moment: [D]
     X:    -0.0319      Y:     7.4475      Z:    -0.2375     Total:     7.4513

*** Psi4 exiting successfully. Buy a developer a beer!
