                               Psi4 1.3.2 release

  ==> Input File <==

--------------------------------------------------------------------------
#psi4
#
memory 32 gb

molecule  {
-1 1
  P       -0.0010900    -1.0890910     0.0004590
  O       -1.1524220    -0.0281740     0.5594010
  O        1.2185352    -0.0497080    -0.5838064
  O        0.5034080    -1.8082920     1.2241620
  O       -0.5057790    -1.8082590    -1.2231120
  C       -1.8201030     0.7715450    -0.4363210
  C        1.8136140     0.7766970     0.4358730
  C       -2.6746040     1.7890640     0.2877210
  C        2.6862580     1.7776730    -0.2896530
  H       -1.0739810     1.2667980    -1.0678550
  H       -2.4287840     0.1238470    -1.0755890
  H        1.1070743     1.3097427     1.0820085
  H        2.4084330     0.1312990     1.0903160
  H       -3.2148500     2.4129370    -0.4309050
  H       -3.4044660     1.2870150     0.9274370
  H       -2.0509410     2.4359130     0.9094240
  H        3.2222650     2.4062160     0.4280610
  H        3.4201870     1.2611760    -0.9129680
  H        2.0763540     2.4215040    -0.9279010
units angstrom
no_reorient  #important for SAPT in psi4, default
symmetry c1  #important for SAPT in psi4, default
}

set PROPERTIES_ORIGIN ["COM"]
properties('MP2/aug-cc-pvtz', properties = ['dipole'])
--------------------------------------------------------------------------

    Molecular point group: c1
  Charge       = -1
  Multiplicity = 1
  Basis Set: AUG-CC-PVTZ
    Blend: AUG-CC-PVTZ
  Basis Set: (AUG-CC-PVTZ AUX)
    Blend: AUG-CC-PVTZ-JKFIT

    Orbital Energies [Eh]
    ---------------------

    Doubly Occupied:

       1A    -79.883956     2A    -20.410208     3A    -20.405915
       4A    -20.306104     5A    -20.305803     6A    -11.147681
       7A    -11.141781     8A    -11.106766     9A    -11.101422
      10A     -7.398966    11A     -5.297683    12A     -5.296968
      13A     -5.295510    14A     -1.231791    15A     -1.186609
      16A     -1.101260    17A     -1.061328    18A     -0.895333
      19A     -0.888024    20A     -0.716013    21A     -0.708628
      22A     -0.599933    23A     -0.539005    24A     -0.526560
      25A     -0.507152    26A     -0.457347    27A     -0.449868
      28A     -0.441061    29A     -0.422642    30A     -0.421383
      31A     -0.401266    32A     -0.397208    33A     -0.367631
      34A     -0.360737    35A     -0.333920    36A     -0.309309
      37A     -0.304987    38A     -0.284575    39A     -0.267441
      40A     -0.252794    41A     -0.238514

  @DF-RHF Final Energy:  -797.83335379382947

   => Energetics <=

    Nuclear Repulsion Energy =            611.1291124308052076
    One-Electron Energy =               -2328.3827651311435147
    Two-Electron Energy =                 919.4202989065088332
    Total Energy =                       -797.8333537938294739
  Basis Set: (AUG-CC-PVTZ AUX)
    Blend: AUG-CC-PVTZ-RI
    Molecular point group: c1

    Geometry (in Angstrom), charge = -1, multiplicity = 1:

       Center              X                  Y                   Z               Mass
    ------------   -----------------  -----------------  -----------------  -----------------
         P           -0.008340398213    -0.982764166751     0.002848765442    30.973761998420
         O           -1.159672398213     0.078152833249     0.561790765442    15.994914619570
         O            1.211284801787     0.056618833249    -0.581416634558    15.994914619570
         O            0.496157601787    -1.701965166751     1.226551765442    15.994914619570
         O           -0.513029398213    -1.701932166751    -1.220722234558    15.994914619570
         C           -1.827353398213     0.877871833249    -0.433931234558    12.000000000000
         C            1.806363601787     0.883023833249     0.438262765442    12.000000000000
         C           -2.681854398213     1.895390833249     0.290110765442    12.000000000000
         C            2.679007601787     1.883999833249    -0.287263234558    12.000000000000
         H           -1.081231398213     1.373124833249    -1.065465234558     1.007825032230
         H           -2.436034398213     0.230173833249    -1.073199234558     1.007825032230
         H            1.099823901787     1.416069533249     1.084398265442     1.007825032230
         H            2.401182601787     0.237625833249     1.092705765442     1.007825032230
         H           -3.222100398213     2.519263833249    -0.428515234558     1.007825032230
         H           -3.411716398213     1.393341833249     0.929826765442     1.007825032230
         H           -2.058191398213     2.542239833249     0.911813765442     1.007825032230
         H            3.215014601787     2.512542833249     0.430450765442     1.007825032230
         H            3.412936601787     1.367502833249    -0.910578234558     1.007825032230
         H            2.069103601787     2.527830833249    -0.925511234558     1.007825032230

  Basis Set: AUG-CC-PVTZ
    Blend: AUG-CC-PVTZ
  Basis Set: (AUG-CC-PVTZ AUX)
    Blend: AUG-CC-PVTZ-JKFIT
	 Reference Energy          =    -797.8333537938294739 [Eh]
	 Singles Energy            =      -0.0000000000000000 [Eh]
	 Same-Spin Energy          =      -0.4985256071055357 [Eh]
	 Opposite-Spin Energy      =      -1.5468697186255513 [Eh]
	 Correlation Energy        =      -2.0453953257310871 [Eh]
	 Total Energy              =    -799.8787491195605526 [Eh]

	 ================> DF-SCS-MP2 Energies <==================
	-----------------------------------------------------------
	 SCS Same-Spin Scale       =       0.3333333333333333 [-]
	 SCS Opposite-Spin Scale   =       1.2000000000000000 [-]
	 SCS Same-Spin Energy      =      -0.1661752023685119 [Eh]
	 SCS Opposite-Spin Energy  =      -1.8562436623506615 [Eh]
	 SCS Correlation Energy    =      -2.0224188647191736 [Eh]
	 SCS Total Energy          =    -799.8557726585486307 [Eh]
	-----------------------------------------------------------

  Dipole Moment: [D]
     X:    -0.3027      Y:     7.4190      Z:     0.0555     Total:     7.4253

*** Psi4 exiting successfully. Buy a developer a beer!
