                               Psi4 1.3.2 release

  ==> Input File <==

--------------------------------------------------------------------------
#psi4
#
memory 32 gb

molecule  {
-1 1
  P       -0.0010900    -1.0890910     0.0004590
  O       -1.1524220    -0.0281740     0.5594010
  O        1.1506610    -0.0285350    -0.5585640
  O        0.5034080    -1.8082920     1.2241620
  O       -0.5057790    -1.8082590    -1.2231120
  C       -1.8201030     0.7715450    -0.4363210
  C        1.8136140     0.7766970     0.4358730
  C       -2.6746040     1.7890640     0.2877210
  C        2.6862580     1.7776730    -0.2896530
  H       -0.9378043     1.3571880    -1.1831180
  H       -2.4287840     0.1238470    -1.0755890
  H        1.0642060     1.2858700     1.0522800
  H        2.4084330     0.1312990     1.0903160
  H       -3.2148500     2.4129370    -0.4309050
  H       -3.4044660     1.2870150     0.9274370
  H       -2.0509410     2.4359130     0.9094240
  H        3.2222650     2.4062160     0.4280610
  H        3.4201870     1.2611760    -0.9129680
  H        2.0763540     2.4215040    -0.9279010
units angstrom
no_reorient  #important for SAPT in psi4, default
symmetry c1  #important for SAPT in psi4, default
}

set PROPERTIES_ORIGIN ["COM"]
properties('MP2/aug-cc-pvtz', properties = ['dipole'])
--------------------------------------------------------------------------

    Molecular point group: c1
  Charge       = -1
  Multiplicity = 1
  Basis Set: AUG-CC-PVTZ
    Blend: AUG-CC-PVTZ
  Basis Set: (AUG-CC-PVTZ AUX)
    Blend: AUG-CC-PVTZ-JKFIT

    Orbital Energies [Eh]
    ---------------------

    Doubly Occupied:

       1A    -79.880439     2A    -20.409779     3A    -20.404264
       4A    -20.304716     5A    -20.304223     6A    -11.168193
       7A    -11.144596     8A    -11.107394     9A    -11.104409
      10A     -7.395954    11A     -5.294825    12A     -5.293923
      13A     -5.292531    14A     -1.236578    15A     -1.189250
      16A     -1.100000    17A     -1.060182    18A     -0.893550
      19A     -0.889216    20A     -0.713296    21A     -0.701974
      22A     -0.596378    23A     -0.540367    24A     -0.525942
      25A     -0.496302    26A     -0.459870    27A     -0.449899
      28A     -0.443413    29A     -0.423986    30A     -0.423806
      31A     -0.401837    32A     -0.394080    33A     -0.368271
      34A     -0.353830    35A     -0.331116    36A     -0.307122
      37A     -0.295732    38A     -0.285140    39A     -0.267758
      40A     -0.251640    41A     -0.237192

  @DF-RHF Final Energy:  -797.81866388773631

   => Energetics <=

    Nuclear Repulsion Energy =            612.3148052060288364
    One-Electron Energy =               -2330.7809886754239415
    Two-Electron Energy =                 920.6475195816589121
    Total Energy =                       -797.8186638877363066
  Basis Set: (AUG-CC-PVTZ AUX)
    Blend: AUG-CC-PVTZ-RI
    Molecular point group: c1

    Geometry (in Angstrom), charge = -1, multiplicity = 1:

       Center              X                  Y                   Z               Mass
    ------------   -----------------  -----------------  -----------------  -----------------
         P           -0.001860670929    -0.985415239729     0.001165297123    30.973761998420
         O           -1.153192670929     0.075501760271     0.560107297123    15.994914619570
         O            1.149890329071     0.075140760271    -0.557857702877    15.994914619570
         O            0.502637329071    -1.704616239729     1.224868297123    15.994914619570
         O           -0.506549670929    -1.704583239729    -1.222405702877    15.994914619570
         C           -1.820873670929     0.875220760271    -0.435614702877    12.000000000000
         C            1.812843329071     0.880372760271     0.436579297123    12.000000000000
         C           -2.675374670929     1.892739760271     0.288427297123    12.000000000000
         C            2.685487329071     1.881348760271    -0.288946702877    12.000000000000
         H           -0.938574970929     1.460863760271    -1.182411702877     1.007825032230
         H           -2.429554670929     0.227522760271    -1.074882702877     1.007825032230
         H            1.063435329071     1.389545760271     1.052986297123     1.007825032230
         H            2.407662329071     0.234974760271     1.091022297123     1.007825032230
         H           -3.215620670929     2.516612760271    -0.430198702877     1.007825032230
         H           -3.405236670929     1.390690760271     0.928143297123     1.007825032230
         H           -2.051711670929     2.539588760271     0.910130297123     1.007825032230
         H            3.221494329071     2.509891760271     0.428767297123     1.007825032230
         H            3.419416329071     1.364851760271    -0.912261702877     1.007825032230
         H            2.075583329071     2.525179760271    -0.927194702877     1.007825032230

  Basis Set: AUG-CC-PVTZ
    Blend: AUG-CC-PVTZ
  Basis Set: (AUG-CC-PVTZ AUX)
    Blend: AUG-CC-PVTZ-JKFIT
	 Reference Energy          =    -797.8186638877363066 [Eh]
	 Singles Energy            =      -0.0000000000000000 [Eh]
	 Same-Spin Energy          =      -0.4984062255200927 [Eh]
	 Opposite-Spin Energy      =      -1.5472391050679581 [Eh]
	 Correlation Energy        =      -2.0456453305880506 [Eh]
	 Total Energy              =    -799.8643092183243652 [Eh]

	 ================> DF-SCS-MP2 Energies <==================
	-----------------------------------------------------------
	 SCS Same-Spin Scale       =       0.3333333333333333 [-]
	 SCS Opposite-Spin Scale   =       1.2000000000000000 [-]
	 SCS Same-Spin Energy      =      -0.1661354085066976 [Eh]
	 SCS Opposite-Spin Energy  =      -1.8566869260815497 [Eh]
	 SCS Correlation Energy    =      -2.0228223345882475 [Eh]
	 SCS Total Energy          =    -799.8414862223245336 [Eh]
	-----------------------------------------------------------

  Dipole Moment: [D]
     X:    -0.0528      Y:     7.3730      Z:     0.1382     Total:     7.3744

*** Psi4 exiting successfully. Buy a developer a beer!
