                               Psi4 1.3.2 release

  ==> Input File <==

--------------------------------------------------------------------------
#psi4
#
memory 32 gb

molecule  {
-1 1
  P       -0.0010900    -1.0890910     0.0004590
  O       -1.1524220    -0.0281740     0.5594010
  O        1.1506610    -0.0285350    -0.5585640
  O        0.5034080    -1.8082920     1.2241620
  O       -0.5057790    -1.8082590    -1.2231120
  C       -1.7737721     0.7160519    -0.3672271
  C        1.8136140     0.7766970     0.4358730
  C       -2.6746040     1.7890640     0.2877210
  C        2.6862580     1.7776730    -0.2896530
  H       -1.0739810     1.2667980    -1.0678550
  H       -2.4287840     0.1238470    -1.0755890
  H        1.0642060     1.2858700     1.0522800
  H        2.4084330     0.1312990     1.0903160
  H       -3.2148500     2.4129370    -0.4309050
  H       -3.4044660     1.2870150     0.9274370
  H       -2.0509410     2.4359130     0.9094240
  H        3.2222650     2.4062160     0.4280610
  H        3.4201870     1.2611760    -0.9129680
  H        2.0763540     2.4215040    -0.9279010
units angstrom
no_reorient  #important for SAPT in psi4, default
symmetry c1  #important for SAPT in psi4, default
}

set PROPERTIES_ORIGIN ["COM"]
properties('MP2/aug-cc-pvtz', properties = ['dipole'])
--------------------------------------------------------------------------

    Molecular point group: c1
  Charge       = -1
  Multiplicity = 1
  Basis Set: AUG-CC-PVTZ
    Blend: AUG-CC-PVTZ
  Basis Set: (AUG-CC-PVTZ AUX)
    Blend: AUG-CC-PVTZ-JKFIT

    Orbital Energies [Eh]
    ---------------------

    Doubly Occupied:

       1A    -79.885372     2A    -20.413818     3A    -20.408011
       4A    -20.308047     5A    -20.307716     6A    -11.147197
       7A    -11.146613     8A    -11.106034     9A    -11.101335
      10A     -7.400957    11A     -5.299850    12A     -5.298913
      13A     -5.297457    14A     -1.261514    15A     -1.205078
      16A     -1.105614    17A     -1.063529    18A     -0.894588
      19A     -0.879533    20A     -0.716009    21A     -0.709847
      22A     -0.611928    23A     -0.550152    24A     -0.531252
      25A     -0.505350    26A     -0.471916    27A     -0.451837
      28A     -0.447156    29A     -0.428287    30A     -0.424778
      31A     -0.405994    32A     -0.401243    33A     -0.366016
      34A     -0.350969    35A     -0.329848    36A     -0.308481
      37A     -0.293709    38A     -0.288159    39A     -0.270686
      40A     -0.255356    41A     -0.240665

  @DF-RHF Final Energy:  -797.83303151615667

   => Energetics <=

    Nuclear Repulsion Energy =            615.0785127338820075
    One-Electron Energy =               -2336.0414601051570571
    Two-Electron Energy =                 923.1299158551183837
    Total Energy =                       -797.8330315161566659
  Basis Set: (AUG-CC-PVTZ AUX)
    Blend: AUG-CC-PVTZ-RI
    Molecular point group: c1

    Geometry (in Angstrom), charge = -1, multiplicity = 1:

       Center              X                  Y                   Z               Mass
    ------------   -----------------  -----------------  -----------------  -----------------
         P           -0.004596892201    -0.980468456487    -0.005011801590    30.973761998420
         O           -1.155928892201     0.080448543513     0.553930198410    15.994914619570
         O            1.147154107799     0.080087543513    -0.564034801590    15.994914619570
         O            0.499901107799    -1.699669456487     1.218691198410    15.994914619570
         O           -0.509285892201    -1.699636456487    -1.228582801590    15.994914619570
         C           -1.777278992201     0.824674443513    -0.372697901590    12.000000000000
         C            1.810107107799     0.885319543513     0.430402198410    12.000000000000
         C           -2.678110892201     1.897686543513     0.282250198410    12.000000000000
         C            2.682751107799     1.886295543513    -0.295123801590    12.000000000000
         H           -1.077487892201     1.375420543513    -1.073325801590     1.007825032230
         H           -2.432290892201     0.232469543513    -1.081059801590     1.007825032230
         H            1.060699107799     1.394492543513     1.046809198410     1.007825032230
         H            2.404926107799     0.239921543513     1.084845198410     1.007825032230
         H           -3.218356892201     2.521559543513    -0.436375801590     1.007825032230
         H           -3.407972892201     1.395637543513     0.921966198410     1.007825032230
         H           -2.054447892201     2.544535543513     0.903953198410     1.007825032230
         H            3.218758107799     2.514838543513     0.422590198410     1.007825032230
         H            3.416680107799     1.369798543513    -0.918438801590     1.007825032230
         H            2.072847107799     2.530126543513    -0.933371801590     1.007825032230

  Basis Set: AUG-CC-PVTZ
    Blend: AUG-CC-PVTZ
  Basis Set: (AUG-CC-PVTZ AUX)
    Blend: AUG-CC-PVTZ-JKFIT
	 Reference Energy          =    -797.8330315161566659 [Eh]
	 Singles Energy            =      -0.0000000000000000 [Eh]
	 Same-Spin Energy          =      -0.4979839188151587 [Eh]
	 Opposite-Spin Energy      =      -1.5442745799244892 [Eh]
	 Correlation Energy        =      -2.0422584987396482 [Eh]
	 Total Energy              =    -799.8752900148963363 [Eh]

	 ================> DF-SCS-MP2 Energies <==================
	-----------------------------------------------------------
	 SCS Same-Spin Scale       =       0.3333333333333333 [-]
	 SCS Opposite-Spin Scale   =       1.2000000000000000 [-]
	 SCS Same-Spin Energy      =      -0.1659946396050529 [Eh]
	 SCS Opposite-Spin Energy  =      -1.8531294959093869 [Eh]
	 SCS Correlation Energy    =      -2.0191241355144398 [Eh]
	 SCS Total Energy          =    -799.8521556516710689 [Eh]
	-----------------------------------------------------------

  Dipole Moment: [D]
     X:     0.3440      Y:     7.1791      Z:     0.1921     Total:     7.1899

*** Psi4 exiting successfully. Buy a developer a beer!
