                               Psi4 1.3.2 release

  ==> Input File <==

--------------------------------------------------------------------------
#psi4
#
memory 32 gb

molecule  {
-1 1
  P       -0.0010900    -1.0890910     0.0004590
  O       -1.1524220    -0.0281740     0.5594010
  O        1.1564525    -0.0220148    -0.5676251
  O        0.5034080    -1.8082920     1.2241620
  O       -0.5057790    -1.8082590    -1.2231120
  C       -1.8201030     0.7715450    -0.4363210
  C        1.8136140     0.7766970     0.4358730
  C       -2.6746040     1.7890640     0.2877210
  C        2.6822786     1.7726776    -0.3012111
  H       -1.0739810     1.2667980    -1.0678550
  H       -2.4287840     0.1238470    -1.0755890
  H        1.0642060     1.2858700     1.0522800
  H        2.4084330     0.1312990     1.0903160
  H       -3.2148500     2.4129370    -0.4309050
  H       -3.4044660     1.2870150     0.9274370
  H       -2.0509410     2.4359130     0.9094240
  H        3.2222650     2.4062160     0.4280610
  H        3.4201870     1.2611760    -0.9129680
  H        2.0763540     2.4215040    -0.9279010
units angstrom
no_reorient  #important for SAPT in psi4, default
symmetry c1  #important for SAPT in psi4, default
}

set PROPERTIES_ORIGIN ["COM"]
properties('MP2/aug-cc-pvtz', properties = ['dipole'])
--------------------------------------------------------------------------

    Molecular point group: c1
  Charge       = -1
  Multiplicity = 1
  Basis Set: AUG-CC-PVTZ
    Blend: AUG-CC-PVTZ
  Basis Set: (AUG-CC-PVTZ AUX)
    Blend: AUG-CC-PVTZ-JKFIT

    Orbital Energies [Eh]
    ---------------------

    Doubly Occupied:

       1A    -79.880397     2A    -20.405422     3A    -20.404351
       4A    -20.304916     5A    -20.304239     6A    -11.145214
       7A    -11.144067     8A    -11.105161     9A    -11.104133
      10A     -7.395787    11A     -5.294618    12A     -5.293748
      13A     -5.292385    14A     -1.233964    15A     -1.187142
      16A     -1.099995    17A     -1.060151    18A     -0.894183
      19A     -0.889874    20A     -0.713955    21A     -0.712277
      22A     -0.599575    23A     -0.538168    24A     -0.529418
      25A     -0.507450    26A     -0.457898    27A     -0.448431
      28A     -0.442214    29A     -0.423618    30A     -0.420289
      31A     -0.400759    32A     -0.399639    33A     -0.367111
      34A     -0.361095    35A     -0.331579    36A     -0.307538
      37A     -0.305577    38A     -0.284669    39A     -0.267072
      40A     -0.251624    41A     -0.237266

  @DF-RHF Final Energy:  -797.83768101646615

   => Energetics <=

    Nuclear Repulsion Energy =            612.7911421934418286
    One-Electron Energy =               -2331.7637115106531382
    Two-Electron Energy =                 921.1348883007451604
    Total Energy =                       -797.8376810164661492
  Basis Set: (AUG-CC-PVTZ AUX)
    Blend: AUG-CC-PVTZ-RI
    Molecular point group: c1

    Geometry (in Angstrom), charge = -1, multiplicity = 1:

       Center              X                  Y                   Z               Mass
    ------------   -----------------  -----------------  -----------------  -----------------
         P           -0.001257132206    -0.985109733934     0.002259605140    30.973761998420
         O           -1.152589132206     0.075807266066     0.561201605140    15.994914619570
         O            1.156285367794     0.081966466066    -0.565824494860    15.994914619570
         O            0.503240867794    -1.704310733934     1.225962605140    15.994914619570
         O           -0.505946132206    -1.704277733934    -1.221311394860    15.994914619570
         C           -1.820270132206     0.875526266066    -0.434520394860    12.000000000000
         C            1.813446867794     0.880678266066     0.437673605140    12.000000000000
         C           -2.674771132206     1.893045266066     0.289521605140    12.000000000000
         C            2.682111467794     1.876658866066    -0.299410494860    12.000000000000
         H           -1.074148132206     1.370779266066    -1.066054394860     1.007825032230
         H           -2.428951132206     0.227828266066    -1.073788394860     1.007825032230
         H            1.064038867794     1.389851266066     1.054080605140     1.007825032230
         H            2.408265867794     0.235280266066     1.092116605140     1.007825032230
         H           -3.215017132206     2.516918266066    -0.429104394860     1.007825032230
         H           -3.404633132206     1.390996266066     0.929237605140     1.007825032230
         H           -2.051108132206     2.539894266066     0.911224605140     1.007825032230
         H            3.222097867794     2.510197266066     0.429861605140     1.007825032230
         H            3.420019867794     1.365157266066    -0.911167394860     1.007825032230
         H            2.076186867794     2.525485266066    -0.926100394860     1.007825032230

  Basis Set: AUG-CC-PVTZ
    Blend: AUG-CC-PVTZ
  Basis Set: (AUG-CC-PVTZ AUX)
    Blend: AUG-CC-PVTZ-JKFIT
	 Reference Energy          =    -797.8376810164661492 [Eh]
	 Singles Energy            =      -0.0000000000000000 [Eh]
	 Same-Spin Energy          =      -0.4980886067679545 [Eh]
	 Opposite-Spin Energy      =      -1.5455986740231789 [Eh]
	 Correlation Energy        =      -2.0436872807911333 [Eh]
	 Total Energy              =    -799.8813682972572678 [Eh]

	 ================> DF-SCS-MP2 Energies <==================
	-----------------------------------------------------------
	 SCS Same-Spin Scale       =       0.3333333333333333 [-]
	 SCS Opposite-Spin Scale   =       1.2000000000000000 [-]
	 SCS Same-Spin Energy      =      -0.1660295355893182 [Eh]
	 SCS Opposite-Spin Energy  =      -1.8547184088278146 [Eh]
	 SCS Correlation Energy    =      -2.0207479444171326 [Eh]
	 SCS Total Energy          =    -799.8584289608833160 [Eh]
	-----------------------------------------------------------

  Dipole Moment: [D]
     X:    -0.0567      Y:     7.4478      Z:     0.0058     Total:     7.4480

*** Psi4 exiting successfully. Buy a developer a beer!
