                               Psi4 1.3.2 release

  ==> Input File <==

--------------------------------------------------------------------------
#psi4
#
memory 32 gb

molecule  {
-1 1
  P       -0.0010900    -1.0890910     0.0004590
  O       -1.1546701    -0.0235636     0.5458311
  O        1.1506610    -0.0285350    -0.5585640
  O        0.5116241    -1.8152470     1.2166165
  O       -0.5057790    -1.8082590    -1.2231120
  C       -1.8201030     0.7715450    -0.4363210
  C        1.8136140     0.7766970     0.4358730
  C       -2.6746040     1.7890640     0.2877210
  C        2.6862580     1.7776730    -0.2896530
  H       -1.0739810     1.2667980    -1.0678550
  H       -2.4287840     0.1238470    -1.0755890
  H        1.0642060     1.2858700     1.0522800
  H        2.4084330     0.1312990     1.0903160
  H       -3.2148500     2.4129370    -0.4309050
  H       -3.4044660     1.2870150     0.9274370
  H       -2.0509410     2.4359130     0.9094240
  H        3.2222650     2.4062160     0.4280610
  H        3.4201870     1.2611760    -0.9129680
  H        2.0763540     2.4215040    -0.9279010
units angstrom
no_reorient  #important for SAPT in psi4, default
symmetry c1  #important for SAPT in psi4, default
}

set PROPERTIES_ORIGIN ["COM"]
properties('MP2/aug-cc-pvtz', properties = ['dipole'])
--------------------------------------------------------------------------

    Molecular point group: c1
  Charge       = -1
  Multiplicity = 1
  Basis Set: AUG-CC-PVTZ
    Blend: AUG-CC-PVTZ
  Basis Set: (AUG-CC-PVTZ AUX)
    Blend: AUG-CC-PVTZ-JKFIT

    Orbital Energies [Eh]
    ---------------------

    Doubly Occupied:

       1A    -79.879833     2A    -20.404620     3A    -20.404397
       4A    -20.304898     5A    -20.303035     6A    -11.144987
       7A    -11.144009     8A    -11.104924     9A    -11.104636
      10A     -7.395318    11A     -5.294193    12A     -5.293270
      13A     -5.291921    14A     -1.236969    15A     -1.189886
      16A     -1.099984    17A     -1.059482    18A     -0.894490
      19A     -0.890358    20A     -0.714571    21A     -0.713074
      22A     -0.601072    23A     -0.540229    24A     -0.530047
      25A     -0.507429    26A     -0.459469    27A     -0.449106
      28A     -0.443268    29A     -0.423905    30A     -0.423317
      31A     -0.401569    32A     -0.399460    33A     -0.367045
      34A     -0.360328    35A     -0.330349    36A     -0.307419
      37A     -0.304940    38A     -0.284692    39A     -0.267199
      40A     -0.250943    41A     -0.236575

  @DF-RHF Final Energy:  -797.83936796309467

   => Energetics <=

    Nuclear Repulsion Energy =            613.2788019343689712
    One-Electron Energy =               -2332.7219052178111269
    Two-Electron Energy =                 921.6037353203475959
    Total Energy =                       -797.8393679630946735
  Basis Set: (AUG-CC-PVTZ AUX)
    Blend: AUG-CC-PVTZ-RI
    Molecular point group: c1

    Geometry (in Angstrom), charge = -1, multiplicity = 1:

       Center              X                  Y                   Z               Mass
    ------------   -----------------  -----------------  -----------------  -----------------
         P           -0.001587625249    -0.984574897460     0.002613194034    30.973761998420
         O           -1.155167725249     0.080952502540     0.547985294034    15.994914619570
         O            1.150163374751     0.075981102540    -0.556409805966    15.994914619570
         O            0.511126474751    -1.710730897460     1.218770694034    15.994914619570
         O           -0.506276625249    -1.703742897460    -1.220957805966    15.994914619570
         C           -1.820600625249     0.876061102540    -0.434166805966    12.000000000000
         C            1.813116374751     0.881213102540     0.438027194034    12.000000000000
         C           -2.675101625249     1.893580102540     0.289875194034    12.000000000000
         C            2.685760374751     1.882189102540    -0.287498805966    12.000000000000
         H           -1.074478625249     1.371314102540    -1.065700805966     1.007825032230
         H           -2.429281625249     0.228363102540    -1.073434805966     1.007825032230
         H            1.063708374751     1.390386102540     1.054434194034     1.007825032230
         H            2.407935374751     0.235815102540     1.092470194034     1.007825032230
         H           -3.215347625249     2.517453102540    -0.428750805966     1.007825032230
         H           -3.404963625249     1.391531102540     0.929591194034     1.007825032230
         H           -2.051438625249     2.540429102540     0.911578194034     1.007825032230
         H            3.221767374751     2.510732102540     0.430215194034     1.007825032230
         H            3.419689374751     1.365692102540    -0.910813805966     1.007825032230
         H            2.075856374751     2.526020102540    -0.925746805966     1.007825032230

  Basis Set: AUG-CC-PVTZ
    Blend: AUG-CC-PVTZ
  Basis Set: (AUG-CC-PVTZ AUX)
    Blend: AUG-CC-PVTZ-JKFIT
	 Reference Energy          =    -797.8393679630946735 [Eh]
	 Singles Energy            =      -0.0000000000000000 [Eh]
	 Same-Spin Energy          =      -0.4978120693090821 [Eh]
	 Opposite-Spin Energy      =      -1.5447202590443490 [Eh]
	 Correlation Energy        =      -2.0425323283534311 [Eh]
	 Total Energy              =    -799.8819002914481189 [Eh]

	 ================> DF-SCS-MP2 Energies <==================
	-----------------------------------------------------------
	 SCS Same-Spin Scale       =       0.3333333333333333 [-]
	 SCS Opposite-Spin Scale   =       1.2000000000000000 [-]
	 SCS Same-Spin Energy      =      -0.1659373564363607 [Eh]
	 SCS Opposite-Spin Energy  =      -1.8536643108532187 [Eh]
	 SCS Correlation Energy    =      -2.0196016672895793 [Eh]
	 SCS Total Energy          =    -799.8589696303843084 [Eh]
	-----------------------------------------------------------

  Dipole Moment: [D]
     X:     0.0049      Y:     7.4888      Z:     0.0535     Total:     7.4890

*** Psi4 exiting successfully. Buy a developer a beer!
