                               Psi4 1.3.2 release

  ==> Input File <==

--------------------------------------------------------------------------
#psi4
#
memory 32 gb

molecule  {
-1 1
  P        0.0040385    -1.0799943     0.0275299
  O       -1.1524220    -0.0281740     0.5594010
  O        1.1506610    -0.0285350    -0.5585640
  O        0.5034080    -1.8082920     1.2241620
  O       -0.5057790    -1.8082590    -1.2231120
  C       -1.8201030     0.7715450    -0.4363210
  C        1.7997953     0.7656230     0.4537343
  C       -2.6746040     1.7890640     0.2877210
  C        2.6862580     1.7776730    -0.2896530
  H       -1.0739810     1.2667980    -1.0678550
  H       -2.4287840     0.1238470    -1.0755890
  H        1.0642060     1.2858700     1.0522800
  H        2.4084330     0.1312990     1.0903160
  H       -3.2148500     2.4129370    -0.4309050
  H       -3.4044660     1.2870150     0.9274370
  H       -2.0509410     2.4359130     0.9094240
  H        3.2222650     2.4062160     0.4280610
  H        3.4201870     1.2611760    -0.9129680
  H        2.0763540     2.4215040    -0.9279010
units angstrom
no_reorient  #important for SAPT in psi4, default
symmetry c1  #important for SAPT in psi4, default
}

set PROPERTIES_ORIGIN ["COM"]
properties('MP2/aug-cc-pvtz', properties = ['dipole'])
--------------------------------------------------------------------------

    Molecular point group: c1
  Charge       = -1
  Multiplicity = 1
  Basis Set: AUG-CC-PVTZ
    Blend: AUG-CC-PVTZ
  Basis Set: (AUG-CC-PVTZ AUX)
    Blend: AUG-CC-PVTZ-JKFIT

    Orbital Energies [Eh]
    ---------------------

    Doubly Occupied:

       1A    -79.879080     2A    -20.406709     3A    -20.406183
       4A    -20.307440     5A    -20.297472     6A    -11.146240
       7A    -11.144804     8A    -11.105782     9A    -11.105475
      10A     -7.394689    11A     -5.293541    12A     -5.292685
      13A     -5.291236    14A     -1.237936    15A     -1.190427
      16A     -1.101277    17A     -1.052097    18A     -0.894757
      19A     -0.887194    20A     -0.716642    21A     -0.715290
      22A     -0.601767    23A     -0.540130    24A     -0.531279
      25A     -0.508560    26A     -0.458900    27A     -0.449327
      28A     -0.441273    29A     -0.424529    30A     -0.422239
      31A     -0.402133    32A     -0.401227    33A     -0.366767
      34A     -0.359341    35A     -0.330359    36A     -0.311554
      37A     -0.307581    38A     -0.283093    39A     -0.269229
      40A     -0.245107    41A     -0.233021

  @DF-RHF Final Energy:  -797.83641796434802

   => Energetics <=

    Nuclear Repulsion Energy =            613.3599768010235493
    One-Electron Energy =               -2332.8840479599666651
    Two-Electron Energy =                 921.6876531945951001
    Total Energy =                       -797.8364179643480156
  Basis Set: (AUG-CC-PVTZ AUX)
    Blend: AUG-CC-PVTZ-RI
    Molecular point group: c1

    Geometry (in Angstrom), charge = -1, multiplicity = 1:

       Center              X                  Y                   Z               Mass
    ------------   -----------------  -----------------  -----------------  -----------------
         P            0.004210233659    -0.976696067569     0.020597332930    30.973761998420
         O           -1.152250266341     0.075124232431     0.552468432930    15.994914619570
         O            1.150832733659     0.074763232431    -0.565496567070    15.994914619570
         O            0.503579733659    -1.704993767569     1.217229432930    15.994914619570
         O           -0.505607266341    -1.704960767569    -1.230044567070    15.994914619570
         C           -1.819931266341     0.874843232431    -0.443253567070    12.000000000000
         C            1.799967033659     0.868921232431     0.446801732930    12.000000000000
         C           -2.674432266341     1.892362232431     0.280788432930    12.000000000000
         C            2.686429733659     1.880971232431    -0.296585567070    12.000000000000
         H           -1.073809266341     1.370096232431    -1.074787567070     1.007825032230
         H           -2.428612266341     0.227145232431    -1.082521567070     1.007825032230
         H            1.064377733659     1.389168232431     1.045347432930     1.007825032230
         H            2.408604733659     0.234597232431     1.083383432930     1.007825032230
         H           -3.214678266341     2.516235232431    -0.437837567070     1.007825032230
         H           -3.404294266341     1.390313232431     0.920504432930     1.007825032230
         H           -2.050769266341     2.539211232431     0.902491432930     1.007825032230
         H            3.222436733659     2.509514232431     0.421128432930     1.007825032230
         H            3.420358733659     1.364474232431    -0.919900567070     1.007825032230
         H            2.076525733659     2.524802232431    -0.934833567070     1.007825032230

  Basis Set: AUG-CC-PVTZ
    Blend: AUG-CC-PVTZ
  Basis Set: (AUG-CC-PVTZ AUX)
    Blend: AUG-CC-PVTZ-JKFIT
	 Reference Energy          =    -797.8364179643480156 [Eh]
	 Singles Energy            =      -0.0000000000000000 [Eh]
	 Same-Spin Energy          =      -0.4978804315464376 [Eh]
	 Opposite-Spin Energy      =      -1.5452090263150695 [Eh]
	 Correlation Energy        =      -2.0430894578615071 [Eh]
	 Total Energy              =    -799.8795074222094854 [Eh]

	 ================> DF-SCS-MP2 Energies <==================
	-----------------------------------------------------------
	 SCS Same-Spin Scale       =       0.3333333333333333 [-]
	 SCS Opposite-Spin Scale   =       1.2000000000000000 [-]
	 SCS Same-Spin Energy      =      -0.1659601438488125 [Eh]
	 SCS Opposite-Spin Energy  =      -1.8542508315780832 [Eh]
	 SCS Correlation Energy    =      -2.0202109754268958 [Eh]
	 SCS Total Energy          =    -799.8566289397749642 [Eh]
	-----------------------------------------------------------

  Dipole Moment: [D]
     X:     0.0226      Y:     7.5893      Z:     0.3092     Total:     7.5956

*** Psi4 exiting successfully. Buy a developer a beer!
