                               Psi4 1.3.2 release

  ==> Input File <==

--------------------------------------------------------------------------
#psi4
#
memory 32 gb

molecule  {
-1 1
  P       -0.0010900    -1.0890910     0.0004590
  O       -1.1524220    -0.0281740     0.5594010
  O        1.0813816    -0.0923289    -0.5249380
  O        0.5034080    -1.8082920     1.2241620
  O       -0.5057790    -1.8082590    -1.2231120
  C       -1.8201030     0.7715450    -0.4363210
  C        1.8136140     0.7766970     0.4358730
  C       -2.6746040     1.7890640     0.2877210
  C        2.6862580     1.7776730    -0.2896530
  H       -1.0739810     1.2667980    -1.0678550
  H       -2.4287840     0.1238470    -1.0755890
  H        1.0642060     1.2858700     1.0522800
  H        2.4084330     0.1312990     1.0903160
  H       -3.2148500     2.4129370    -0.4309050
  H       -3.4044660     1.2870150     0.9274370
  H       -2.0509410     2.4359130     0.9094240
  H        3.2222650     2.4062160     0.4280610
  H        3.4201870     1.2611760    -0.9129680
  H        2.0763540     2.4215040    -0.9279010
units angstrom
no_reorient  #important for SAPT in psi4, default
symmetry c1  #important for SAPT in psi4, default
}

set PROPERTIES_ORIGIN ["COM"]
properties('MP2/aug-cc-pvtz', properties = ['dipole'])
--------------------------------------------------------------------------

    Molecular point group: c1
  Charge       = -1
  Multiplicity = 1
  Basis Set: AUG-CC-PVTZ
    Blend: AUG-CC-PVTZ
  Basis Set: (AUG-CC-PVTZ AUX)
    Blend: AUG-CC-PVTZ-JKFIT

    Orbital Energies [Eh]
    ---------------------

    Doubly Occupied:

       1A    -79.864743     2A    -20.405528     3A    -20.396481
       4A    -20.293711     5A    -20.293358     6A    -11.158093
       7A    -11.141578     8A    -11.114577     9A    -11.102807
      10A     -7.382258    11A     -5.281395    12A     -5.280236
      13A     -5.278739    14A     -1.244394    15A     -1.185476
      16A     -1.089051    17A     -1.051270    18A     -0.906310
      19A     -0.889464    20A     -0.725740    21A     -0.710170
      22A     -0.598929    23A     -0.541373    24A     -0.529397
      25A     -0.507532    26A     -0.463297    27A     -0.449923
      28A     -0.444011    29A     -0.427170    30A     -0.425703
      31A     -0.399654    32A     -0.396884    33A     -0.372785
      34A     -0.362425    35A     -0.322983    36A     -0.314815
      37A     -0.304055    38A     -0.278062    39A     -0.259476
      40A     -0.241862    41A     -0.227075

  @DF-RHF Final Energy:  -797.83438928963744

   => Energetics <=

    Nuclear Repulsion Energy =            615.9517117697342883
    One-Electron Energy =               -2338.2466178537133601
    Two-Electron Energy =                 924.4605167943417428
    Total Energy =                       -797.8343892896374427
  Basis Set: (AUG-CC-PVTZ AUX)
    Blend: AUG-CC-PVTZ-RI
    Molecular point group: c1

    Geometry (in Angstrom), charge = -1, multiplicity = 1:

       Center              X                  Y                   Z               Mass
    ------------   -----------------  -----------------  -----------------  -----------------
         P            0.006277254825    -0.978152198801    -0.003108392972    30.973761998420
         O           -1.145054745175     0.082764801199     0.555833607028    15.994914619570
         O            1.088748854825     0.018609901199    -0.528505392972    15.994914619570
         O            0.510775254825    -1.697353198801     1.220594607028    15.994914619570
         O           -0.498411745175    -1.697320198801    -1.226679392972    15.994914619570
         C           -1.812735745175     0.882483801199    -0.439888392972    12.000000000000
         C            1.820981254825     0.887635801199     0.432305607028    12.000000000000
         C           -2.667236745175     1.900002801199     0.284153607028    12.000000000000
         C            2.693625254825     1.888611801199    -0.293220392972    12.000000000000
         H           -1.066613745175     1.377736801199    -1.071422392972     1.007825032230
         H           -2.421416745175     0.234785801199    -1.079156392972     1.007825032230
         H            1.071573254825     1.396808801199     1.048712607028     1.007825032230
         H            2.415800254825     0.242237801199     1.086748607028     1.007825032230
         H           -3.207482745175     2.523875801199    -0.434472392972     1.007825032230
         H           -3.397098745175     1.397953801199     0.923869607028     1.007825032230
         H           -2.043573745175     2.546851801199     0.905856607028     1.007825032230
         H            3.229632254825     2.517154801199     0.424493607028     1.007825032230
         H            3.427554254825     1.372114801199    -0.916535392972     1.007825032230
         H            2.083721254825     2.532442801199    -0.931468392972     1.007825032230

  Basis Set: AUG-CC-PVTZ
    Blend: AUG-CC-PVTZ
  Basis Set: (AUG-CC-PVTZ AUX)
    Blend: AUG-CC-PVTZ-JKFIT
	 Reference Energy          =    -797.8343892896374427 [Eh]
	 Singles Energy            =      -0.0000000000000000 [Eh]
	 Same-Spin Energy          =      -0.4968681986124949 [Eh]
	 Opposite-Spin Energy      =      -1.5425790196648961 [Eh]
	 Correlation Energy        =      -2.0394472182773908 [Eh]
	 Total Energy              =    -799.8738365079148025 [Eh]

	 ================> DF-SCS-MP2 Energies <==================
	-----------------------------------------------------------
	 SCS Same-Spin Scale       =       0.3333333333333333 [-]
	 SCS Opposite-Spin Scale   =       1.2000000000000000 [-]
	 SCS Same-Spin Energy      =      -0.1656227328708316 [Eh]
	 SCS Opposite-Spin Energy  =      -1.8510948235978752 [Eh]
	 SCS Correlation Energy    =      -2.0167175564687070 [Eh]
	 SCS Total Energy          =    -799.8511068461061768 [Eh]
	-----------------------------------------------------------

  Dipole Moment: [D]
     X:     0.6084      Y:     8.0129      Z:    -0.0665     Total:     8.0362

*** Psi4 exiting successfully. Buy a developer a beer!
