                               Psi4 1.4a3.dev225

  ==> Input File <==

--------------------------------------------------------------------------
#psi4
#
memory 32 gb

molecule  {
-1 1
  P        0.0000000     1.0872980     0.0000000
  O       -1.1564220     0.0305830    -0.5476420
  O        1.1215791     0.0624218     0.5311416
  O        0.4924450     1.8091740    -1.2276720
  O       -0.4924450     1.8091740     1.2276720
  C       -1.7989910    -0.7944120     0.4410350
  C        1.7989910    -0.7944120    -0.4410350
  C       -2.7063440    -1.7646140    -0.2844450
  C        2.7063440    -1.7646150     0.2844450
  H       -1.0386670    -1.3302830     1.0205350
  H       -2.3670280    -0.1617970     1.1311080
  H        1.0386660    -1.3302840    -1.0205350
  H        2.3670280    -0.1617970    -1.1311080
  H       -3.2237520    -2.4090830     0.4325060
  H       -3.4553630    -1.2226600    -0.8671100
  H       -2.1260300    -2.3948090    -0.9629160
  H        3.2237520    -2.4090830    -0.4325060
  H        3.4553630    -1.2226600     0.8671100
  H        2.1260300    -2.3948090     0.9629160
units angstrom
no_reorient  #important for SAPT in psi4, default
symmetry c1  #important for SAPT in psi4, default
}

set PROPERTIES_ORIGIN ["COM"]
properties('MP2/aug-cc-pvtz', properties = ['dipole'])
--------------------------------------------------------------------------

    Molecular point group: c1
  Charge       = -1
  Multiplicity = 1
  Basis Set: AUG-CC-PVTZ
    Blend: AUG-CC-PVTZ
  Basis Set: (AUG-CC-PVTZ AUX)
    Blend: AUG-CC-PVTZ-JKFIT

    Orbital Energies [Eh]
    ---------------------

    Doubly Occupied:

       1A    -79.872016     2A    -20.405763     3A    -20.400975
       4A    -20.298098     5A    -20.297896     6A    -11.151975
       7A    -11.143913     8A    -11.110088     9A    -11.104241
      10A     -7.388421    11A     -5.287421    12A     -5.286422
      13A     -5.284975    14A     -1.240185    15A     -1.188186
      16A     -1.093676    17A     -1.054459    18A     -0.900332
      19A     -0.891157    20A     -0.720467    21A     -0.712540
      22A     -0.600391    23A     -0.541289    24A     -0.530425
      25A     -0.507669    26A     -0.460539    27A     -0.449429
      28A     -0.444318    29A     -0.426115    30A     -0.424223
      31A     -0.400341    32A     -0.399204    33A     -0.368826
      34A     -0.362534    35A     -0.326084    36A     -0.311835
      37A     -0.306030    38A     -0.280797    39A     -0.263245
      40A     -0.245512    41A     -0.230979

  @DF-RHF Final Energy:  -797.83868116648262

   => Energetics <=

    Nuclear Repulsion Energy =            614.4877881723625705
    One-Electron Energy =               -2335.2269535908417311
    Two-Electron Energy =                 922.9004842519965450
    Total Energy =                       -797.8386811664826155
  Basis Set: (AUG-CC-PVTZ AUX)
    Blend: AUG-CC-PVTZ-RI
    Molecular point group: c1

    Geometry (in Angstrom), charge = -1, multiplicity = 1:

       Center              X                  Y                   Z               Mass
    ------------   -----------------  -----------------  -----------------  -----------------
         P            0.003641796600     0.979680325415     0.001724626594    30.973761998420
         O           -1.152780203400    -0.077034674585    -0.545917373406    15.994914619570
         O            1.125220896600    -0.045195874585     0.532866226594    15.994914619570
         O            0.496086796600     1.701556325415    -1.225947373406    15.994914619570
         O           -0.488803203400     1.701556325415     1.229396626594    15.994914619570
         C           -1.795349203400    -0.902029674585     0.442759626594    12.000000000000
         C            1.802632796600    -0.902029674585    -0.439310373406    12.000000000000
         C           -2.702702203400    -1.872231674585    -0.282720373406    12.000000000000
         C            2.709985796600    -1.872232674585     0.286169626594    12.000000000000
         H           -1.035025203400    -1.437900674585     1.022259626594     1.007825032230
         H           -2.363386203400    -0.269414674585     1.132832626594     1.007825032230
         H            1.042307796600    -1.437901674585    -1.018810373406     1.007825032230
         H            2.370669796600    -0.269414674585    -1.129383373406     1.007825032230
         H           -3.220110203400    -2.516700674585     0.434230626594     1.007825032230
         H           -3.451721203400    -1.330277674585    -0.865385373406     1.007825032230
         H           -2.122388203400    -2.502426674585    -0.961191373406     1.007825032230
         H            3.227393796600    -2.516700674585    -0.430781373406     1.007825032230
         H            3.459004796600    -1.330277674585     0.868834626594     1.007825032230
         H            2.129671796600    -2.502426674585     0.964640626594     1.007825032230

  Basis Set: AUG-CC-PVTZ
    Blend: AUG-CC-PVTZ
  Basis Set: (AUG-CC-PVTZ AUX)
    Blend: AUG-CC-PVTZ-JKFIT
	 Reference Energy          =    -797.8386811664826155 [Eh]
	 Singles Energy            =      -0.0000000000000000 [Eh]
	 Same-Spin Energy          =      -0.4972778769762662 [Eh]
	 Opposite-Spin Energy      =      -1.5435339321892474 [Eh]
	 Correlation Energy        =      -2.0408118091655139 [Eh]
	 Total Energy              =    -799.8794929756480769 [Eh]

	 ================> DF-SCS-MP2 Energies <==================
	-----------------------------------------------------------
	 SCS Same-Spin Scale       =       0.3333333333333333 [-]
	 SCS Opposite-Spin Scale   =       1.2000000000000000 [-]
	 SCS Same-Spin Energy      =      -0.1657592923254221 [Eh]
	 SCS Opposite-Spin Energy  =      -1.8522407186270968 [Eh]
	 SCS Correlation Energy    =      -2.0180000109525187 [Eh]
	 SCS Total Energy          =    -799.8566811774351208 [Eh]
	-----------------------------------------------------------

  Dipole Moment: [D]
     X:     0.3015      Y:    -7.8310      Z:     0.0288     Total:     7.8368

*** Psi4 exiting successfully. Buy a developer a beer!
