                               Psi4 1.3.2 release

  ==> Input File <==

--------------------------------------------------------------------------
#psi4
#
memory 32 gb

molecule  {
-1 1
  P       -0.0010900    -1.0890910     0.0004590
  O       -1.1689040    -0.0506718     0.5674004
  O        1.1671362    -0.0510400    -0.5665627
  O        0.5034080    -1.8082920     1.2241620
  O       -0.5057790    -1.8082590    -1.2231120
  C       -1.8201030     0.7715450    -0.4363210
  C        1.8136140     0.7766970     0.4358730
  C       -2.6746040     1.7890640     0.2877210
  C        2.6862580     1.7776730    -0.2896530
  H       -1.0739810     1.2667980    -1.0678550
  H       -2.4287840     0.1238470    -1.0755890
  H        1.0642060     1.2858700     1.0522800
  H        2.4084330     0.1312990     1.0903160
  H       -3.2148500     2.4129370    -0.4309050
  H       -3.4044660     1.2870150     0.9274370
  H       -2.0509410     2.4359130     0.9094240
  H        3.2222650     2.4062160     0.4280610
  H        3.4201870     1.2611760    -0.9129680
  H        2.0763540     2.4215040    -0.9279010
units angstrom
no_reorient  #important for SAPT in psi4, default
symmetry c1  #important for SAPT in psi4, default
}

set PROPERTIES_ORIGIN ["COM"]
properties('MP2/aug-cc-pvtz', properties = ['dipole'])
--------------------------------------------------------------------------

    Molecular point group: c1
  Charge       = -1
  Multiplicity = 1
  Basis Set: AUG-CC-PVTZ
    Blend: AUG-CC-PVTZ
  Basis Set: (AUG-CC-PVTZ AUX)
    Blend: AUG-CC-PVTZ-JKFIT

    Orbital Energies [Eh]
    ---------------------

    Doubly Occupied:

       1A    -79.878141     2A    -20.406187     3A    -20.406172
       4A    -20.301629     5A    -20.301595     6A    -11.146529
       7A    -11.146512     8A    -11.105925     9A    -11.105883
      10A     -7.393710    11A     -5.292506    12A     -5.291743
      13A     -5.290277    14A     -1.232452    15A     -1.186016
      16A     -1.096881    17A     -1.057795    18A     -0.895445
      19A     -0.891983    20A     -0.714254    21A     -0.713609
      22A     -0.598514    23A     -0.537964    24A     -0.528266
      25A     -0.507882    26A     -0.457017    27A     -0.449997
      28A     -0.441448    29A     -0.423671    30A     -0.422899
      31A     -0.399647    32A     -0.399413    33A     -0.367440
      34A     -0.362471    35A     -0.330107    36A     -0.309326
      37A     -0.308435    38A     -0.282366    39A     -0.264964
      40A     -0.249042    41A     -0.234583

  @DF-RHF Final Energy:  -797.83669071777251

   => Energetics <=

    Nuclear Repulsion Energy =            612.4000032096118957
    One-Electron Energy =               -2331.0119942567903308
    Two-Electron Energy =                 920.7753003294059226
    Total Energy =                       -797.8366907177725125
  Basis Set: (AUG-CC-PVTZ AUX)
    Blend: AUG-CC-PVTZ-RI
    Molecular point group: c1

    Geometry (in Angstrom), charge = -1, multiplicity = 1:

       Center              X                  Y                   Z               Mass
    ------------   -----------------  -----------------  -----------------  -----------------
         P           -0.000963137420    -0.980116250023     0.000406133137    30.973761998420
         O           -1.168777137420     0.058302949977     0.567347533137    15.994914619570
         O            1.167263062580     0.057934749977    -0.566615566863    15.994914619570
         O            0.503534862580    -1.699317250023     1.224109133137    15.994914619570
         O           -0.505652137420    -1.699284250023    -1.223164866863    15.994914619570
         C           -1.819976137420     0.880519749977    -0.436373866863    12.000000000000
         C            1.813740862580     0.885671749977     0.435820133137    12.000000000000
         C           -2.674477137420     1.898038749977     0.287668133137    12.000000000000
         C            2.686384862580     1.886647749977    -0.289705866863    12.000000000000
         H           -1.073854137420     1.375772749977    -1.067907866863     1.007825032230
         H           -2.428657137420     0.232821749977    -1.075641866863     1.007825032230
         H            1.064332862580     1.394844749977     1.052227133137     1.007825032230
         H            2.408559862580     0.240273749977     1.090263133137     1.007825032230
         H           -3.214723137420     2.521911749977    -0.430957866863     1.007825032230
         H           -3.404339137420     1.395989749977     0.927384133137     1.007825032230
         H           -2.050814137420     2.544887749977     0.909371133137     1.007825032230
         H            3.222391862580     2.515190749977     0.428008133137     1.007825032230
         H            3.420313862580     1.370150749977    -0.913020866863     1.007825032230
         H            2.076480862580     2.530478749977    -0.927953866863     1.007825032230

  Basis Set: AUG-CC-PVTZ
    Blend: AUG-CC-PVTZ
  Basis Set: (AUG-CC-PVTZ AUX)
    Blend: AUG-CC-PVTZ-JKFIT
	 Reference Energy          =    -797.8366907177725125 [Eh]
	 Singles Energy            =      -0.0000000000000000 [Eh]
	 Same-Spin Energy          =      -0.4980063178099261 [Eh]
	 Opposite-Spin Energy      =      -1.5456873856765343 [Eh]
	 Correlation Energy        =      -2.0436937034864604 [Eh]
	 Total Energy              =    -799.8803844212590093 [Eh]

	 ================> DF-SCS-MP2 Energies <==================
	-----------------------------------------------------------
	 SCS Same-Spin Scale       =       0.3333333333333333 [-]
	 SCS Opposite-Spin Scale   =       1.2000000000000000 [-]
	 SCS Same-Spin Energy      =      -0.1660021059366420 [Eh]
	 SCS Opposite-Spin Energy  =      -1.8548248628118411 [Eh]
	 SCS Correlation Energy    =      -2.0208269687484832 [Eh]
	 SCS Total Energy          =    -799.8575176865209642 [Eh]
	-----------------------------------------------------------

  Dipole Moment: [D]
     X:    -0.0005      Y:     7.6367      Z:    -0.0034     Total:     7.6367

*** Psi4 exiting successfully. Buy a developer a beer!
