                               Psi4 1.3.2 release

  ==> Input File <==

--------------------------------------------------------------------------
#psi4
#
memory 32 gb

molecule  {
-1 1
  P       -0.0010900    -1.0890910     0.0004590
  O       -1.1524220    -0.0281740     0.5594010
  O        1.2892198     0.0990528    -0.6258160
  O        0.5034080    -1.8082920     1.2241620
  O       -0.5057790    -1.8082590    -1.2231120
  C       -1.8201030     0.7715450    -0.4363210
  C        1.8136140     0.7766970     0.4358730
  C       -2.6746040     1.7890640     0.2877210
  C        2.6862580     1.7776730    -0.2896530
  H       -1.0739810     1.2667980    -1.0678550
  H       -2.4287840     0.1238470    -1.0755890
  H        1.0642060     1.2858700     1.0522800
  H        2.4084330     0.1312990     1.0903160
  H       -3.2148500     2.4129370    -0.4309050
  H       -3.4044660     1.2870150     0.9274370
  H       -2.0509410     2.4359130     0.9094240
  H        3.2222650     2.4062160     0.4280610
  H        3.4201870     1.2611760    -0.9129680
  H        2.0763540     2.4215040    -0.9279010
units angstrom
no_reorient  #important for SAPT in psi4, default
symmetry c1  #important for SAPT in psi4, default
}

set PROPERTIES_ORIGIN ["COM"]
properties('MP2/aug-cc-pvtz', properties = ['dipole'])
--------------------------------------------------------------------------

    Molecular point group: c1
  Charge       = -1
  Multiplicity = 1
  Basis Set: AUG-CC-PVTZ
    Blend: AUG-CC-PVTZ
  Basis Set: (AUG-CC-PVTZ AUX)
    Blend: AUG-CC-PVTZ-JKFIT

    Orbital Energies [Eh]
    ---------------------

    Doubly Occupied:

       1A    -79.900600     2A    -20.419167     3A    -20.396661
       4A    -20.322530     5A    -20.320896     6A    -11.151164
       7A    -11.124035     8A    -11.108945     9A    -11.087570
      10A     -7.414703    11A     -5.313239    12A     -5.312467
      13A     -5.311049    14A     -1.233230    15A     -1.192283
      16A     -1.116705    17A     -1.074063    18A     -0.898144
      19A     -0.866326    20A     -0.719690    21A     -0.693202
      22A     -0.602030    23A     -0.538446    24A     -0.525437
      25A     -0.506325    26A     -0.460627    27A     -0.453854
      28A     -0.437815    29A     -0.422369    30A     -0.417575
      31A     -0.400032    32A     -0.391758    33A     -0.373148
      34A     -0.356719    35A     -0.342999    36A     -0.309287
      37A     -0.295462    38A     -0.285010    39A     -0.266968
      40A     -0.265693    41A     -0.252398

  @DF-RHF Final Energy:  -797.81031042065865

   => Energetics <=

    Nuclear Repulsion Energy =            608.2788105577229771
    One-Electron Energy =               -2322.4169978921581787
    Two-Electron Energy =                 916.3278769137766631
    Total Energy =                       -797.8103104206586522
  Basis Set: (AUG-CC-PVTZ AUX)
    Blend: AUG-CC-PVTZ-RI
    Molecular point group: c1

    Geometry (in Angstrom), charge = -1, multiplicity = 1:

       Center              X                  Y                   Z               Mass
    ------------   -----------------  -----------------  -----------------  -----------------
         P           -0.015446054123    -0.998155469596     0.007435404848    30.973761998420
         O           -1.166778054123     0.062761530404     0.566377404848    15.994914619570
         O            1.274863745877     0.189988330404    -0.618839595152    15.994914619570
         O            0.489051945877    -1.717356469596     1.231138404848    15.994914619570
         O           -0.520135054123    -1.717323469596    -1.216135595152    15.994914619570
         C           -1.834459054123     0.862480530404    -0.429344595152    12.000000000000
         C            1.799257945877     0.867632530404     0.442849404848    12.000000000000
         C           -2.688960054123     1.879999530404     0.294697404848    12.000000000000
         C            2.671901945877     1.868608530404    -0.282676595152    12.000000000000
         H           -1.088337054123     1.357733530404    -1.060878595152     1.007825032230
         H           -2.443140054123     0.214782530404    -1.068612595152     1.007825032230
         H            1.049849945877     1.376805530404     1.059256404848     1.007825032230
         H            2.394076945877     0.222234530404     1.097292404848     1.007825032230
         H           -3.229206054123     2.503872530404    -0.423928595152     1.007825032230
         H           -3.418822054123     1.377950530404     0.934413404848     1.007825032230
         H           -2.065297054123     2.526848530404     0.916400404848     1.007825032230
         H            3.207908945877     2.497151530404     0.435037404848     1.007825032230
         H            3.405830945877     1.352111530404    -0.905991595152     1.007825032230
         H            2.061997945877     2.512439530404    -0.920924595152     1.007825032230

  Basis Set: AUG-CC-PVTZ
    Blend: AUG-CC-PVTZ
  Basis Set: (AUG-CC-PVTZ AUX)
    Blend: AUG-CC-PVTZ-JKFIT
	 Reference Energy          =    -797.8103104206586522 [Eh]
	 Singles Energy            =      -0.0000000000000000 [Eh]
	 Same-Spin Energy          =      -0.5008540989704117 [Eh]
	 Opposite-Spin Energy      =      -1.5515779199499038 [Eh]
	 Correlation Energy        =      -2.0524320189203156 [Eh]
	 Total Energy              =    -799.8627424395789376 [Eh]

	 ================> DF-SCS-MP2 Energies <==================
	-----------------------------------------------------------
	 SCS Same-Spin Scale       =       0.3333333333333333 [-]
	 SCS Opposite-Spin Scale   =       1.2000000000000000 [-]
	 SCS Same-Spin Energy      =      -0.1669513663234705 [Eh]
	 SCS Opposite-Spin Energy  =      -1.8618935039398845 [Eh]
	 SCS Correlation Energy    =      -2.0288448702633550 [Eh]
	 SCS Total Energy          =    -799.8391552909220081 [Eh]
	-----------------------------------------------------------

  Dipole Moment: [D]
     X:    -1.1102      Y:     6.5561      Z:     0.1024     Total:     6.6502

*** Psi4 exiting successfully. Buy a developer a beer!
