                               Psi4 1.3.2 release

  ==> Input File <==

--------------------------------------------------------------------------
#psi4
#
memory 32 gb

molecule  {
-1 1
  P        0.0038047    -1.0977431     0.0277167
  O       -1.1524220    -0.0281740     0.5594010
  O        1.1506610    -0.0285350    -0.5585640
  O        0.5034080    -1.8082920     1.2241620
  O       -0.5057790    -1.8082590    -1.2231120
  C       -1.8336744     0.7824330    -0.4181583
  C        1.8136140     0.7766970     0.4358730
  C       -2.6746040     1.7890640     0.2877210
  C        2.6862580     1.7776730    -0.2896530
  H       -1.0739810     1.2667980    -1.0678550
  H       -2.4287840     0.1238470    -1.0755890
  H        1.0642060     1.2858700     1.0522800
  H        2.4084330     0.1312990     1.0903160
  H       -3.2148500     2.4129370    -0.4309050
  H       -3.4044660     1.2870150     0.9274370
  H       -2.0509410     2.4359130     0.9094240
  H        3.2222650     2.4062160     0.4280610
  H        3.4201870     1.2611760    -0.9129680
  H        2.0763540     2.4215040    -0.9279010
units angstrom
no_reorient  #important for SAPT in psi4, default
symmetry c1  #important for SAPT in psi4, default
}

set PROPERTIES_ORIGIN ["COM"]
properties('MP2/aug-cc-pvtz', properties = ['dipole'])
--------------------------------------------------------------------------

    Molecular point group: c1
  Charge       = -1
  Multiplicity = 1
  Basis Set: AUG-CC-PVTZ
    Blend: AUG-CC-PVTZ
  Basis Set: (AUG-CC-PVTZ AUX)
    Blend: AUG-CC-PVTZ-JKFIT

    Orbital Energies [Eh]
    ---------------------

    Doubly Occupied:

       1A    -79.879234     2A    -20.403201     3A    -20.402519
       4A    -20.309801     5A    -20.299918     6A    -11.145272
       7A    -11.143593     8A    -11.104387     9A    -11.104085
      10A     -7.394922    11A     -5.293739    12A     -5.292897
      13A     -5.291542    14A     -1.232800    15A     -1.185121
      16A     -1.106354    17A     -1.057661    18A     -0.898387
      19A     -0.890488    20A     -0.712108    21A     -0.710332
      22A     -0.598022    23A     -0.537954    24A     -0.527633
      25A     -0.505701    26A     -0.459015    27A     -0.449707
      28A     -0.443734    29A     -0.424143    30A     -0.421763
      31A     -0.400784    32A     -0.396909    33A     -0.369387
      34A     -0.359871    35A     -0.331132    36A     -0.305648
      37A     -0.301701    38A     -0.286363    39A     -0.271753
      40A     -0.248552    41A     -0.237071

  @DF-RHF Final Energy:  -797.83672563325558

   => Energetics <=

    Nuclear Repulsion Energy =            612.8611749037604568
    One-Electron Energy =               -2331.9253916212132935
    Two-Electron Energy =                 921.2274910841972542
    Total Energy =                       -797.8367256332555826
  Basis Set: (AUG-CC-PVTZ AUX)
    Blend: AUG-CC-PVTZ-RI
    Molecular point group: c1

    Geometry (in Angstrom), charge = -1, multiplicity = 1:

       Center              X                  Y                   Z               Mass
    ------------   -----------------  -----------------  -----------------  -----------------
         P            0.004004362947    -0.992574646160     0.020722690102    30.973761998420
         O           -1.152222337053     0.076994453840     0.552406990102    15.994914619570
         O            1.150860662947     0.076633453840    -0.565558009898    15.994914619570
         O            0.503607662947    -1.703123546160     1.217167990102    15.994914619570
         O           -0.505579337053    -1.703090546160    -1.230106009898    15.994914619570
         C           -1.833474737053     0.887601453840    -0.425152309898    12.000000000000
         C            1.813813662947     0.881865453840     0.428878990102    12.000000000000
         C           -2.674404337053     1.894232453840     0.280726990102    12.000000000000
         C            2.686457662947     1.882841453840    -0.296647009898    12.000000000000
         H           -1.073781337053     1.371966453840    -1.074849009898     1.007825032230
         H           -2.428584337053     0.229015453840    -1.082583009898     1.007825032230
         H            1.064405662947     1.391038453840     1.045285990102     1.007825032230
         H            2.408632662947     0.236467453840     1.083321990102     1.007825032230
         H           -3.214650337053     2.518105453840    -0.437899009898     1.007825032230
         H           -3.404266337053     1.392183453840     0.920442990102     1.007825032230
         H           -2.050741337053     2.541081453840     0.902429990102     1.007825032230
         H            3.222464662947     2.511384453840     0.421066990102     1.007825032230
         H            3.420386662947     1.366344453840    -0.919962009898     1.007825032230
         H            2.076553662947     2.526672453840    -0.934895009898     1.007825032230

  Basis Set: AUG-CC-PVTZ
    Blend: AUG-CC-PVTZ
  Basis Set: (AUG-CC-PVTZ AUX)
    Blend: AUG-CC-PVTZ-JKFIT
	 Reference Energy          =    -797.8367256332555826 [Eh]
	 Singles Energy            =      -0.0000000000000000 [Eh]
	 Same-Spin Energy          =      -0.4980088139392399 [Eh]
	 Opposite-Spin Energy      =      -1.5451761129107082 [Eh]
	 Correlation Energy        =      -2.0431849268499480 [Eh]
	 Total Energy              =    -799.8799105601054862 [Eh]

	 ================> DF-SCS-MP2 Energies <==================
	-----------------------------------------------------------
	 SCS Same-Spin Scale       =       0.3333333333333333 [-]
	 SCS Opposite-Spin Scale   =       1.2000000000000000 [-]
	 SCS Same-Spin Energy      =      -0.1660029379797466 [Eh]
	 SCS Opposite-Spin Energy  =      -1.8542113354928498 [Eh]
	 SCS Correlation Energy    =      -2.0202142734725963 [Eh]
	 SCS Total Energy          =    -799.8569399067281438 [Eh]
	-----------------------------------------------------------

  Dipole Moment: [D]
     X:     0.0201      Y:     7.4177      Z:     0.3096     Total:     7.4242

*** Psi4 exiting successfully. Buy a developer a beer!
