                               Psi4 1.3.2 release

  ==> Input File <==

--------------------------------------------------------------------------
#psi4
#
memory 32 gb

molecule  {
-1 1
  P        0.0125361    -1.1140673     0.0827095
  O       -1.1524220    -0.0281740     0.5594010
  O        1.1506610    -0.0285350    -0.5585640
  O        0.5034080    -1.8082920     1.2241620
  O       -0.5057790    -1.8082590    -1.2231120
  C       -1.8601907     0.8034650    -0.3809451
  C        1.8136140     0.7766970     0.4358730
  C       -2.6746040     1.7890640     0.2877210
  C        2.6862580     1.7776730    -0.2896530
  H       -1.0739810     1.2667980    -1.0678550
  H       -2.4287840     0.1238470    -1.0755890
  H        1.0642060     1.2858700     1.0522800
  H        2.4084330     0.1312990     1.0903160
  H       -3.2148500     2.4129370    -0.4309050
  H       -3.4044660     1.2870150     0.9274370
  H       -2.0509410     2.4359130     0.9094240
  H        3.2222650     2.4062160     0.4280610
  H        3.4201870     1.2611760    -0.9129680
  H        2.0763540     2.4215040    -0.9279010
units angstrom
no_reorient  #important for SAPT in psi4, default
symmetry c1  #important for SAPT in psi4, default
}

set PROPERTIES_ORIGIN ["COM"]
properties('MP2/aug-cc-pvtz', properties = ['dipole'])
--------------------------------------------------------------------------

    Molecular point group: c1
  Charge       = -1
  Multiplicity = 1
  Basis Set: AUG-CC-PVTZ
    Blend: AUG-CC-PVTZ
  Basis Set: (AUG-CC-PVTZ AUX)
    Blend: AUG-CC-PVTZ-JKFIT

    Orbital Energies [Eh]
    ---------------------

    Doubly Occupied:

       1A    -79.878425     2A    -20.400801     3A    -20.398164
       4A    -20.321735     5A    -20.292506     6A    -11.146704
       7A    -11.140967     8A    -11.103228     9A    -11.102365
      10A     -7.395298    11A     -5.293853    12A     -5.293454
      13A     -5.291803    14A     -1.230140    15A     -1.179813
      16A     -1.134138    17A     -1.040534    18A     -0.909531
      19A     -0.887640    20A     -0.708535    21A     -0.705108
      22A     -0.594383    23A     -0.535874    24A     -0.524841
      25A     -0.503856    26A     -0.465472    27A     -0.452123
      28A     -0.444473    29A     -0.426739    30A     -0.418833
      31A     -0.403721    32A     -0.392995    33A     -0.372306
      34A     -0.358536    35A     -0.333622    36A     -0.303771
      37A     -0.296056    38A     -0.287581    39A     -0.285760
      40A     -0.235875    41A     -0.231406

  @DF-RHF Final Energy:  -797.81904946429097

   => Energetics <=

    Nuclear Repulsion Energy =            612.4988507840589591
    One-Electron Energy =               -2331.1898694551018707
    Two-Electron Energy =                 920.8719692067519418
    Total Energy =                       -797.8190494642909698
  Basis Set: (AUG-CC-PVTZ AUX)
    Blend: AUG-CC-PVTZ-RI
    Molecular point group: c1

    Geometry (in Angstrom), charge = -1, multiplicity = 1:

       Center              X                  Y                   Z               Mass
    ------------   -----------------  -----------------  -----------------  -----------------
         P            0.013047798320    -1.007244039124     0.061666814507    30.973761998420
         O           -1.151910301680     0.078649260876     0.538358314507    15.994914619570
         O            1.151172698320     0.078288260876    -0.579606685493    15.994914619570
         O            0.503919698320    -1.701468739124     1.203119314507    15.994914619570
         O           -0.505267301680    -1.701435739124    -1.244154685493    15.994914619570
         C           -1.859679001680     0.910288260876    -0.401987785493    12.000000000000
         C            1.814125698320     0.883520260876     0.414830314507    12.000000000000
         C           -2.674092301680     1.895887260876     0.266678314507    12.000000000000
         C            2.686769698320     1.884496260876    -0.310695685493    12.000000000000
         H           -1.073469301680     1.373621260876    -1.088897685493     1.007825032230
         H           -2.428272301680     0.230670260876    -1.096631685493     1.007825032230
         H            1.064717698320     1.392693260876     1.031237314507     1.007825032230
         H            2.408944698320     0.238122260876     1.069273314507     1.007825032230
         H           -3.214338301680     2.519760260876    -0.451947685493     1.007825032230
         H           -3.403954301680     1.393838260876     0.906394314507     1.007825032230
         H           -2.050429301680     2.542736260876     0.888381314507     1.007825032230
         H            3.222776698320     2.513039260876     0.407018314507     1.007825032230
         H            3.420698698320     1.367999260876    -0.934010685493     1.007825032230
         H            2.076865698320     2.528327260876    -0.948943685493     1.007825032230

  Basis Set: AUG-CC-PVTZ
    Blend: AUG-CC-PVTZ
  Basis Set: (AUG-CC-PVTZ AUX)
    Blend: AUG-CC-PVTZ-JKFIT
	 Reference Energy          =    -797.8190494642909698 [Eh]
	 Singles Energy            =      -0.0000000000000000 [Eh]
	 Same-Spin Energy          =      -0.4983972498565374 [Eh]
	 Opposite-Spin Energy      =      -1.5457165813464295 [Eh]
	 Correlation Energy        =      -2.0441138312029672 [Eh]
	 Total Energy              =    -799.8631632954939050 [Eh]

	 ================> DF-SCS-MP2 Energies <==================
	-----------------------------------------------------------
	 SCS Same-Spin Scale       =       0.3333333333333333 [-]
	 SCS Opposite-Spin Scale   =       1.2000000000000000 [-]
	 SCS Same-Spin Energy      =      -0.1661324166188458 [Eh]
	 SCS Opposite-Spin Energy  =      -1.8548598976157153 [Eh]
	 SCS Correlation Energy    =      -2.0209923142345612 [Eh]
	 SCS Total Energy          =    -799.8400417785255740 [Eh]
	-----------------------------------------------------------

  Dipole Moment: [D]
     X:     0.0492      Y:     7.2718      Z:     0.9344     Total:     7.3317

*** Psi4 exiting successfully. Buy a developer a beer!
