                               Psi4 1.4a3.dev225

  ==> Input File <==

--------------------------------------------------------------------------
#psi4
#
memory 32 gb

molecule  {
-1 1
  P        0.0000000     1.0872980     0.0000000
  O       -1.1424848     0.0433185    -0.5410418
  O        1.1564220     0.0305830     0.5476420
  O        0.4924450     1.8091740    -1.2276720
  O       -0.4924450     1.8091740     1.2276720
  C       -1.7989910    -0.7944120     0.4410350
  C        1.7989910    -0.7944120    -0.4410350
  C       -2.7063440    -1.7646140    -0.2844450
  C        2.7063440    -1.7646150     0.2844450
  H       -1.0386670    -1.3302830     1.0205350
  H       -2.3670280    -0.1617970     1.1311080
  H        1.0386660    -1.3302840    -1.0205350
  H        2.3670280    -0.1617970    -1.1311080
  H       -3.2237520    -2.4090830     0.4325060
  H       -3.4553630    -1.2226600    -0.8671100
  H       -2.1260300    -2.3948090    -0.9629160
  H        3.2237520    -2.4090830    -0.4325060
  H        3.4553630    -1.2226600     0.8671100
  H        2.1260300    -2.3948090     0.9629160
units angstrom
no_reorient  #important for SAPT in psi4, default
symmetry c1  #important for SAPT in psi4, default
}

set PROPERTIES_ORIGIN ["COM"]
properties('MP2/aug-cc-pvtz', properties = ['dipole'])
--------------------------------------------------------------------------

    Molecular point group: c1
  Charge       = -1
  Multiplicity = 1
  Basis Set: AUG-CC-PVTZ
    Blend: AUG-CC-PVTZ
  Basis Set: (AUG-CC-PVTZ AUX)
    Blend: AUG-CC-PVTZ-JKFIT

    Orbital Energies [Eh]
    ---------------------

    Doubly Occupied:

       1A    -79.876252     2A    -20.405369     3A    -20.403397
       4A    -20.301064     5A    -20.300970     6A    -11.148064
       7A    -11.144901     8A    -11.107201     9A    -11.104884
      10A     -7.392111    11A     -5.291038    12A     -5.290098
      13A     -5.288689    14A     -1.237791    15A     -1.188836
      16A     -1.096698    17A     -1.056893    18A     -0.896761
      19A     -0.891541    20A     -0.716912    21A     -0.713436
      22A     -0.600684    23A     -0.540700    24A     -0.530353
      25A     -0.507509    26A     -0.459210    27A     -0.449359
      28A     -0.443975    29A     -0.425039    30A     -0.423196
      31A     -0.400469    32A     -0.400046    33A     -0.367253
      34A     -0.362141    35A     -0.328340    36A     -0.309461
      37A     -0.306489    38A     -0.282627    39A     -0.265345
      40A     -0.248181    41A     -0.233759

  @DF-RHF Final Energy:  -797.83930734649994

   => Energetics <=

    Nuclear Repulsion Energy =            613.6473998609636737
    One-Electron Energy =               -2333.4993284034380849
    Two-Electron Energy =                 922.0126211959745888
    Total Energy =                       -797.8393073464999361
  Basis Set: (AUG-CC-PVTZ AUX)
    Blend: AUG-CC-PVTZ-RI
    Molecular point group: c1

    Geometry (in Angstrom), charge = -1, multiplicity = 1:

       Center              X                  Y                   Z               Mass
    ------------   -----------------  -----------------  -----------------  -----------------
         P           -0.001456713601     0.981677007872    -0.000689854818    30.973761998420
         O           -1.143941513601    -0.062302492128    -0.541731654818    15.994914619570
         O            1.154965286399    -0.075037992128     0.546952145182    15.994914619570
         O            0.490988286399     1.703553007872    -1.228361854818    15.994914619570
         O           -0.493901713601     1.703553007872     1.226982145182    15.994914619570
         C           -1.800447713601    -0.900032992128     0.440345145182    12.000000000000
         C            1.797534286399    -0.900032992128    -0.441724854818    12.000000000000
         C           -2.707800713601    -1.870234992128    -0.285134854818    12.000000000000
         C            2.704887286399    -1.870235992128     0.283755145182    12.000000000000
         H           -1.040123713601    -1.435903992128     1.019845145182     1.007825032230
         H           -2.368484713601    -0.267417992128     1.130418145182     1.007825032230
         H            1.037209286399    -1.435904992128    -1.021224854818     1.007825032230
         H            2.365571286399    -0.267417992128    -1.131797854818     1.007825032230
         H           -3.225208713601    -2.514703992128     0.431816145182     1.007825032230
         H           -3.456819713601    -1.328280992128    -0.867799854818     1.007825032230
         H           -2.127486713601    -2.500429992128    -0.963605854818     1.007825032230
         H            3.222295286399    -2.514703992128    -0.433195854818     1.007825032230
         H            3.453906286399    -1.328280992128     0.866420145182     1.007825032230
         H            2.124573286399    -2.500429992128     0.962226145182     1.007825032230

  Basis Set: AUG-CC-PVTZ
    Blend: AUG-CC-PVTZ
  Basis Set: (AUG-CC-PVTZ AUX)
    Blend: AUG-CC-PVTZ-JKFIT
	 Reference Energy          =    -797.8393073464999361 [Eh]
	 Singles Energy            =      -0.0000000000000000 [Eh]
	 Same-Spin Energy          =      -0.4976005441329646 [Eh]
	 Opposite-Spin Energy      =      -1.5443084498234416 [Eh]
	 Correlation Energy        =      -2.0419089939564063 [Eh]
	 Total Energy              =    -799.8812163404563762 [Eh]

	 ================> DF-SCS-MP2 Energies <==================
	-----------------------------------------------------------
	 SCS Same-Spin Scale       =       0.3333333333333333 [-]
	 SCS Opposite-Spin Scale   =       1.2000000000000000 [-]
	 SCS Same-Spin Energy      =      -0.1658668480443215 [Eh]
	 SCS Opposite-Spin Energy  =      -1.8531701397881299 [Eh]
	 SCS Correlation Energy    =      -2.0190369878324517 [Eh]
	 SCS Total Energy          =    -799.8583443343324006 [Eh]
	-----------------------------------------------------------

  Dipole Moment: [D]
     X:    -0.1196      Y:    -7.6768      Z:    -0.0113     Total:     7.6777

*** Psi4 exiting successfully. Buy a developer a beer!
