                               Psi4 1.3.2 release

  ==> Input File <==

--------------------------------------------------------------------------
#psi4
#
memory 32 gb

molecule  {
-1 1
  P       -0.0010900    -1.0890910     0.0004590
  O       -1.1524220    -0.0281740     0.5594010
  O        1.1417362    -0.0246036    -0.5693049
  O        0.4920612    -1.8148894     1.2248919
  O       -0.5057790    -1.8082590    -1.2231120
  C       -1.8201030     0.7715450    -0.4363210
  C        1.8136140     0.7766970     0.4358730
  C       -2.6746040     1.7890640     0.2877210
  C        2.6862580     1.7776730    -0.2896530
  H       -1.0739810     1.2667980    -1.0678550
  H       -2.4287840     0.1238470    -1.0755890
  H        1.0642060     1.2858700     1.0522800
  H        2.4084330     0.1312990     1.0903160
  H       -3.2148500     2.4129370    -0.4309050
  H       -3.4044660     1.2870150     0.9274370
  H       -2.0509410     2.4359130     0.9094240
  H        3.2222650     2.4062160     0.4280610
  H        3.4201870     1.2611760    -0.9129680
  H        2.0763540     2.4215040    -0.9279010
units angstrom
no_reorient  #important for SAPT in psi4, default
symmetry c1  #important for SAPT in psi4, default
}

set PROPERTIES_ORIGIN ["COM"]
properties('MP2/aug-cc-pvtz', properties = ['dipole'])
--------------------------------------------------------------------------

    Molecular point group: c1
  Charge       = -1
  Multiplicity = 1
  Basis Set: AUG-CC-PVTZ
    Blend: AUG-CC-PVTZ
  Basis Set: (AUG-CC-PVTZ AUX)
    Blend: AUG-CC-PVTZ-JKFIT

    Orbital Energies [Eh]
    ---------------------

    Doubly Occupied:

       1A    -79.878795     2A    -20.405856     3A    -20.403888
       4A    -20.304173     5A    -20.302366     6A    -11.146376
       7A    -11.144371     8A    -11.105658     9A    -11.104629
      10A     -7.394354    11A     -5.293208    12A     -5.292306
      13A     -5.290963    14A     -1.234146    15A     -1.186256
      16A     -1.098776    17A     -1.058890    18A     -0.894955
      19A     -0.890819    20A     -0.714119    21A     -0.712932
      22A     -0.599268    23A     -0.538224    24A     -0.529106
      25A     -0.506719    26A     -0.457837    27A     -0.449405
      28A     -0.441948    29A     -0.423368    30A     -0.422444
      31A     -0.400686    32A     -0.398770    33A     -0.366920
      34A     -0.361320    35A     -0.330823    36A     -0.308535
      37A     -0.305746    38A     -0.284076    39A     -0.266550
      40A     -0.250357    41A     -0.235885

  @DF-RHF Final Energy:  -797.83788729547848

   => Energetics <=

    Nuclear Repulsion Energy =            612.9379233313335362
    One-Electron Energy =               -2332.0799743544471312
    Two-Electron Energy =                 921.3041637276352276
    Total Energy =                       -797.8378872954784811
  Basis Set: (AUG-CC-PVTZ AUX)
    Blend: AUG-CC-PVTZ-RI
    Molecular point group: c1

    Geometry (in Angstrom), charge = -1, multiplicity = 1:

       Center              X                  Y                   Z               Mass
    ------------   -----------------  -----------------  -----------------  -----------------
         P            0.001154945354    -0.984541304639     0.001452558925    30.973761998420
         O           -1.150177054646     0.076375695361     0.560394558925    15.994914619570
         O            1.143981145354     0.079946095361    -0.568311341075    15.994914619570
         O            0.494306145354    -1.710339704639     1.225885458925    15.994914619570
         O           -0.503534054646    -1.703709304639    -1.222118441075    15.994914619570
         C           -1.817858054646     0.876094695361    -0.435327441075    12.000000000000
         C            1.815858945354     0.881246695361     0.436866558925    12.000000000000
         C           -2.672359054646     1.893613695361     0.288714558925    12.000000000000
         C            2.688502945354     1.882222695361    -0.288659441075    12.000000000000
         H           -1.071736054646     1.371347695361    -1.066861441075     1.007825032230
         H           -2.426539054646     0.228396695361    -1.074595441075     1.007825032230
         H            1.066450945354     1.390419695361     1.053273558925     1.007825032230
         H            2.410677945354     0.235848695361     1.091309558925     1.007825032230
         H           -3.212605054646     2.517486695361    -0.429911441075     1.007825032230
         H           -3.402221054646     1.391564695361     0.928430558925     1.007825032230
         H           -2.048696054646     2.540462695361     0.910417558925     1.007825032230
         H            3.224509945354     2.510765695361     0.429054558925     1.007825032230
         H            3.422431945354     1.365725695361    -0.911974441075     1.007825032230
         H            2.078598945354     2.526053695361    -0.926907441075     1.007825032230

  Basis Set: AUG-CC-PVTZ
    Blend: AUG-CC-PVTZ
  Basis Set: (AUG-CC-PVTZ AUX)
    Blend: AUG-CC-PVTZ-JKFIT
	 Reference Energy          =    -797.8378872954784811 [Eh]
	 Singles Energy            =      -0.0000000000000000 [Eh]
	 Same-Spin Energy          =      -0.4979828813349071 [Eh]
	 Opposite-Spin Energy      =      -1.5454071984162934 [Eh]
	 Correlation Energy        =      -2.0433900797512003 [Eh]
	 Total Energy              =    -799.8812773752297289 [Eh]

	 ================> DF-SCS-MP2 Energies <==================
	-----------------------------------------------------------
	 SCS Same-Spin Scale       =       0.3333333333333333 [-]
	 SCS Opposite-Spin Scale   =       1.2000000000000000 [-]
	 SCS Same-Spin Energy      =      -0.1659942937783024 [Eh]
	 SCS Opposite-Spin Energy  =      -1.8544886380995520 [Eh]
	 SCS Correlation Energy    =      -2.0204829318778543 [Eh]
	 SCS Total Energy          =    -799.8583702273563176 [Eh]
	-----------------------------------------------------------

  Dipole Moment: [D]
     X:     0.0759      Y:     7.5297      Z:     0.0273     Total:     7.5302

*** Psi4 exiting successfully. Buy a developer a beer!
