                               Psi4 1.3.2 release

  ==> Input File <==

--------------------------------------------------------------------------
#psi4
#
memory 32 gb

molecule  {
-1 1
  P       -0.0010900    -1.0890910     0.0004590
  O       -1.1524220    -0.0281740     0.5594010
  O        1.1506610    -0.0285350    -0.5585640
  O        0.5034080    -1.8082920     1.2241620
  O       -0.5392835    -1.8560020    -1.3043404
  C       -1.8201030     0.7715450    -0.4363210
  C        1.8136140     0.7766970     0.4358730
  C       -2.6746040     1.7890640     0.2877210
  C        2.6862580     1.7776730    -0.2896530
  H       -1.0739810     1.2667980    -1.0678550
  H       -2.4287840     0.1238470    -1.0755890
  H        1.0642060     1.2858700     1.0522800
  H        2.4084330     0.1312990     1.0903160
  H       -3.2148500     2.4129370    -0.4309050
  H       -3.4044660     1.2870150     0.9274370
  H       -2.0509410     2.4359130     0.9094240
  H        3.2222650     2.4062160     0.4280610
  H        3.4201870     1.2611760    -0.9129680
  H        2.0763540     2.4215040    -0.9279010
units angstrom
no_reorient  #important for SAPT in psi4, default
symmetry c1  #important for SAPT in psi4, default
}

set PROPERTIES_ORIGIN ["COM"]
properties('MP2/aug-cc-pvtz', properties = ['dipole'])
--------------------------------------------------------------------------

    Molecular point group: c1
  Charge       = -1
  Multiplicity = 1
  Basis Set: AUG-CC-PVTZ
    Blend: AUG-CC-PVTZ
  Basis Set: (AUG-CC-PVTZ AUX)
    Blend: AUG-CC-PVTZ-JKFIT

    Orbital Energies [Eh]
    ---------------------

    Doubly Occupied:

       1A    -79.895569     2A    -20.411155     3A    -20.410795
       4A    -20.312053     5A    -20.306998     6A    -11.149005
       7A    -11.147017     8A    -11.107557     9A    -11.106630
      10A     -7.408385    11A     -5.307435    12A     -5.306451
      13A     -5.304539    14A     -1.238093    15A     -1.193026
      16A     -1.093592    17A     -1.034709    18A     -0.897505
      19A     -0.893236    20A     -0.717739    21A     -0.715676
      22A     -0.605962    23A     -0.541752    24A     -0.532800
      25A     -0.509893    26A     -0.461916    27A     -0.451594
      28A     -0.444296    29A     -0.425960    30A     -0.424876
      31A     -0.401845    32A     -0.400954    33A     -0.365053
      34A     -0.362349    35A     -0.326525    36A     -0.311058
      37A     -0.308387    38A     -0.276831    39A     -0.268054
      40A     -0.240637    41A     -0.230609

  @DF-RHF Final Energy:  -797.82176377101302

   => Energetics <=

    Nuclear Repulsion Energy =            608.7104404507346089
    One-Electron Energy =               -2323.3673788418805088
    Two-Electron Energy =                 916.8351746201329888
    Total Energy =                       -797.8217637710130248
  Basis Set: (AUG-CC-PVTZ AUX)
    Blend: AUG-CC-PVTZ-RI
    Molecular point group: c1

    Geometry (in Angstrom), charge = -1, multiplicity = 1:

       Center              X                  Y                   Z               Mass
    ------------   -----------------  -----------------  -----------------  -----------------
         P            0.002538051901    -0.979829843524     0.008896222230    30.973761998420
         O           -1.148793948099     0.081087156476     0.567838222230    15.994914619570
         O            1.154289051901     0.080726156476    -0.550126777770    15.994914619570
         O            0.507036051901    -1.699030843524     1.232599222230    15.994914619570
         O           -0.535655448099    -1.746740843524    -1.295903177770    15.994914619570
         C           -1.816474948099     0.880806156476    -0.427883777770    12.000000000000
         C            1.817242051901     0.885958156476     0.444310222230    12.000000000000
         C           -2.670975948099     1.898325156476     0.296158222230    12.000000000000
         C            2.689886051901     1.886934156476    -0.281215777770    12.000000000000
         H           -1.070352948099     1.376059156476    -1.059417777770     1.007825032230
         H           -2.425155948099     0.233108156476    -1.067151777770     1.007825032230
         H            1.067834051901     1.395131156476     1.060717222230     1.007825032230
         H            2.412061051901     0.240560156476     1.098753222230     1.007825032230
         H           -3.211221948099     2.522198156476    -0.422467777770     1.007825032230
         H           -3.400837948099     1.396276156476     0.935874222230     1.007825032230
         H           -2.047312948099     2.545174156476     0.917861222230     1.007825032230
         H            3.225893051901     2.515477156476     0.436498222230     1.007825032230
         H            3.423815051901     1.370437156476    -0.904530777770     1.007825032230
         H            2.079982051901     2.530765156476    -0.919463777770     1.007825032230

  Basis Set: AUG-CC-PVTZ
    Blend: AUG-CC-PVTZ
  Basis Set: (AUG-CC-PVTZ AUX)
    Blend: AUG-CC-PVTZ-JKFIT
	 Reference Energy          =    -797.8217637710130248 [Eh]
	 Singles Energy            =      -0.0000000000000000 [Eh]
	 Same-Spin Energy          =      -0.4997704182675330 [Eh]
	 Opposite-Spin Energy      =      -1.5499774411662339 [Eh]
	 Correlation Energy        =      -2.0497478594337668 [Eh]
	 Total Energy              =    -799.8715116304467756 [Eh]

	 ================> DF-SCS-MP2 Energies <==================
	-----------------------------------------------------------
	 SCS Same-Spin Scale       =       0.3333333333333333 [-]
	 SCS Opposite-Spin Scale   =       1.2000000000000000 [-]
	 SCS Same-Spin Energy      =      -0.1665901394225110 [Eh]
	 SCS Opposite-Spin Energy  =      -1.8599729293994807 [Eh]
	 SCS Correlation Energy    =      -2.0265630688219916 [Eh]
	 SCS Total Energy          =    -799.8483268398350674 [Eh]
	-----------------------------------------------------------

  Dipole Moment: [D]
     X:     0.2005      Y:     7.8540      Z:     0.4560     Total:     7.8698

*** Psi4 exiting successfully. Buy a developer a beer!
