                               Psi4 1.3.2 release

  ==> Input File <==

--------------------------------------------------------------------------
#psi4
#
memory 32 gb

molecule  {
-1 1
  P       -0.0010900    -1.0890910     0.0004590
  O       -1.1413031    -0.0245837     0.5547494
  O        1.1506610    -0.0285350    -0.5585640
  O        0.5034080    -1.8082920     1.2241620
  O       -0.5057790    -1.8082590    -1.2231120
  C       -1.8201030     0.7715450    -0.4363210
  C        1.8136140     0.7766970     0.4358730
  C       -2.6746040     1.7890640     0.2877210
  C        2.6862580     1.7776730    -0.2896530
  H       -1.0670062     1.2626793    -1.0627722
  H       -2.4287840     0.1238470    -1.0755890
  H        1.0642060     1.2858700     1.0522800
  H        2.4084330     0.1312990     1.0903160
  H       -3.2148500     2.4129370    -0.4309050
  H       -3.4044660     1.2870150     0.9274370
  H       -2.0509410     2.4359130     0.9094240
  H        3.2222650     2.4062160     0.4280610
  H        3.4201870     1.2611760    -0.9129680
  H        2.0763540     2.4215040    -0.9279010
units angstrom
no_reorient  #important for SAPT in psi4, default
symmetry c1  #important for SAPT in psi4, default
}

set PROPERTIES_ORIGIN ["COM"]
properties('MP2/aug-cc-pvtz', properties = ['dipole'])
--------------------------------------------------------------------------

    Molecular point group: c1
  Charge       = -1
  Multiplicity = 1
  Basis Set: AUG-CC-PVTZ
    Blend: AUG-CC-PVTZ
  Basis Set: (AUG-CC-PVTZ AUX)
    Blend: AUG-CC-PVTZ-JKFIT

    Orbital Energies [Eh]
    ---------------------

    Doubly Occupied:

       1A    -79.878490     2A    -20.404355     3A    -20.403671
       4A    -20.303355     5A    -20.303300     6A    -11.145446
       7A    -11.144433     8A    -11.105524     9A    -11.104611
      10A     -7.394107    11A     -5.292990    12A     -5.292072
      13A     -5.290710    14A     -1.235932    15A     -1.187763
      16A     -1.098878    17A     -1.059136    18A     -0.894876
      19A     -0.890664    20A     -0.714683    21A     -0.712884
      22A     -0.599873    23A     -0.539176    24A     -0.529695
      25A     -0.506883    26A     -0.458804    27A     -0.449076
      28A     -0.442702    29A     -0.423697    30A     -0.423083
      31A     -0.400968    32A     -0.399063    33A     -0.367101
      34A     -0.360697    35A     -0.330132    36A     -0.307790
      37A     -0.305312    38A     -0.284225    39A     -0.266521
      40A     -0.250509    41A     -0.236128

  @DF-RHF Final Energy:  -797.83904522127273

   => Energetics <=

    Nuclear Repulsion Energy =            613.4237154750022682
    One-Electron Energy =               -2333.0468936174975170
    Two-Electron Energy =                 921.7841329212226356
    Total Energy =                       -797.8390452212727268
  Basis Set: (AUG-CC-PVTZ AUX)
    Blend: AUG-CC-PVTZ-RI
    Molecular point group: c1

    Geometry (in Angstrom), charge = -1, multiplicity = 1:

       Center              X                  Y                   Z               Mass
    ------------   -----------------  -----------------  -----------------  -----------------
         P           -0.002171932950    -0.985168090290     0.000858918942    30.973761998420
         O           -1.142385032950     0.079339209710     0.555149318942    15.994914619570
         O            1.149579067050     0.075387909710    -0.558164081058    15.994914619570
         O            0.502326067050    -1.704369090290     1.224561918942    15.994914619570
         O           -0.506860932950    -1.704336090290    -1.222712081058    15.994914619570
         C           -1.821184932950     0.875467909710    -0.435921081058    12.000000000000
         C            1.812532067050     0.880619909710     0.436272918942    12.000000000000
         C           -2.675685932950     1.892986909710     0.288120918942    12.000000000000
         C            2.685176067050     1.881595909710    -0.289253081058    12.000000000000
         H           -1.068088132950     1.366602209710    -1.062372281058     1.007825032230
         H           -2.429865932950     0.227769909710    -1.075189081058     1.007825032230
         H            1.063124067050     1.389792909710     1.052679918942     1.007825032230
         H            2.407351067050     0.235221909710     1.090715918942     1.007825032230
         H           -3.215931932950     2.516859909710    -0.430505081058     1.007825032230
         H           -3.405547932950     1.390937909710     0.927836918942     1.007825032230
         H           -2.052022932950     2.539835909710     0.909823918942     1.007825032230
         H            3.221183067050     2.510138909710     0.428460918942     1.007825032230
         H            3.419105067050     1.365098909710    -0.912568081058     1.007825032230
         H            2.075272067050     2.525426909710    -0.927501081058     1.007825032230

  Basis Set: AUG-CC-PVTZ
    Blend: AUG-CC-PVTZ
  Basis Set: (AUG-CC-PVTZ AUX)
    Blend: AUG-CC-PVTZ-JKFIT
	 Reference Energy          =    -797.8390452212727268 [Eh]
	 Singles Energy            =      -0.0000000000000000 [Eh]
	 Same-Spin Energy          =      -0.4978324508194522 [Eh]
	 Opposite-Spin Energy      =      -1.5448694142305910 [Eh]
	 Correlation Energy        =      -2.0427018650500433 [Eh]
	 Total Energy              =    -799.8817470863227754 [Eh]

	 ================> DF-SCS-MP2 Energies <==================
	-----------------------------------------------------------
	 SCS Same-Spin Scale       =       0.3333333333333333 [-]
	 SCS Opposite-Spin Scale   =       1.2000000000000000 [-]
	 SCS Same-Spin Energy      =      -0.1659441502731507 [Eh]
	 SCS Opposite-Spin Energy  =      -1.8538432970767091 [Eh]
	 SCS Correlation Energy    =      -2.0197874473498598 [Eh]
	 SCS Total Energy          =    -799.8588326686225400 [Eh]
	-----------------------------------------------------------

  Dipole Moment: [D]
     X:    -0.0502      Y:     7.5116      Z:     0.0076     Total:     7.5118

*** Psi4 exiting successfully. Buy a developer a beer!
