                               Psi4 1.3.2 release

  ==> Input File <==

--------------------------------------------------------------------------
#psi4
#
memory 32 gb

molecule  {
-1 1
  P       -0.0010900    -1.0890910     0.0004590
  O       -1.1524220    -0.0281740     0.5594010
  O        1.1353313    -0.0578862    -0.6390559
  O        0.5034080    -1.8082920     1.2241620
  O       -0.4556853    -1.7654212    -1.2664112
  C       -1.8201030     0.7715450    -0.4363210
  C        1.8136140     0.7766970     0.4358730
  C       -2.6746040     1.7890640     0.2877210
  C        2.6862580     1.7776730    -0.2896530
  H       -1.0739810     1.2667980    -1.0678550
  H       -2.4287840     0.1238470    -1.0755890
  H        1.0642060     1.2858700     1.0522800
  H        2.4084330     0.1312990     1.0903160
  H       -3.2148500     2.4129370    -0.4309050
  H       -3.4044660     1.2870150     0.9274370
  H       -2.0509410     2.4359130     0.9094240
  H        3.2222650     2.4062160     0.4280610
  H        3.4201870     1.2611760    -0.9129680
  H        2.0763540     2.4215040    -0.9279010
units angstrom
no_reorient  #important for SAPT in psi4, default
symmetry c1  #important for SAPT in psi4, default
}

set PROPERTIES_ORIGIN ["COM"]
properties('MP2/aug-cc-pvtz', properties = ['dipole'])
--------------------------------------------------------------------------

    Molecular point group: c1
  Charge       = -1
  Multiplicity = 1
  Basis Set: AUG-CC-PVTZ
    Blend: AUG-CC-PVTZ
  Basis Set: (AUG-CC-PVTZ AUX)
    Blend: AUG-CC-PVTZ-JKFIT

    Orbital Energies [Eh]
    ---------------------

    Doubly Occupied:

       1A    -79.876508     2A    -20.406177     3A    -20.404012
       4A    -20.307736     5A    -20.296403     6A    -11.149812
       7A    -11.144517     8A    -11.106489     9A    -11.104994
      10A     -7.392214    11A     -5.291002    12A     -5.290294
      13A     -5.288746    14A     -1.228141    15A     -1.174142
      16A     -1.094480    17A     -1.058526    18A     -0.895585
      19A     -0.891844    20A     -0.713427    21A     -0.711586
      22A     -0.593571    23A     -0.532066    24A     -0.525109
      25A     -0.504670    26A     -0.454827    27A     -0.450474
      28A     -0.437275    29A     -0.422680    30A     -0.417696
      31A     -0.397743    32A     -0.395306    33A     -0.367093
      34A     -0.363495    35A     -0.331034    36A     -0.311687
      37A     -0.306636    38A     -0.281978    39A     -0.265287
      40A     -0.247615    41A     -0.234868

  @DF-RHF Final Energy:  -797.82774119215799

   => Energetics <=

    Nuclear Repulsion Energy =            612.0849741859535698
    One-Electron Energy =               -2330.4899392160082243
    Two-Electron Energy =                 920.5772238378966676
    Total Energy =                       -797.8277411921579869
  Basis Set: (AUG-CC-PVTZ AUX)
    Blend: AUG-CC-PVTZ-RI
    Molecular point group: c1

    Geometry (in Angstrom), charge = -1, multiplicity = 1:

       Center              X                  Y                   Z               Mass
    ------------   -----------------  -----------------  -----------------  -----------------
         P           -0.004597391521    -0.986229579076     0.013344887980    30.973761998420
         O           -1.155929391521     0.074687420924     0.572286887980    15.994914619570
         O            1.131823908479     0.044975220924    -0.626170012020    15.994914619570
         O            0.499900608479    -1.705430579076     1.237047887980    15.994914619570
         O           -0.459192691521    -1.662559779076    -1.253525312020    15.994914619570
         C           -1.823610391521     0.874406420924    -0.423435112020    12.000000000000
         C            1.810106608479     0.879558420924     0.448758887980    12.000000000000
         C           -2.678111391521     1.891925420924     0.300606887980    12.000000000000
         C            2.682750608479     1.880534420924    -0.276767112020    12.000000000000
         H           -1.077488391521     1.369659420924    -1.054969112020     1.007825032230
         H           -2.432291391521     0.226708420924    -1.062703112020     1.007825032230
         H            1.060698608479     1.388731420924     1.065165887980     1.007825032230
         H            2.404925608479     0.234160420924     1.103201887980     1.007825032230
         H           -3.218357391521     2.515798420924    -0.418019112020     1.007825032230
         H           -3.407973391521     1.389876420924     0.940322887980     1.007825032230
         H           -2.054448391521     2.538774420924     0.922309887980     1.007825032230
         H            3.218757608479     2.509077420924     0.440946887980     1.007825032230
         H            3.416679608479     1.364037420924    -0.900082112020     1.007825032230
         H            2.072846608479     2.524365420924    -0.915015112020     1.007825032230

  Basis Set: AUG-CC-PVTZ
    Blend: AUG-CC-PVTZ
  Basis Set: (AUG-CC-PVTZ AUX)
    Blend: AUG-CC-PVTZ-JKFIT
	 Reference Energy          =    -797.8277411921579869 [Eh]
	 Singles Energy            =      -0.0000000000000000 [Eh]
	 Same-Spin Energy          =      -0.4988253554155116 [Eh]
	 Opposite-Spin Energy      =      -1.5481736796554992 [Eh]
	 Correlation Energy        =      -2.0469990350710110 [Eh]
	 Total Energy              =    -799.8747402272290401 [Eh]

	 ================> DF-SCS-MP2 Energies <==================
	-----------------------------------------------------------
	 SCS Same-Spin Scale       =       0.3333333333333333 [-]
	 SCS Opposite-Spin Scale   =       1.2000000000000000 [-]
	 SCS Same-Spin Energy      =      -0.1662751184718372 [Eh]
	 SCS Opposite-Spin Energy  =      -1.8578084155865990 [Eh]
	 SCS Correlation Energy    =      -2.0240835340584362 [Eh]
	 SCS Total Energy          =    -799.8518247262164778 [Eh]
	-----------------------------------------------------------

  Dipole Moment: [D]
     X:    -0.0014      Y:     7.5331      Z:     0.3124     Total:     7.5396

*** Psi4 exiting successfully. Buy a developer a beer!
