                               Psi4 1.3.2 release

  ==> Input File <==

--------------------------------------------------------------------------
#psi4
#
memory 32 gb

molecule  {
-1 1
  P       -0.0010900    -1.0890910     0.0004590
  O       -1.1197854    -0.0669525     0.5035130
  O        1.1506610    -0.0285350    -0.5585640
  O        0.5034080    -1.8082920     1.2241620
  O       -0.5057790    -1.8082590    -1.2231120
  C       -1.8201030     0.7715450    -0.4363210
  C        1.8136140     0.7766970     0.4358730
  C       -2.6976696     1.8167989     0.2171887
  C        2.6862580     1.7776730    -0.2896530
  H       -1.0739810     1.2667980    -1.0678550
  H       -2.4287840     0.1238470    -1.0755890
  H        1.0642060     1.2858700     1.0522800
  H        2.4084330     0.1312990     1.0903160
  H       -3.2148500     2.4129370    -0.4309050
  H       -3.4044660     1.2870150     0.9274370
  H       -2.0509410     2.4359130     0.9094240
  H        3.2222650     2.4062160     0.4280610
  H        3.4201870     1.2611760    -0.9129680
  H        2.0763540     2.4215040    -0.9279010
units angstrom
no_reorient  #important for SAPT in psi4, default
symmetry c1  #important for SAPT in psi4, default
}

set PROPERTIES_ORIGIN ["COM"]
properties('MP2/aug-cc-pvtz', properties = ['dipole'])
--------------------------------------------------------------------------

    Molecular point group: c1
  Charge       = -1
  Multiplicity = 1
  Basis Set: AUG-CC-PVTZ
    Blend: AUG-CC-PVTZ
  Basis Set: (AUG-CC-PVTZ AUX)
    Blend: AUG-CC-PVTZ-JKFIT

    Orbital Energies [Eh]
    ---------------------

    Doubly Occupied:

       1A    -79.872336     2A    -20.406251     3A    -20.399998
       4A    -20.300612     5A    -20.296111     6A    -11.150928
       7A    -11.143377     8A    -11.111249     9A    -11.103790
      10A     -7.388849    11A     -5.287926    12A     -5.286843
      13A     -5.285377    14A     -1.245283    15A     -1.190151
      16A     -1.094616    17A     -1.055129    18A     -0.902415
      19A     -0.890720    20A     -0.723725    21A     -0.711728
      22A     -0.602109    23A     -0.544479    24A     -0.529048
      25A     -0.505301    26A     -0.470644    27A     -0.459290
      28A     -0.444911    29A     -0.431967    30A     -0.419975
      31A     -0.399921    32A     -0.393380    33A     -0.366375
      34A     -0.358347    35A     -0.324460    36A     -0.309145
      37A     -0.305721    38A     -0.281777    39A     -0.263885
      40A     -0.245878    41A     -0.231513

  @DF-RHF Final Energy:  -797.83135632596930

   => Energetics <=

    Nuclear Repulsion Energy =            614.9832643482651520
    One-Electron Energy =               -2336.1581708326270928
    Two-Electron Energy =                 923.3435501583927589
    Total Energy =                       -797.8313563259692955
  Basis Set: (AUG-CC-PVTZ AUX)
    Blend: AUG-CC-PVTZ-RI
    Molecular point group: c1

    Geometry (in Angstrom), charge = -1, multiplicity = 1:

       Center              X                  Y                   Z               Mass
    ------------   -----------------  -----------------  -----------------  -----------------
         P           -0.002566342786    -0.982941651751     0.011778436502    30.973761998420
         O           -1.121261742786     0.039196848249     0.514832436502    15.994914619570
         O            1.149184657214     0.077614348249    -0.547244563498    15.994914619570
         O            0.501931657214    -1.702142651751     1.235481436502    15.994914619570
         O           -0.507255342786    -1.702109651751    -1.211792563498    15.994914619570
         C           -1.821579342786     0.877694348249    -0.425001563498    12.000000000000
         C            1.812137657214     0.882846348249     0.447192436502    12.000000000000
         C           -2.699145942786     1.922948248249     0.228508136502    12.000000000000
         C            2.684781657214     1.883822348249    -0.278333563498    12.000000000000
         H           -1.075457342786     1.372947348249    -1.056535563498     1.007825032230
         H           -2.430260342786     0.229996348249    -1.064269563498     1.007825032230
         H            1.062729657214     1.392019348249     1.063599436502     1.007825032230
         H            2.406956657214     0.237448348249     1.101635436502     1.007825032230
         H           -3.216326342786     2.519086348249    -0.419585563498     1.007825032230
         H           -3.405942342786     1.393164348249     0.938756436502     1.007825032230
         H           -2.052417342786     2.542062348249     0.920743436502     1.007825032230
         H            3.220788657214     2.512365348249     0.439380436502     1.007825032230
         H            3.418710657214     1.367325348249    -0.901648563498     1.007825032230
         H            2.074877657214     2.527653348249    -0.916581563498     1.007825032230

  Basis Set: AUG-CC-PVTZ
    Blend: AUG-CC-PVTZ
  Basis Set: (AUG-CC-PVTZ AUX)
    Blend: AUG-CC-PVTZ-JKFIT
	 Reference Energy          =    -797.8313563259692955 [Eh]
	 Singles Energy            =      -0.0000000000000000 [Eh]
	 Same-Spin Energy          =      -0.4971259482602048 [Eh]
	 Opposite-Spin Energy      =      -1.5429121614608294 [Eh]
	 Correlation Energy        =      -2.0400381097210341 [Eh]
	 Total Energy              =    -799.8713944356903767 [Eh]

	 ================> DF-SCS-MP2 Energies <==================
	-----------------------------------------------------------
	 SCS Same-Spin Scale       =       0.3333333333333333 [-]
	 SCS Opposite-Spin Scale   =       1.2000000000000000 [-]
	 SCS Same-Spin Energy      =      -0.1657086494200682 [Eh]
	 SCS Opposite-Spin Energy  =      -1.8514945937529952 [Eh]
	 SCS Correlation Energy    =      -2.0172032431730633 [Eh]
	 SCS Total Energy          =    -799.8485595691423669 [Eh]
	-----------------------------------------------------------

  Dipole Moment: [D]
     X:    -0.3140      Y:     7.7894      Z:     0.0623     Total:     7.7960

*** Psi4 exiting successfully. Buy a developer a beer!
