                               Psi4 1.3.2 release

  ==> Input File <==

--------------------------------------------------------------------------
#psi4
#
memory 32 gb

molecule  {
-1 1
  P       -0.0010900    -1.0890910     0.0004590
  O       -1.1468530    -0.0347923     0.5502718
  O        1.1506610    -0.0285350    -0.5585640
  O        0.5034080    -1.8082920     1.2241620
  O       -0.5057790    -1.8082590    -1.2231120
  C       -1.8201030     0.7715450    -0.4363210
  C        1.8136140     0.7766970     0.4358730
  C       -2.6786127     1.7938823     0.2760983
  C        2.6862580     1.7776730    -0.2896530
  H       -1.0739810     1.2667980    -1.0678550
  H       -2.4287840     0.1238470    -1.0755890
  H        1.0642060     1.2858700     1.0522800
  H        2.4084330     0.1312990     1.0903160
  H       -3.2148500     2.4129370    -0.4309050
  H       -3.4044660     1.2870150     0.9274370
  H       -2.0509410     2.4359130     0.9094240
  H        3.2222650     2.4062160     0.4280610
  H        3.4201870     1.2611760    -0.9129680
  H        2.0763540     2.4215040    -0.9279010
units angstrom
no_reorient  #important for SAPT in psi4, default
symmetry c1  #important for SAPT in psi4, default
}

set PROPERTIES_ORIGIN ["COM"]
properties('MP2/aug-cc-pvtz', properties = ['dipole'])
--------------------------------------------------------------------------

    Molecular point group: c1
  Charge       = -1
  Multiplicity = 1
  Basis Set: AUG-CC-PVTZ
    Blend: AUG-CC-PVTZ
  Basis Set: (AUG-CC-PVTZ AUX)
    Blend: AUG-CC-PVTZ-JKFIT

    Orbital Energies [Eh]
    ---------------------

    Doubly Occupied:

       1A    -79.878126     2A    -20.404895     3A    -20.403838
       4A    -20.303129     5A    -20.302434     6A    -11.145802
       7A    -11.144623     8A    -11.105816     9A    -11.104718
      10A     -7.393790    11A     -5.292679    12A     -5.291768
      13A     -5.290383    14A     -1.236464    15A     -1.188333
      16A     -1.098406    17A     -1.058712    18A     -0.895418
      19A     -0.891039    20A     -0.715117    21A     -0.712993
      22A     -0.600225    23A     -0.539919    24A     -0.529244
      25A     -0.506630    26A     -0.458951    27A     -0.450392
      28A     -0.442966    29A     -0.426253    30A     -0.422392
      31A     -0.401022    32A     -0.398179    33A     -0.367010
      34A     -0.360513    35A     -0.329569    36A     -0.307973
      37A     -0.305769    38A     -0.283916    39A     -0.266277
      40A     -0.250031    41A     -0.235636

  @DF-RHF Final Energy:  -797.83908082668631

   => Energetics <=

    Nuclear Repulsion Energy =            613.3985919449397670
    One-Electron Energy =               -2332.9926484599695868
    Two-Electron Energy =                 921.7549756883436203
    Total Energy =                       -797.8390808266863132
  Basis Set: (AUG-CC-PVTZ AUX)
    Blend: AUG-CC-PVTZ-RI
    Molecular point group: c1

    Geometry (in Angstrom), charge = -1, multiplicity = 1:

       Center              X                  Y                   Z               Mass
    ------------   -----------------  -----------------  -----------------  -----------------
         P           -0.001231578878    -0.984506036769     0.002271788589    30.973761998420
         O           -1.146994578878     0.069792663231     0.552084588589    15.994914619570
         O            1.150519421122     0.076049963231    -0.556751211411    15.994914619570
         O            0.503266421122    -1.703707036769     1.225974788589    15.994914619570
         O           -0.505920578878    -1.703674036769    -1.221299211411    15.994914619570
         C           -1.820244578878     0.876129963231    -0.434508211411    12.000000000000
         C            1.813472421122     0.881281963231     0.437685788589    12.000000000000
         C           -2.678754278878     1.898467263231     0.277911088589    12.000000000000
         C            2.686116421122     1.882257963231    -0.287840211411    12.000000000000
         H           -1.074122578878     1.371382963231    -1.066042211411     1.007825032230
         H           -2.428925578878     0.228431963231    -1.073776211411     1.007825032230
         H            1.064064421122     1.390454963231     1.054092788589     1.007825032230
         H            2.408291421122     0.235883963231     1.092128788589     1.007825032230
         H           -3.214991578878     2.517521963231    -0.429092211411     1.007825032230
         H           -3.404607578878     1.391599963231     0.929249788589     1.007825032230
         H           -2.051082578878     2.540497963231     0.911236788589     1.007825032230
         H            3.222123421122     2.510800963231     0.429873788589     1.007825032230
         H            3.420045421122     1.365760963231    -0.911155211411     1.007825032230
         H            2.076212421122     2.526088963231    -0.926088211411     1.007825032230

  Basis Set: AUG-CC-PVTZ
    Blend: AUG-CC-PVTZ
  Basis Set: (AUG-CC-PVTZ AUX)
    Blend: AUG-CC-PVTZ-JKFIT
	 Reference Energy          =    -797.8390808266863132 [Eh]
	 Singles Energy            =      -0.0000000000000000 [Eh]
	 Same-Spin Energy          =      -0.4977477130662578 [Eh]
	 Opposite-Spin Energy      =      -1.5446719365081947 [Eh]
	 Correlation Energy        =      -2.0424196495744527 [Eh]
	 Total Energy              =    -799.8815004762607259 [Eh]

	 ================> DF-SCS-MP2 Energies <==================
	-----------------------------------------------------------
	 SCS Same-Spin Scale       =       0.3333333333333333 [-]
	 SCS Opposite-Spin Scale   =       1.2000000000000000 [-]
	 SCS Same-Spin Energy      =      -0.1659159043554193 [Eh]
	 SCS Opposite-Spin Energy  =      -1.8536063238098335 [Eh]
	 SCS Correlation Energy    =      -2.0195222281652527 [Eh]
	 SCS Total Energy          =    -799.8586030548515282 [Eh]
	-----------------------------------------------------------

  Dipole Moment: [D]
     X:    -0.0553      Y:     7.5505      Z:     0.0063     Total:     7.5507

*** Psi4 exiting successfully. Buy a developer a beer!
