                               Psi4 1.3.2 release

  ==> Input File <==

--------------------------------------------------------------------------
#psi4
#
memory 32 gb

molecule  {
-1 1
  P       -0.0010900    -1.0890910     0.0004590
  O       -1.2007958    -0.0966094     0.5828787
  O        1.1990142    -0.0969915    -0.5820396
  O        0.5034080    -1.8082920     1.2241620
  O       -0.5057790    -1.8082590    -1.2231120
  C       -1.8201030     0.7715450    -0.4363210
  C        1.8136140     0.7766970     0.4358730
  C       -2.6746040     1.7890640     0.2877210
  C        2.6862580     1.7776730    -0.2896530
  H       -1.0739810     1.2667980    -1.0678550
  H       -2.4287840     0.1238470    -1.0755890
  H        1.0642060     1.2858700     1.0522800
  H        2.4084330     0.1312990     1.0903160
  H       -3.2148500     2.4129370    -0.4309050
  H       -3.4044660     1.2870150     0.9274370
  H       -2.0509410     2.4359130     0.9094240
  H        3.2222650     2.4062160     0.4280610
  H        3.4201870     1.2611760    -0.9129680
  H        2.0763540     2.4215040    -0.9279010
units angstrom
no_reorient  #important for SAPT in psi4, default
symmetry c1  #important for SAPT in psi4, default
}

set PROPERTIES_ORIGIN ["COM"]
properties('MP2/aug-cc-pvtz', properties = ['dipole'])
--------------------------------------------------------------------------

    Molecular point group: c1
  Charge       = -1
  Multiplicity = 1
  Basis Set: AUG-CC-PVTZ
    Blend: AUG-CC-PVTZ
  Basis Set: (AUG-CC-PVTZ AUX)
    Blend: AUG-CC-PVTZ-JKFIT

    Orbital Energies [Eh]
    ---------------------

    Doubly Occupied:

       1A    -79.875900     2A    -20.409031     3A    -20.409008
       4A    -20.297446     5A    -20.297417     6A    -11.149844
       7A    -11.149822     8A    -11.107922     9A    -11.107871
      10A     -7.391573    11A     -5.290233    12A     -5.289737
      13A     -5.288073    14A     -1.226902    15A     -1.181865
      16A     -1.092060    17A     -1.054492    18A     -0.897261
      19A     -0.894682    20A     -0.714810    21A     -0.714770
      22A     -0.595346    23A     -0.535508    24A     -0.526070
      25A     -0.509179    26A     -0.454392    27A     -0.451804
      28A     -0.439115    29A     -0.423846    30A     -0.422886
      31A     -0.400530    32A     -0.396038    33A     -0.368461
      34A     -0.365442    35A     -0.330717    36A     -0.312550
      37A     -0.311687    38A     -0.278331    39A     -0.261144
      40A     -0.245294    41A     -0.230786

  @DF-RHF Final Energy:  -797.82966852383379

   => Energetics <=

    Nuclear Repulsion Energy =            610.9970789281566113
    One-Electron Energy =               -2328.2538053901480453
    Two-Electron Energy =                 919.4270579381577591
    Total Energy =                       -797.8296685238337886
  Basis Set: (AUG-CC-PVTZ AUX)
    Blend: AUG-CC-PVTZ-RI
    Molecular point group: c1

    Geometry (in Angstrom), charge = -1, multiplicity = 1:

       Center              X                  Y                   Z               Mass
    ------------   -----------------  -----------------  -----------------  -----------------
         P           -0.000961695040    -0.970511974638     0.000405986809    30.973761998420
         O           -1.200667495040     0.021969625362     0.582825686809    15.994914619570
         O            1.199142504960     0.021587525362    -0.582092613191    15.994914619570
         O            0.503536304960    -1.689712974638     1.224108986809    15.994914619570
         O           -0.505650695040    -1.689679974638    -1.223165013191    15.994914619570
         C           -1.819974695040     0.890124025362    -0.436374013191    12.000000000000
         C            1.813742304960     0.895276025362     0.435819986809    12.000000000000
         C           -2.674475695040     1.907643025362     0.287667986809    12.000000000000
         C            2.686386304960     1.896252025362    -0.289706013191    12.000000000000
         H           -1.073852695040     1.385377025362    -1.067908013191     1.007825032230
         H           -2.428655695040     0.242426025362    -1.075642013191     1.007825032230
         H            1.064334304960     1.404449025362     1.052226986809     1.007825032230
         H            2.408561304960     0.249878025362     1.090262986809     1.007825032230
         H           -3.214721695040     2.531516025362    -0.430958013191     1.007825032230
         H           -3.404337695040     1.405594025362     0.927383986809     1.007825032230
         H           -2.050812695040     2.554492025362     0.909370986809     1.007825032230
         H            3.222393304960     2.524795025362     0.428007986809     1.007825032230
         H            3.420315304960     1.379755025362    -0.913021013191     1.007825032230
         H            2.076482304960     2.540083025362    -0.927954013191     1.007825032230

  Basis Set: AUG-CC-PVTZ
    Blend: AUG-CC-PVTZ
  Basis Set: (AUG-CC-PVTZ AUX)
    Blend: AUG-CC-PVTZ-JKFIT
	 Reference Energy          =    -797.8296685238337886 [Eh]
	 Singles Energy            =      -0.0000000000000000 [Eh]
	 Same-Spin Energy          =      -0.4983449161967950 [Eh]
	 Opposite-Spin Energy      =      -1.5471555255647769 [Eh]
	 Correlation Energy        =      -2.0455004417615719 [Eh]
	 Total Energy              =    -799.8751689655953214 [Eh]

	 ================> DF-SCS-MP2 Energies <==================
	-----------------------------------------------------------
	 SCS Same-Spin Scale       =       0.3333333333333333 [-]
	 SCS Opposite-Spin Scale   =       1.2000000000000000 [-]
	 SCS Same-Spin Energy      =      -0.1661149720655983 [Eh]
	 SCS Opposite-Spin Energy  =      -1.8565866306777321 [Eh]
	 SCS Correlation Energy    =      -2.0227016027433304 [Eh]
	 SCS Total Energy          =    -799.8523701265771706 [Eh]
	-----------------------------------------------------------

  Dipole Moment: [D]
     X:    -0.0003      Y:     7.9085      Z:    -0.0033     Total:     7.9085

*** Psi4 exiting successfully. Buy a developer a beer!
