                               Psi4 1.3.2 release

  ==> Input File <==

--------------------------------------------------------------------------
#psi4
#
memory 32 gb

molecule  {
-1 1
  P       -0.0010900    -1.0890910     0.0004590
  O       -1.1524220    -0.0281740     0.5594010
  O        1.1741255    -0.0020914    -0.5943470
  O        0.5034080    -1.8082920     1.2241620
  O       -0.5057790    -1.8082590    -1.2231120
  C       -1.8201030     0.7715450    -0.4363210
  C        1.8136140     0.7766970     0.4358730
  C       -2.6746040     1.7890640     0.2877210
  C        2.6699446     1.7572378    -0.3355453
  H       -1.0739810     1.2667980    -1.0678550
  H       -2.4287840     0.1238470    -1.0755890
  H        1.0642060     1.2858700     1.0522800
  H        2.4084330     0.1312990     1.0903160
  H       -3.2148500     2.4129370    -0.4309050
  H       -3.4044660     1.2870150     0.9274370
  H       -2.0509410     2.4359130     0.9094240
  H        3.2222650     2.4062160     0.4280610
  H        3.4201870     1.2611760    -0.9129680
  H        2.0763540     2.4215040    -0.9279010
units angstrom
no_reorient  #important for SAPT in psi4, default
symmetry c1  #important for SAPT in psi4, default
}

set PROPERTIES_ORIGIN ["COM"]
properties('MP2/aug-cc-pvtz', properties = ['dipole'])
--------------------------------------------------------------------------

    Molecular point group: c1
  Charge       = -1
  Multiplicity = 1
  Basis Set: AUG-CC-PVTZ
    Blend: AUG-CC-PVTZ
  Basis Set: (AUG-CC-PVTZ AUX)
    Blend: AUG-CC-PVTZ-JKFIT

    Orbital Energies [Eh]
    ---------------------

    Doubly Occupied:

       1A    -79.883771     2A    -20.407848     3A    -20.403567
       4A    -20.308684     5A    -20.305949     6A    -11.146109
       7A    -11.141892     8A    -11.105811     9A    -11.102274
      10A     -7.398813    11A     -5.297570    12A     -5.296744
      13A     -5.295400    14A     -1.231310    15A     -1.184947
      16A     -1.102465    17A     -1.062336    18A     -0.894270
      19A     -0.886469    20A     -0.714785    21A     -0.709641
      22A     -0.598808    23A     -0.535964    24A     -0.529665
      25A     -0.508918    26A     -0.457163    27A     -0.446751
      28A     -0.442108    29A     -0.425431    30A     -0.413817
      31A     -0.402799    32A     -0.394898    33A     -0.367197
      34A     -0.361348    35A     -0.334556    36A     -0.307145
      37A     -0.304965    38A     -0.285664    39A     -0.267951
      40A     -0.253920    41A     -0.239704

  @DF-RHF Final Energy:  -797.83124860350517

   => Energetics <=

    Nuclear Repulsion Energy =            611.9093308357219030
    One-Electron Energy =               -2329.9623012091078635
    Two-Electron Energy =                 920.2217217698807872
    Total Energy =                       -797.8312486035051734
  Basis Set: (AUG-CC-PVTZ AUX)
    Blend: AUG-CC-PVTZ-RI
    Molecular point group: c1

    Geometry (in Angstrom), charge = -1, multiplicity = 1:

       Center              X                  Y                   Z               Mass
    ------------   -----------------  -----------------  -----------------  -----------------
         P           -0.002137146947    -0.985981419391     0.007744907003    30.973761998420
         O           -1.153469146947     0.074935580609     0.566686907003    15.994914619570
         O            1.173078353053     0.101018180609    -0.587061092997    15.994914619570
         O            0.502360853053    -1.705182419391     1.231447907003    15.994914619570
         O           -0.506826146947    -1.705149419391    -1.215826092997    15.994914619570
         C           -1.821150146947     0.874654580609    -0.429035092997    12.000000000000
         C            1.812566853053     0.879806580609     0.443158907003    12.000000000000
         C           -2.675651146947     1.892173580609     0.295006907003    12.000000000000
         C            2.668897453053     1.860347380609    -0.328259392997    12.000000000000
         H           -1.075028146947     1.369907580609    -1.060569092997     1.007825032230
         H           -2.429831146947     0.226956580609    -1.068303092997     1.007825032230
         H            1.063158853053     1.388979580609     1.059565907003     1.007825032230
         H            2.407385853053     0.234408580609     1.097601907003     1.007825032230
         H           -3.215897146947     2.516046580609    -0.423619092997     1.007825032230
         H           -3.405513146947     1.390124580609     0.934722907003     1.007825032230
         H           -2.051988146947     2.539022580609     0.916709907003     1.007825032230
         H            3.221217853053     2.509325580609     0.435346907003     1.007825032230
         H            3.419139853053     1.364285580609    -0.905682092997     1.007825032230
         H            2.075306853053     2.524613580609    -0.920615092997     1.007825032230

  Basis Set: AUG-CC-PVTZ
    Blend: AUG-CC-PVTZ
  Basis Set: (AUG-CC-PVTZ AUX)
    Blend: AUG-CC-PVTZ-JKFIT
	 Reference Energy          =    -797.8312486035051734 [Eh]
	 Singles Energy            =      -0.0000000000000000 [Eh]
	 Same-Spin Energy          =      -0.4987004203730737 [Eh]
	 Opposite-Spin Energy      =      -1.5472209458437649 [Eh]
	 Correlation Energy        =      -2.0459213662168385 [Eh]
	 Total Energy              =    -799.8771699697219901 [Eh]

	 ================> DF-SCS-MP2 Energies <==================
	-----------------------------------------------------------
	 SCS Same-Spin Scale       =       0.3333333333333333 [-]
	 SCS Opposite-Spin Scale   =       1.2000000000000000 [-]
	 SCS Same-Spin Energy      =      -0.1662334734576912 [Eh]
	 SCS Opposite-Spin Energy  =      -1.8566651350125178 [Eh]
	 SCS Correlation Energy    =      -2.0228986084702090 [Eh]
	 SCS Total Energy          =    -799.8541472119753735 [Eh]
	-----------------------------------------------------------

  Dipole Moment: [D]
     X:    -0.2318      Y:     7.2850      Z:     0.0295     Total:     7.2888

*** Psi4 exiting successfully. Buy a developer a beer!
