                               Psi4 1.3.2 release

  ==> Input File <==

--------------------------------------------------------------------------
#psi4
#
memory 32 gb

molecule  {
-1 1
  P       -0.0010900    -1.0890910     0.0004590
  O       -1.1524220    -0.0281740     0.5594010
  O        1.1506610    -0.0285350    -0.5585640
  O        0.4985427    -1.8312828     1.2123731
  O       -0.5009206    -1.8312489    -1.2113209
  C       -1.8201030     0.7715450    -0.4363210
  C        1.8136140     0.7766970     0.4358730
  C       -2.6746040     1.7890640     0.2877210
  C        2.6862580     1.7776730    -0.2896530
  H       -1.0739810     1.2667980    -1.0678550
  H       -2.4287840     0.1238470    -1.0755890
  H        1.0642060     1.2858700     1.0522800
  H        2.4084330     0.1312990     1.0903160
  H       -3.2148500     2.4129370    -0.4309050
  H       -3.4044660     1.2870150     0.9274370
  H       -2.0509410     2.4359130     0.9094240
  H        3.2222650     2.4062160     0.4280610
  H        3.4201870     1.2611760    -0.9129680
  H        2.0763540     2.4215040    -0.9279010
units angstrom
no_reorient  #important for SAPT in psi4, default
symmetry c1  #important for SAPT in psi4, default
}

set PROPERTIES_ORIGIN ["COM"]
properties('MP2/aug-cc-pvtz', properties = ['dipole'])
--------------------------------------------------------------------------

    Molecular point group: c1
  Charge       = -1
  Multiplicity = 1
  Basis Set: AUG-CC-PVTZ
    Blend: AUG-CC-PVTZ
  Basis Set: (AUG-CC-PVTZ AUX)
    Blend: AUG-CC-PVTZ-JKFIT

    Orbital Energies [Eh]
    ---------------------

    Doubly Occupied:

       1A    -79.878843     2A    -20.406167     3A    -20.406152
       4A    -20.301937     5A    -20.301900     6A    -11.146111
       7A    -11.146073     8A    -11.105749     9A    -11.105711
      10A     -7.394396    11A     -5.293248    12A     -5.292282
      13A     -5.291036    14A     -1.235931    15A     -1.189074
      16A     -1.098957    17A     -1.056751    18A     -0.895559
      19A     -0.891554    20A     -0.715076    21A     -0.714057
      22A     -0.601017    23A     -0.539815    24A     -0.530350
      25A     -0.508015    26A     -0.459204    27A     -0.449724
      28A     -0.442710    29A     -0.424112    30A     -0.423697
      31A     -0.401362    32A     -0.399944    33A     -0.366679
      34A     -0.361820    35A     -0.330252    36A     -0.308958
      37A     -0.306889    38A     -0.283621    39A     -0.266645
      40A     -0.248793    41A     -0.233771

  @DF-RHF Final Energy:  -797.83815864370297

   => Energetics <=

    Nuclear Repulsion Energy =            612.7493193589782550
    One-Electron Energy =               -2331.6670706922623140
    Two-Electron Energy =                 921.0795926895810908
    Total Energy =                       -797.8381586437029682
  Basis Set: (AUG-CC-PVTZ AUX)
    Blend: AUG-CC-PVTZ-RI
    Molecular point group: c1

    Geometry (in Angstrom), charge = -1, multiplicity = 1:

       Center              X                  Y                   Z               Mass
    ------------   -----------------  -----------------  -----------------  -----------------
         P           -0.000963126968    -0.980014039631     0.000405976357    30.973761998420
         O           -1.152295126968     0.080902960369     0.559347976357    15.994914619570
         O            1.150787873032     0.080541960369    -0.558617023643    15.994914619570
         O            0.498669573032    -1.722205839631     1.212320076357    15.994914619570
         O           -0.500793726968    -1.722171939631    -1.211373923643    15.994914619570
         C           -1.819976126968     0.880621960369    -0.436374023643    12.000000000000
         C            1.813740873032     0.885773960369     0.435819976357    12.000000000000
         C           -2.674477126968     1.898140960369     0.287667976357    12.000000000000
         C            2.686384873032     1.886749960369    -0.289706023643    12.000000000000
         H           -1.073854126968     1.375874960369    -1.067908023643     1.007825032230
         H           -2.428657126968     0.232923960369    -1.075642023643     1.007825032230
         H            1.064332873032     1.394946960369     1.052226976357     1.007825032230
         H            2.408559873032     0.240375960369     1.090262976357     1.007825032230
         H           -3.214723126968     2.522013960369    -0.430958023643     1.007825032230
         H           -3.404339126968     1.396091960369     0.927383976357     1.007825032230
         H           -2.050814126968     2.544989960369     0.909370976357     1.007825032230
         H            3.222391873032     2.515292960369     0.428007976357     1.007825032230
         H            3.420313873032     1.370252960369    -0.913021023643     1.007825032230
         H            2.076480873032     2.530580960369    -0.927954023643     1.007825032230

  Basis Set: AUG-CC-PVTZ
    Blend: AUG-CC-PVTZ
  Basis Set: (AUG-CC-PVTZ AUX)
    Blend: AUG-CC-PVTZ-JKFIT
	 Reference Energy          =    -797.8381586437029682 [Eh]
	 Singles Energy            =      -0.0000000000000000 [Eh]
	 Same-Spin Energy          =      -0.4978242196504585 [Eh]
	 Opposite-Spin Energy      =      -1.5449828252376467 [Eh]
	 Correlation Energy        =      -2.0428070448881055 [Eh]
	 Total Energy              =    -799.8809656885911181 [Eh]

	 ================> DF-SCS-MP2 Energies <==================
	-----------------------------------------------------------
	 SCS Same-Spin Scale       =       0.3333333333333333 [-]
	 SCS Opposite-Spin Scale   =       1.2000000000000000 [-]
	 SCS Same-Spin Energy      =      -0.1659414065501528 [Eh]
	 SCS Opposite-Spin Energy  =      -1.8539793902851760 [Eh]
	 SCS Correlation Energy    =      -2.0199207968353288 [Eh]
	 SCS Total Energy          =    -799.8580794405382903 [Eh]
	-----------------------------------------------------------

  Dipole Moment: [D]
     X:    -0.0006      Y:     7.6558      Z:    -0.0034     Total:     7.6558

*** Psi4 exiting successfully. Buy a developer a beer!
