                               Psi4 1.3.2 release

  ==> Input File <==

--------------------------------------------------------------------------
#psi4
#
memory 32 gb

molecule  {
-1 1
  P       -0.0010900    -1.0890910     0.0004590
  O       -1.1524220    -0.0281740     0.5594010
  O        1.1506610    -0.0285350    -0.5585640
  O        0.5703890    -1.9037786     1.3866301
  O       -0.5057790    -1.8082590    -1.2231120
  C       -1.8201030     0.7715450    -0.4363210
  C        1.8136140     0.7766970     0.4358730
  C       -2.6746040     1.7890640     0.2877210
  C        2.6862580     1.7776730    -0.2896530
  H       -1.0739810     1.2667980    -1.0678550
  H       -2.4287840     0.1238470    -1.0755890
  H        1.0642060     1.2858700     1.0522800
  H        2.4084330     0.1312990     1.0903160
  H       -3.2148500     2.4129370    -0.4309050
  H       -3.4044660     1.2870150     0.9274370
  H       -2.0509410     2.4359130     0.9094240
  H        3.2222650     2.4062160     0.4280610
  H        3.4201870     1.2611760    -0.9129680
  H        2.0763540     2.4215040    -0.9279010
units angstrom
no_reorient  #important for SAPT in psi4, default
symmetry c1  #important for SAPT in psi4, default
}

set PROPERTIES_ORIGIN ["COM"]
properties('MP2/aug-cc-pvtz', properties = ['dipole'])
--------------------------------------------------------------------------

    Molecular point group: c1
  Charge       = -1
  Multiplicity = 1
  Basis Set: AUG-CC-PVTZ
    Blend: AUG-CC-PVTZ
  Basis Set: (AUG-CC-PVTZ AUX)
    Blend: AUG-CC-PVTZ-JKFIT

    Orbital Energies [Eh]
    ---------------------

    Doubly Occupied:

       1A    -79.906949     2A    -20.416769     3A    -20.416110
       4A    -20.319366     5A    -20.310277     6A    -11.152615
       7A    -11.148956     8A    -11.109907     9A    -11.108157
      10A     -7.418677    11A     -5.317617    12A     -5.316639
      13A     -5.314536    14A     -1.241670    15A     -1.197638
      16A     -1.096908    17A     -1.006058    18A     -0.900197
      19A     -0.895476    20A     -0.721182    21A     -0.717976
      22A     -0.611420    23A     -0.544485    24A     -0.535947
      25A     -0.512471    26A     -0.465309    27A     -0.454103
      28A     -0.446483    29A     -0.428528    30A     -0.426643
      31A     -0.404312    32A     -0.402335    33A     -0.365233
      34A     -0.363670    35A     -0.324920    36A     -0.314741
      37A     -0.307898    38A     -0.272786    39A     -0.268314
      40A     -0.229557    41A     -0.223576

  @DF-RHF Final Energy:  -797.79533442546324

   => Energetics <=

    Nuclear Repulsion Energy =            604.6947570419109752
    One-Electron Energy =               -2315.1073582708659160
    Two-Electron Energy =                 912.6172668034915887
    Total Energy =                       -797.7953344254632384
  Basis Set: (AUG-CC-PVTZ AUX)
    Blend: AUG-CC-PVTZ-RI
    Molecular point group: c1

    Geometry (in Angstrom), charge = -1, multiplicity = 1:

       Center              X                  Y                   Z               Mass
    ------------   -----------------  -----------------  -----------------  -----------------
         P           -0.007964721706    -0.974839668604    -0.016575006635    30.973761998420
         O           -1.159296721706     0.086077331396     0.542366993365    15.994914619570
         O            1.143786278294     0.085716331396    -0.575598006635    15.994914619570
         O            0.563514278294    -1.789527268604     1.369596093365    15.994914619570
         O           -0.512653721706    -1.694007668604    -1.240146006635    15.994914619570
         C           -1.826977721706     0.885796331396    -0.453355006635    12.000000000000
         C            1.806739278294     0.890948331396     0.418838993365    12.000000000000
         C           -2.681478721706     1.903315331396     0.270686993365    12.000000000000
         C            2.679383278294     1.891924331396    -0.306687006635    12.000000000000
         H           -1.080855721706     1.381049331396    -1.084889006635     1.007825032230
         H           -2.435658721706     0.238098331396    -1.092623006635     1.007825032230
         H            1.057331278294     1.400121331396     1.035245993365     1.007825032230
         H            2.401558278294     0.245550331396     1.073281993365     1.007825032230
         H           -3.221724721706     2.527188331396    -0.447939006635     1.007825032230
         H           -3.411340721706     1.401266331396     0.910402993365     1.007825032230
         H           -2.057815721706     2.550164331396     0.892389993365     1.007825032230
         H            3.215390278294     2.520467331396     0.411026993365     1.007825032230
         H            3.413312278294     1.375427331396    -0.930002006635     1.007825032230
         H            2.069479278294     2.535755331396    -0.944935006635     1.007825032230

  Basis Set: AUG-CC-PVTZ
    Blend: AUG-CC-PVTZ
  Basis Set: (AUG-CC-PVTZ AUX)
    Blend: AUG-CC-PVTZ-JKFIT
	 Reference Energy          =    -797.7953344254632384 [Eh]
	 Singles Energy            =      -0.0000000000000000 [Eh]
	 Same-Spin Energy          =      -0.5012616825681951 [Eh]
	 Opposite-Spin Energy      =      -1.5543768204795496 [Eh]
	 Correlation Energy        =      -2.0556385030477449 [Eh]
	 Total Energy              =    -799.8509729285109415 [Eh]

	 ================> DF-SCS-MP2 Energies <==================
	-----------------------------------------------------------
	 SCS Same-Spin Scale       =       0.3333333333333333 [-]
	 SCS Opposite-Spin Scale   =       1.2000000000000000 [-]
	 SCS Same-Spin Energy      =      -0.1670872275227317 [Eh]
	 SCS Opposite-Spin Energy  =      -1.8652521845754595 [Eh]
	 SCS Correlation Energy    =      -2.0323394120981910 [Eh]
	 SCS Total Energy          =    -799.8276738375614059 [Eh]
	-----------------------------------------------------------

  Dipole Moment: [D]
     X:    -0.4003      Y:     8.2058      Z:    -0.9250     Total:     8.2675

*** Psi4 exiting successfully. Buy a developer a beer!
