                               Psi4 1.3.2 release

  ==> Input File <==

--------------------------------------------------------------------------
#psi4
#
memory 32 gb

molecule  {
-1 1
  P       -0.0010900    -1.0890910     0.0004590
  O       -1.1524220    -0.0281740     0.5594010
  O        1.0958207    -0.0061684    -0.6223425
  O        0.4347810    -1.8470377     1.2271417
  O       -0.5057790    -1.8082590    -1.2231120
  C       -1.8201030     0.7715450    -0.4363210
  C        1.8136140     0.7766970     0.4358730
  C       -2.6746040     1.7890640     0.2877210
  C        2.6862580     1.7776730    -0.2896530
  H       -1.0739810     1.2667980    -1.0678550
  H       -2.4287840     0.1238470    -1.0755890
  H        1.0642060     1.2858700     1.0522800
  H        2.4084330     0.1312990     1.0903160
  H       -3.2148500     2.4129370    -0.4309050
  H       -3.4044660     1.2870150     0.9274370
  H       -2.0509410     2.4359130     0.9094240
  H        3.2222650     2.4062160     0.4280610
  H        3.4201870     1.2611760    -0.9129680
  H        2.0763540     2.4215040    -0.9279010
units angstrom
no_reorient  #important for SAPT in psi4, default
symmetry c1  #important for SAPT in psi4, default
}

set PROPERTIES_ORIGIN ["COM"]
properties('MP2/aug-cc-pvtz', properties = ['dipole'])
--------------------------------------------------------------------------

    Molecular point group: c1
  Charge       = -1
  Multiplicity = 1
  Basis Set: AUG-CC-PVTZ
    Blend: AUG-CC-PVTZ
  Basis Set: (AUG-CC-PVTZ AUX)
    Blend: AUG-CC-PVTZ-JKFIT

    Orbital Energies [Eh]
    ---------------------

    Doubly Occupied:

       1A    -79.876624     2A    -20.411513     3A    -20.400227
       4A    -20.306572     5A    -20.295710     6A    -11.153792
       7A    -11.141556     8A    -11.109350     9A    -11.102994
      10A     -7.392357    11A     -5.291206    12A     -5.290216
      13A     -5.288999    14A     -1.229573    15A     -1.178599
      16A     -1.096985    17A     -1.055710    18A     -0.898654
      19A     -0.889773    20A     -0.716349    21A     -0.710821
      22A     -0.595872    23A     -0.534369    24A     -0.527888
      25A     -0.505258    26A     -0.456160    27A     -0.449885
      28A     -0.439473    29A     -0.422827    30A     -0.419411
      31A     -0.399648    32A     -0.397333    33A     -0.368376
      34A     -0.362143    35A     -0.331683    36A     -0.313475
      37A     -0.303700    38A     -0.282721    39A     -0.266681
      40A     -0.246418    41A     -0.232532

  @DF-RHF Final Energy:  -797.83039488144323

   => Energetics <=

    Nuclear Repulsion Energy =            612.2004036498042296
    One-Electron Energy =               -2330.6747324298639796
    Two-Electron Energy =                 920.6439338986165239
    Total Energy =                       -797.8303948814432260
  Basis Set: (AUG-CC-PVTZ AUX)
    Blend: AUG-CC-PVTZ-RI
    Molecular point group: c1

    Geometry (in Angstrom), charge = -1, multiplicity = 1:

       Center              X                  Y                   Z               Mass
    ------------   -----------------  -----------------  -----------------  -----------------
         P            0.011940989851    -0.983108007450     0.006760914512    30.973761998420
         O           -1.139391010149     0.077808992550     0.565702914512    15.994914619570
         O            1.108851689851     0.099814592550    -0.616040585488    15.994914619570
         O            0.447811989851    -1.741054707450     1.233443614512    15.994914619570
         O           -0.492748010149    -1.702276007450    -1.216810085488    15.994914619570
         C           -1.807072010149     0.877527992550    -0.430019085488    12.000000000000
         C            1.826644989851     0.882679992550     0.442174914512    12.000000000000
         C           -2.661573010149     1.895046992550     0.294022914512    12.000000000000
         C            2.699288989851     1.883655992550    -0.283351085488    12.000000000000
         H           -1.060950010149     1.372780992550    -1.061553085488     1.007825032230
         H           -2.415753010149     0.229829992550    -1.069287085488     1.007825032230
         H            1.077236989851     1.391852992550     1.058581914512     1.007825032230
         H            2.421463989851     0.237281992550     1.096617914512     1.007825032230
         H           -3.201819010149     2.518919992550    -0.424603085488     1.007825032230
         H           -3.391435010149     1.392997992550     0.933738914512     1.007825032230
         H           -2.037910010149     2.541895992550     0.915725914512     1.007825032230
         H            3.235295989851     2.512198992550     0.434362914512     1.007825032230
         H            3.433217989851     1.367158992550    -0.906666085488     1.007825032230
         H            2.089384989851     2.527486992550    -0.921599085488     1.007825032230

  Basis Set: AUG-CC-PVTZ
    Blend: AUG-CC-PVTZ
  Basis Set: (AUG-CC-PVTZ AUX)
    Blend: AUG-CC-PVTZ-JKFIT
	 Reference Energy          =    -797.8303948814432260 [Eh]
	 Singles Energy            =      -0.0000000000000000 [Eh]
	 Same-Spin Energy          =      -0.4984994568061790 [Eh]
	 Opposite-Spin Energy      =      -1.5471736664551563 [Eh]
	 Correlation Energy        =      -2.0456731232613352 [Eh]
	 Total Energy              =    -799.8760680047045071 [Eh]

	 ================> DF-SCS-MP2 Energies <==================
	-----------------------------------------------------------
	 SCS Same-Spin Scale       =       0.3333333333333333 [-]
	 SCS Opposite-Spin Scale   =       1.2000000000000000 [-]
	 SCS Same-Spin Energy      =      -0.1661664856020597 [Eh]
	 SCS Opposite-Spin Energy  =      -1.8566083997461875 [Eh]
	 SCS Correlation Energy    =      -2.0227748853482472 [Eh]
	 SCS Total Energy          =    -799.8531697667914386 [Eh]
	-----------------------------------------------------------

  Dipole Moment: [D]
     X:     0.4515      Y:     7.6725      Z:     0.1771     Total:     7.6878

*** Psi4 exiting successfully. Buy a developer a beer!
