                               Psi4 1.3.2 release

  ==> Input File <==

--------------------------------------------------------------------------
#psi4
#
memory 32 gb

molecule  {
-1 1
  P       -0.0010900    -1.0890910     0.0004590
  O       -1.1161987    -0.0129442     0.6020960
  O        1.1506610    -0.0285350    -0.5585640
  O        0.5034080    -1.8082920     1.2241620
  O       -0.4601791    -1.8343275    -1.2254690
  C       -1.8201030     0.7715450    -0.4363210
  C        1.8136140     0.7766970     0.4358730
  C       -2.6746040     1.7890640     0.2877210
  C        2.6862580     1.7776730    -0.2896530
  H       -1.0739810     1.2667980    -1.0678550
  H       -2.4287840     0.1238470    -1.0755890
  H        1.0642060     1.2858700     1.0522800
  H        2.4084330     0.1312990     1.0903160
  H       -3.2148500     2.4129370    -0.4309050
  H       -3.4044660     1.2870150     0.9274370
  H       -2.0509410     2.4359130     0.9094240
  H        3.2222650     2.4062160     0.4280610
  H        3.4201870     1.2611760    -0.9129680
  H        2.0763540     2.4215040    -0.9279010
units angstrom
no_reorient  #important for SAPT in psi4, default
symmetry c1  #important for SAPT in psi4, default
}

set PROPERTIES_ORIGIN ["COM"]
properties('MP2/aug-cc-pvtz', properties = ['dipole'])
--------------------------------------------------------------------------

    Molecular point group: c1
  Charge       = -1
  Multiplicity = 1
  Basis Set: AUG-CC-PVTZ
    Blend: AUG-CC-PVTZ
  Basis Set: (AUG-CC-PVTZ AUX)
    Blend: AUG-CC-PVTZ-JKFIT

    Orbital Energies [Eh]
    ---------------------

    Doubly Occupied:

       1A    -79.877449     2A    -20.409369     3A    -20.401682
       4A    -20.305674     5A    -20.298332     6A    -11.150896
       7A    -11.142647     8A    -11.107911     9A    -11.103606
      10A     -7.393115    11A     -5.291962    12A     -5.291011
      13A     -5.289749    14A     -1.231301    15A     -1.181645
      16A     -1.097640    17A     -1.057063    18A     -0.897014
      19A     -0.890357    20A     -0.715329    21A     -0.711719
      22A     -0.597273    23A     -0.535819    24A     -0.528426
      25A     -0.505854    26A     -0.456606    27A     -0.449796
      28A     -0.440370    29A     -0.423003    30A     -0.420761
      31A     -0.400056    32A     -0.397882    33A     -0.367317
      34A     -0.362197    35A     -0.331468    36A     -0.311621
      37A     -0.304659    38A     -0.283281    39A     -0.266558
      40A     -0.248201    41A     -0.233963

  @DF-RHF Final Energy:  -797.83404809065416

   => Energetics <=

    Nuclear Repulsion Energy =            612.4847460904749141
    One-Electron Energy =               -2331.2164227161188137
    Two-Electron Energy =                 920.8976285349898490
    Total Energy =                       -797.8340480906541643
  Basis Set: (AUG-CC-PVTZ AUX)
    Blend: AUG-CC-PVTZ-RI
    Molecular point group: c1

    Geometry (in Angstrom), charge = -1, multiplicity = 1:

       Center              X                  Y                   Z               Mass
    ------------   -----------------  -----------------  -----------------  -----------------
         P           -0.009516032755    -0.983687091665    -0.003809933159    30.973761998420
         O           -1.124624732755     0.092459708335     0.597827066841    15.994914619570
         O            1.142234967245     0.076868908335    -0.562832933159    15.994914619570
         O            0.494981967245    -1.702888091665     1.219893066841    15.994914619570
         O           -0.468605132755    -1.728923591665    -1.229737933159    15.994914619570
         C           -1.828529032755     0.876948908335    -0.440589933159    12.000000000000
         C            1.805187967245     0.882100908335     0.431604066841    12.000000000000
         C           -2.683030032755     1.894467908335     0.283452066841    12.000000000000
         C            2.677831967245     1.883076908335    -0.293921933159    12.000000000000
         H           -1.082407032755     1.372201908335    -1.072123933159     1.007825032230
         H           -2.437210032755     0.229250908335    -1.079857933159     1.007825032230
         H            1.055779967245     1.391273908335     1.048011066841     1.007825032230
         H            2.400006967245     0.236702908335     1.086047066841     1.007825032230
         H           -3.223276032755     2.518340908335    -0.435173933159     1.007825032230
         H           -3.412892032755     1.392418908335     0.923168066841     1.007825032230
         H           -2.059367032755     2.541316908335     0.905155066841     1.007825032230
         H            3.213838967245     2.511619908335     0.423792066841     1.007825032230
         H            3.411760967245     1.366579908335    -0.917236933159     1.007825032230
         H            2.067927967245     2.526907908335    -0.932169933159     1.007825032230

  Basis Set: AUG-CC-PVTZ
    Blend: AUG-CC-PVTZ
  Basis Set: (AUG-CC-PVTZ AUX)
    Blend: AUG-CC-PVTZ-JKFIT
	 Reference Energy          =    -797.8340480906541643 [Eh]
	 Singles Energy            =      -0.0000000000000000 [Eh]
	 Same-Spin Energy          =      -0.4982644468052035 [Eh]
	 Opposite-Spin Energy      =      -1.5464104665341276 [Eh]
	 Correlation Energy        =      -2.0446749133393309 [Eh]
	 Total Energy              =    -799.8787230039935139 [Eh]

	 ================> DF-SCS-MP2 Energies <==================
	-----------------------------------------------------------
	 SCS Same-Spin Scale       =       0.3333333333333333 [-]
	 SCS Opposite-Spin Scale   =       1.2000000000000000 [-]
	 SCS Same-Spin Energy      =      -0.1660881489350678 [Eh]
	 SCS Opposite-Spin Energy  =      -1.8556925598409530 [Eh]
	 SCS Correlation Energy    =      -2.0217807087760207 [Eh]
	 SCS Total Energy          =    -799.8558287994301281 [Eh]
	-----------------------------------------------------------

  Dipole Moment: [D]
     X:    -0.3045      Y:     7.6171      Z:    -0.1251     Total:     7.6242

*** Psi4 exiting successfully. Buy a developer a beer!
