                               Psi4 1.3.2 release

  ==> Input File <==

--------------------------------------------------------------------------
#psi4
#
memory 32 gb

molecule  {
-1 1
  P       -0.0010900    -1.0890910     0.0004590
  O       -1.1524220    -0.0281740     0.5594010
  O        1.1506610    -0.0285350    -0.5585640
  O        0.5081196    -1.7850821     1.2355781
  O       -0.5104837    -1.7850500    -1.2345304
  C       -1.8201030     0.7715450    -0.4363210
  C        1.8136140     0.7766970     0.4358730
  C       -2.6746040     1.7890640     0.2877210
  C        2.6862580     1.7776730    -0.2896530
  H       -1.0739810     1.2667980    -1.0678550
  H       -2.4287840     0.1238470    -1.0755890
  H        1.0642060     1.2858700     1.0522800
  H        2.4084330     0.1312990     1.0903160
  H       -3.2148500     2.4129370    -0.4309050
  H       -3.4044660     1.2870150     0.9274370
  H       -2.0509410     2.4359130     0.9094240
  H        3.2222650     2.4062160     0.4280610
  H        3.4201870     1.2611760    -0.9129680
  H        2.0763540     2.4215040    -0.9279010
units angstrom
no_reorient  #important for SAPT in psi4, default
symmetry c1  #important for SAPT in psi4, default
}

set PROPERTIES_ORIGIN ["COM"]
properties('MP2/aug-cc-pvtz', properties = ['dipole'])
--------------------------------------------------------------------------

    Molecular point group: c1
  Charge       = -1
  Multiplicity = 1
  Basis Set: AUG-CC-PVTZ
    Blend: AUG-CC-PVTZ
  Basis Set: (AUG-CC-PVTZ AUX)
    Blend: AUG-CC-PVTZ-JKFIT

    Orbital Energies [Eh]
    ---------------------

    Doubly Occupied:

       1A    -79.879687     2A    -20.403070     3A    -20.403054
       4A    -20.305394     5A    -20.305358     6A    -11.143733
       7A    -11.143693     8A    -11.104147     9A    -11.104111
      10A     -7.395184    11A     -5.294048    12A     -5.293235
      13A     -5.291737    14A     -1.234362    15A     -1.186446
      16A     -1.099405    17A     -1.061993    18A     -0.893629
      19A     -0.889708    20A     -0.713109    21A     -0.711931
      22A     -0.598753    23A     -0.538234    24A     -0.528288
      25A     -0.506017    26A     -0.457498    27A     -0.448846
      28A     -0.442230    29A     -0.422808    30A     -0.422095
      31A     -0.400435    32A     -0.398167    33A     -0.367490
      34A     -0.359840    35A     -0.330736    36A     -0.306527
      37A     -0.304464    38A     -0.284930    39A     -0.266710
      40A     -0.252751    41A     -0.238933

  @DF-RHF Final Energy:  -797.83873858738616

   => Energetics <=

    Nuclear Repulsion Energy =            613.4544044389034525
    One-Electron Energy =               -2333.1207148714702271
    Two-Electron Energy =                 921.8275718451805005
    Total Energy =                       -797.8387385873861604
  Basis Set: (AUG-CC-PVTZ AUX)
    Blend: AUG-CC-PVTZ-RI
    Molecular point group: c1

    Geometry (in Angstrom), charge = -1, multiplicity = 1:

       Center              X                  Y                   Z               Mass
    ------------   -----------------  -----------------  -----------------  -----------------
         P           -0.000964569348    -0.989671672624     0.000406446698    30.973761998420
         O           -1.152296569348     0.071245327376     0.559348446698    15.994914619570
         O            1.150786430652     0.070884327376    -0.558616553302    15.994914619570
         O            0.508245030652    -1.685662772624     1.235525546698    15.994914619570
         O           -0.510358269348    -1.685630672624    -1.234582953302    15.994914619570
         C           -1.819977569348     0.870964327376    -0.436373553302    12.000000000000
         C            1.813739430652     0.876116327376     0.435820446698    12.000000000000
         C           -2.674478569348     1.888483327376     0.287668446698    12.000000000000
         C            2.686383430652     1.877092327376    -0.289705553302    12.000000000000
         H           -1.073855569348     1.366217327376    -1.067907553302     1.007825032230
         H           -2.428658569348     0.223266327376    -1.075641553302     1.007825032230
         H            1.064331430652     1.385289327376     1.052227446698     1.007825032230
         H            2.408558430652     0.230718327376     1.090263446698     1.007825032230
         H           -3.214724569348     2.512356327376    -0.430957553302     1.007825032230
         H           -3.404340569348     1.386434327376     0.927384446698     1.007825032230
         H           -2.050815569348     2.535332327376     0.909371446698     1.007825032230
         H            3.222390430652     2.505635327376     0.428008446698     1.007825032230
         H            3.420312430652     1.360595327376    -0.913020553302     1.007825032230
         H            2.076479430652     2.520923327376    -0.927953553302     1.007825032230

  Basis Set: AUG-CC-PVTZ
    Blend: AUG-CC-PVTZ
  Basis Set: (AUG-CC-PVTZ AUX)
    Blend: AUG-CC-PVTZ-JKFIT
	 Reference Energy          =    -797.8387385873861604 [Eh]
	 Singles Energy            =      -0.0000000000000000 [Eh]
	 Same-Spin Energy          =      -0.4980248206155568 [Eh]
	 Opposite-Spin Energy      =      -1.5453072631511828 [Eh]
	 Correlation Energy        =      -2.0433320837667397 [Eh]
	 Total Energy              =    -799.8820706711528601 [Eh]

	 ================> DF-SCS-MP2 Energies <==================
	-----------------------------------------------------------
	 SCS Same-Spin Scale       =       0.3333333333333333 [-]
	 SCS Opposite-Spin Scale   =       1.2000000000000000 [-]
	 SCS Same-Spin Energy      =      -0.1660082735385189 [Eh]
	 SCS Opposite-Spin Energy  =      -1.8543687157814193 [Eh]
	 SCS Correlation Energy    =      -2.0203769893199381 [Eh]
	 SCS Total Energy          =    -799.8591155767061309 [Eh]
	-----------------------------------------------------------

  Dipole Moment: [D]
     X:    -0.0007      Y:     7.3421      Z:    -0.0034     Total:     7.3421

*** Psi4 exiting successfully. Buy a developer a beer!
