                               Psi4 1.3.2 release

  ==> Input File <==

--------------------------------------------------------------------------
#psi4
#
memory 32 gb

molecule  {
-1 1
  P       -0.0010900    -1.0890910     0.0004590
  O       -1.1524220    -0.0281740     0.5594010
  O        1.1506610    -0.0285350    -0.5585640
  O        0.4364270    -1.7128054     1.0616939
  O       -0.5057790    -1.8082590    -1.2231120
  C       -1.8201030     0.7715450    -0.4363210
  C        1.8136140     0.7766970     0.4358730
  C       -2.6746040     1.7890640     0.2877210
  C        2.6862580     1.7776730    -0.2896530
  H       -1.0739810     1.2667980    -1.0678550
  H       -2.4287840     0.1238470    -1.0755890
  H        1.0642060     1.2858700     1.0522800
  H        2.4084330     0.1312990     1.0903160
  H       -3.2148500     2.4129370    -0.4309050
  H       -3.4044660     1.2870150     0.9274370
  H       -2.0509410     2.4359130     0.9094240
  H        3.2222650     2.4062160     0.4280610
  H        3.4201870     1.2611760    -0.9129680
  H        2.0763540     2.4215040    -0.9279010
units angstrom
no_reorient  #important for SAPT in psi4, default
symmetry c1  #important for SAPT in psi4, default
}

set PROPERTIES_ORIGIN ["COM"]
properties('MP2/aug-cc-pvtz', properties = ['dipole'])
--------------------------------------------------------------------------

    Molecular point group: c1
  Charge       = -1
  Multiplicity = 1
  Basis Set: AUG-CC-PVTZ
    Blend: AUG-CC-PVTZ
  Basis Set: (AUG-CC-PVTZ AUX)
    Blend: AUG-CC-PVTZ-JKFIT

    Orbital Energies [Eh]
    ---------------------

    Doubly Occupied:

       1A    -79.831478     2A    -20.390941     3A    -20.390228
       4A    -20.293529     5A    -20.285273     6A    -11.140815
       7A    -11.135987     8A    -11.101612     9A    -11.099231
      10A     -7.360938    11A     -5.261090    12A     -5.257476
      13A     -5.256134    14A     -1.244743    15A     -1.176532
      16A     -1.160015    17A     -1.058389    18A     -0.889010
      19A     -0.884713    20A     -0.708686    21A     -0.705515
      22A     -0.587310    23A     -0.536313    24A     -0.521998
      25A     -0.501047    26A     -0.453879    27A     -0.449752
      28A     -0.439847    29A     -0.423602    30A     -0.417240
      31A     -0.404628    32A     -0.394477    33A     -0.377327
      34A     -0.360224    35A     -0.342612    36A     -0.305583
      37A     -0.301058    38A     -0.296350    39A     -0.286877
      40A     -0.243605    41A     -0.236233

  @DF-RHF Final Energy:  -797.79716205327691

   => Energetics <=

    Nuclear Repulsion Energy =            623.2491111456341741
    One-Electron Energy =               -2353.0679519692143913
    Two-Electron Energy =                 932.0216787703031969
    Total Energy =                       -797.7971620532769066
  Basis Set: (AUG-CC-PVTZ AUX)
    Blend: AUG-CC-PVTZ-RI
    Molecular point group: c1

    Geometry (in Angstrom), charge = -1, multiplicity = 1:

       Center              X                  Y                   Z               Mass
    ------------   -----------------  -----------------  -----------------  -----------------
         P            0.006037025391    -0.994800242861     0.017387419238    30.973761998420
         O           -1.145294974609     0.066116757139     0.576329419238    15.994914619570
         O            1.157788025391     0.065755757139    -0.541635580762    15.994914619570
         O            0.443554025391    -1.618514642861     1.078622319238    15.994914619570
         O           -0.498651974609    -1.713968242861    -1.206183580762    15.994914619570
         C           -1.812975974609     0.865835757139    -0.419392580762    12.000000000000
         C            1.820741025391     0.870987757139     0.452801419238    12.000000000000
         C           -2.667476974609     1.883354757139     0.304649419238    12.000000000000
         C            2.693385025391     1.871963757139    -0.272724580762    12.000000000000
         H           -1.066853974609     1.361088757139    -1.050926580762     1.007825032230
         H           -2.421656974609     0.218137757139    -1.058660580762     1.007825032230
         H            1.071333025391     1.380160757139     1.069208419238     1.007825032230
         H            2.415560025391     0.225589757139     1.107244419238     1.007825032230
         H           -3.207722974609     2.507227757139    -0.413976580762     1.007825032230
         H           -3.397338974609     1.381305757139     0.944365419238     1.007825032230
         H           -2.043813974609     2.530203757139     0.926352419238     1.007825032230
         H            3.229392025391     2.500506757139     0.444989419238     1.007825032230
         H            3.427314025391     1.355466757139    -0.896039580762     1.007825032230
         H            2.083481025391     2.515794757139    -0.910972580762     1.007825032230

  Basis Set: AUG-CC-PVTZ
    Blend: AUG-CC-PVTZ
  Basis Set: (AUG-CC-PVTZ AUX)
    Blend: AUG-CC-PVTZ-JKFIT
	 Reference Energy          =    -797.7971620532769066 [Eh]
	 Singles Energy            =      -0.0000000000000000 [Eh]
	 Same-Spin Energy          =      -0.4939615564081913 [Eh]
	 Opposite-Spin Energy      =      -1.5354150644266147 [Eh]
	 Correlation Energy        =      -2.0293766208348059 [Eh]
	 Total Energy              =    -799.8265386741117027 [Eh]

	 ================> DF-SCS-MP2 Energies <==================
	-----------------------------------------------------------
	 SCS Same-Spin Scale       =       0.3333333333333333 [-]
	 SCS Opposite-Spin Scale   =       1.2000000000000000 [-]
	 SCS Same-Spin Energy      =      -0.1646538521360638 [Eh]
	 SCS Opposite-Spin Energy  =      -1.8424980773119375 [Eh]
	 SCS Correlation Energy    =      -2.0071519294480011 [Eh]
	 SCS Total Energy          =    -799.8043139827249206 [Eh]
	-----------------------------------------------------------

  Dipole Moment: [D]
     X:     0.4089      Y:     6.7850      Z:     0.9119     Total:     6.8582

*** Psi4 exiting successfully. Buy a developer a beer!
