                               Psi4 1.3.2 release

  ==> Input File <==

--------------------------------------------------------------------------
#psi4
#
memory 32 gb

molecule  {
-1 1
  P       -0.0010900    -1.0890910     0.0004590
  O       -1.1524220    -0.0281740     0.5594010
  O        1.1854763    -0.0450651    -0.5151828
  O        0.5484025    -1.7813596     1.2203112
  O       -0.5057790    -1.8082590    -1.2231120
  C       -1.8201030     0.7715450    -0.4363210
  C        1.8136140     0.7766970     0.4358730
  C       -2.6746040     1.7890640     0.2877210
  C        2.6862580     1.7776730    -0.2896530
  H       -1.0739810     1.2667980    -1.0678550
  H       -2.4287840     0.1238470    -1.0755890
  H        1.0642060     1.2858700     1.0522800
  H        2.4084330     0.1312990     1.0903160
  H       -3.2148500     2.4129370    -0.4309050
  H       -3.4044660     1.2870150     0.9274370
  H       -2.0509410     2.4359130     0.9094240
  H        3.2222650     2.4062160     0.4280610
  H        3.4201870     1.2611760    -0.9129680
  H        2.0763540     2.4215040    -0.9279010
units angstrom
no_reorient  #important for SAPT in psi4, default
symmetry c1  #important for SAPT in psi4, default
}

set PROPERTIES_ORIGIN ["COM"]
properties('MP2/aug-cc-pvtz', properties = ['dipole'])
--------------------------------------------------------------------------

    Molecular point group: c1
  Charge       = -1
  Multiplicity = 1
  Basis Set: AUG-CC-PVTZ
    Blend: AUG-CC-PVTZ
  Basis Set: (AUG-CC-PVTZ AUX)
    Blend: AUG-CC-PVTZ-JKFIT

    Orbital Energies [Eh]
    ---------------------

    Doubly Occupied:

       1A    -79.881249     2A    -20.407574     3A    -20.399335
       4A    -20.308986     5A    -20.301515     6A    -11.147149
       7A    -11.138990     8A    -11.106244     9A    -11.101944
      10A     -7.396623    11A     -5.295514    12A     -5.294659
      13A     -5.293160    14A     -1.239381    15A     -1.193679
      16A     -1.101089    17A     -1.061271    18A     -0.894959
      19A     -0.888119    20A     -0.715695    21A     -0.711838
      22A     -0.602121    23A     -0.542223    24A     -0.530169
      25A     -0.508267    26A     -0.460727    27A     -0.448844
      28A     -0.444689    29A     -0.424483    30A     -0.423498
      31A     -0.401974    32A     -0.400200    33A     -0.368032
      34A     -0.359016    35A     -0.329372    36A     -0.308277
      37A     -0.300939    38A     -0.285037    39A     -0.268202
      40A     -0.251226    41A     -0.238303

  @DF-RHF Final Energy:  -797.83935468992661

   => Energetics <=

    Nuclear Repulsion Energy =            613.7444848379896030
    One-Electron Energy =               -2333.6185357795066011
    Two-Electron Energy =                 922.0346962515903897
    Total Energy =                       -797.8393546899266084
  Basis Set: (AUG-CC-PVTZ AUX)
    Blend: AUG-CC-PVTZ-RI
    Molecular point group: c1

    Geometry (in Angstrom), charge = -1, multiplicity = 1:

       Center              X                  Y                   Z               Mass
    ------------   -----------------  -----------------  -----------------  -----------------
         P           -0.009305591603    -0.985907207146    -0.003725522573    30.973761998420
         O           -1.160637591603     0.075009792854     0.555216477427    15.994914619570
         O            1.177260708397     0.058118692854    -0.519367322573    15.994914619570
         O            0.540186908397    -1.678175807146     1.216126677427    15.994914619570
         O           -0.513994591603    -1.705075207146    -1.227296522573    15.994914619570
         C           -1.828318591603     0.874728792854    -0.440505522573    12.000000000000
         C            1.805398408397     0.879880792854     0.431688477427    12.000000000000
         C           -2.682819591603     1.892247792854     0.283536477427    12.000000000000
         C            2.678042408397     1.880856792854    -0.293837522573    12.000000000000
         H           -1.082196591603     1.369981792854    -1.072039522573     1.007825032230
         H           -2.436999591603     0.227030792854    -1.079773522573     1.007825032230
         H            1.055990408397     1.389053792854     1.048095477427     1.007825032230
         H            2.400217408397     0.234482792854     1.086131477427     1.007825032230
         H           -3.223065591603     2.516120792854    -0.435089522573     1.007825032230
         H           -3.412681591603     1.390198792854     0.923252477427     1.007825032230
         H           -2.059156591603     2.539096792854     0.905239477427     1.007825032230
         H            3.214049408397     2.509399792854     0.423876477427     1.007825032230
         H            3.411971408397     1.364359792854    -0.917152522573     1.007825032230
         H            2.068138408397     2.524687792854    -0.932085522573     1.007825032230

  Basis Set: AUG-CC-PVTZ
    Blend: AUG-CC-PVTZ
  Basis Set: (AUG-CC-PVTZ AUX)
    Blend: AUG-CC-PVTZ-JKFIT
	 Reference Energy          =    -797.8393546899266084 [Eh]
	 Singles Energy            =      -0.0000000000000000 [Eh]
	 Same-Spin Energy          =      -0.4977372769859845 [Eh]
	 Opposite-Spin Energy      =      -1.5441949482552857 [Eh]
	 Correlation Energy        =      -2.0419322252412702 [Eh]
	 Total Energy              =    -799.8812869151678342 [Eh]

	 ================> DF-SCS-MP2 Energies <==================
	-----------------------------------------------------------
	 SCS Same-Spin Scale       =       0.3333333333333333 [-]
	 SCS Opposite-Spin Scale   =       1.2000000000000000 [-]
	 SCS Same-Spin Energy      =      -0.1659124256619948 [Eh]
	 SCS Opposite-Spin Energy  =      -1.8530339379063427 [Eh]
	 SCS Correlation Energy    =      -2.0189463635683378 [Eh]
	 SCS Total Energy          =    -799.8583010534949835 [Eh]
	-----------------------------------------------------------

  Dipole Moment: [D]
     X:    -0.3107      Y:     7.3744      Z:    -0.1285     Total:     7.3821

*** Psi4 exiting successfully. Buy a developer a beer!
