                               Psi4 1.3.2 release

  ==> Input File <==

--------------------------------------------------------------------------
#psi4
#
memory 32 gb

molecule  {
-1 1
  P       -0.0058676    -1.0978646    -0.0267822
  O       -1.1524220    -0.0281740     0.5594010
  O        1.1506610    -0.0285350    -0.5585640
  O        0.5034080    -1.8082920     1.2241620
  O       -0.5057790    -1.8082590    -1.2231120
  C       -1.8201030     0.7715450    -0.4363210
  C        1.8272308     0.7875257     0.4177088
  C       -2.6746040     1.7890640     0.2877210
  C        2.6862580     1.7776730    -0.2896530
  H       -1.0739810     1.2667980    -1.0678550
  H       -2.4287840     0.1238470    -1.0755890
  H        1.0642060     1.2858700     1.0522800
  H        2.4084330     0.1312990     1.0903160
  H       -3.2148500     2.4129370    -0.4309050
  H       -3.4044660     1.2870150     0.9274370
  H       -2.0509410     2.4359130     0.9094240
  H        3.2222650     2.4062160     0.4280610
  H        3.4201870     1.2611760    -0.9129680
  H        2.0763540     2.4215040    -0.9279010
units angstrom
no_reorient  #important for SAPT in psi4, default
symmetry c1  #important for SAPT in psi4, default
}

set PROPERTIES_ORIGIN ["COM"]
properties('MP2/aug-cc-pvtz', properties = ['dipole'])
--------------------------------------------------------------------------

    Molecular point group: c1
  Charge       = -1
  Multiplicity = 1
  Basis Set: AUG-CC-PVTZ
    Blend: AUG-CC-PVTZ
  Basis Set: (AUG-CC-PVTZ AUX)
    Blend: AUG-CC-PVTZ-JKFIT

    Orbital Energies [Eh]
    ---------------------

    Doubly Occupied:

       1A    -79.879237     2A    -20.403200     3A    -20.402487
       4A    -20.309839     5A    -20.299916     6A    -11.145241
       7A    -11.143608     8A    -11.104349     9A    -11.104106
      10A     -7.394926    11A     -5.293742    12A     -5.292900
      13A     -5.291546    14A     -1.232776    15A     -1.185094
      16A     -1.106400    17A     -1.057690    18A     -0.898359
      19A     -0.890505    20A     -0.712096    21A     -0.710310
      22A     -0.598024    23A     -0.537915    24A     -0.527600
      25A     -0.505711    26A     -0.459003    27A     -0.449700
      28A     -0.443757    29A     -0.424050    30A     -0.421799
      31A     -0.400815    32A     -0.396914    33A     -0.369259
      34A     -0.360001    35A     -0.331181    36A     -0.305528
      37A     -0.301705    38A     -0.286414    39A     -0.271798
      40A     -0.248545    41A     -0.237096

  @DF-RHF Final Energy:  -797.83672290355685

   => Energetics <=

    Nuclear Repulsion Energy =            612.8593333771714242
    One-Electron Energy =               -2331.9218253249287045
    Two-Electron Energy =                 921.2257690442004332
    Total Energy =                       -797.8367229035568471
  Basis Set: (AUG-CC-PVTZ AUX)
    Blend: AUG-CC-PVTZ-RI
    Molecular point group: c1

    Geometry (in Angstrom), charge = -1, multiplicity = 1:

       Center              X                  Y                   Z               Mass
    ------------   -----------------  -----------------  -----------------  -----------------
         P           -0.005842220466    -0.992666904422    -0.019896999492    30.973761998420
         O           -1.152396620466     0.077023695578     0.566286200508    15.994914619570
         O            1.150686379534     0.076662695578    -0.551678799492    15.994914619570
         O            0.503433379534    -1.703094304422     1.231047200508    15.994914619570
         O           -0.505753620466    -1.703061304422    -1.216226799492    15.994914619570
         C           -1.820077620466     0.876742695578    -0.429435799492    12.000000000000
         C            1.827256179534     0.892723395578     0.424594000508    12.000000000000
         C           -2.674578620466     1.894261695578     0.294606200508    12.000000000000
         C            2.686283379534     1.882870695578    -0.282767799492    12.000000000000
         H           -1.073955620466     1.371995695578    -1.060969799492     1.007825032230
         H           -2.428758620466     0.229044695578    -1.068703799492     1.007825032230
         H            1.064231379534     1.391067695578     1.059165200508     1.007825032230
         H            2.408458379534     0.236496695578     1.097201200508     1.007825032230
         H           -3.214824620466     2.518134695578    -0.424019799492     1.007825032230
         H           -3.404440620466     1.392212695578     0.934322200508     1.007825032230
         H           -2.050915620466     2.541110695578     0.916309200508     1.007825032230
         H            3.222290379534     2.511413695578     0.434946200508     1.007825032230
         H            3.420212379534     1.366373695578    -0.906082799492     1.007825032230
         H            2.076379379534     2.526701695578    -0.921015799492     1.007825032230

  Basis Set: AUG-CC-PVTZ
    Blend: AUG-CC-PVTZ
  Basis Set: (AUG-CC-PVTZ AUX)
    Blend: AUG-CC-PVTZ-JKFIT
	 Reference Energy          =    -797.8367229035568471 [Eh]
	 Singles Energy            =      -0.0000000000000000 [Eh]
	 Same-Spin Energy          =      -0.4980095714327599 [Eh]
	 Opposite-Spin Energy      =      -1.5451775954867821 [Eh]
	 Correlation Energy        =      -2.0431871669195418 [Eh]
	 Total Energy              =    -799.8799100704763987 [Eh]

	 ================> DF-SCS-MP2 Energies <==================
	-----------------------------------------------------------
	 SCS Same-Spin Scale       =       0.3333333333333333 [-]
	 SCS Opposite-Spin Scale   =       1.2000000000000000 [-]
	 SCS Same-Spin Energy      =      -0.1660031904775866 [Eh]
	 SCS Opposite-Spin Energy  =      -1.8542131145841385 [Eh]
	 SCS Correlation Energy    =      -2.0202163050617252 [Eh]
	 SCS Total Energy          =    -799.8569392086185417 [Eh]
	-----------------------------------------------------------

  Dipole Moment: [D]
     X:    -0.0196      Y:     7.4159      Z:    -0.3159     Total:     7.4227

*** Psi4 exiting successfully. Buy a developer a beer!
