                               Psi4 1.3.2 release

  ==> Input File <==

--------------------------------------------------------------------------
#psi4
#
memory 32 gb

molecule  {
-1 1
  P        0.0083472    -1.1060694     0.0551363
  O       -1.1524220    -0.0281740     0.5594010
  O        1.1506610    -0.0285350    -0.5585640
  O        0.5034080    -1.8082920     1.2241620
  O       -0.5057790    -1.8082590    -1.2231120
  C       -1.8470383     0.7930741    -0.3996978
  C        1.8136140     0.7766970     0.4358730
  C       -2.6746040     1.7890640     0.2877210
  C        2.6862580     1.7776730    -0.2896530
  H       -1.0739810     1.2667980    -1.0678550
  H       -2.4287840     0.1238470    -1.0755890
  H        1.0642060     1.2858700     1.0522800
  H        2.4084330     0.1312990     1.0903160
  H       -3.2148500     2.4129370    -0.4309050
  H       -3.4044660     1.2870150     0.9274370
  H       -2.0509410     2.4359130     0.9094240
  H        3.2222650     2.4062160     0.4280610
  H        3.4201870     1.2611760    -0.9129680
  H        2.0763540     2.4215040    -0.9279010
units angstrom
no_reorient  #important for SAPT in psi4, default
symmetry c1  #important for SAPT in psi4, default
}

set PROPERTIES_ORIGIN ["COM"]
properties('MP2/aug-cc-pvtz', properties = ['dipole'])
--------------------------------------------------------------------------

    Molecular point group: c1
  Charge       = -1
  Multiplicity = 1
  Basis Set: AUG-CC-PVTZ
    Blend: AUG-CC-PVTZ
  Basis Set: (AUG-CC-PVTZ AUX)
    Blend: AUG-CC-PVTZ-JKFIT

    Orbital Energies [Eh]
    ---------------------

    Doubly Occupied:

       1A    -79.878962     2A    -20.401926     3A    -20.400367
       4A    -20.315834     5A    -20.296184     6A    -11.145867
       7A    -11.142284     8A    -11.103811     9A    -11.103235
      10A     -7.395092    11A     -5.293810    12A     -5.293122
      13A     -5.291690    14A     -1.231050    15A     -1.182459
      16A     -1.119348    17A     -1.050112    18A     -0.903698
      19A     -0.889156    20A     -0.710293    21A     -0.707654
      22A     -0.596181    23A     -0.536895    24A     -0.526143
      25A     -0.504641    26A     -0.461390    27A     -0.450711
      28A     -0.444372    29A     -0.425188    30A     -0.420352
      31A     -0.401866    32A     -0.394855    33A     -0.371285
      34A     -0.358815    35A     -0.332018    36A     -0.304200
      37A     -0.297519    38A     -0.288557    39A     -0.279562
      40A     -0.242588    41A     -0.235140

  @DF-RHF Final Energy:  -797.83027530852212

   => Energetics <=

    Nuclear Repulsion Energy =            612.6621522210838293
    One-Electron Energy =               -2331.5283893656437613
    Two-Electron Energy =                 921.0359618360376999
    Total Energy =                       -797.8302753085221184
  Basis Set: (AUG-CC-PVTZ AUX)
    Blend: AUG-CC-PVTZ-RI
    Molecular point group: c1

    Geometry (in Angstrom), charge = -1, multiplicity = 1:

       Center              X                  Y                   Z               Mass
    ------------   -----------------  -----------------  -----------------  -----------------
         P            0.008675388539    -1.000050118133     0.041144953152    30.973761998420
         O           -1.152093811461     0.077845281867     0.545409653152    15.994914619570
         O            1.150989188539     0.077484281867    -0.572555346848    15.994914619570
         O            0.503736188539    -1.702272718133     1.210170653152    15.994914619570
         O           -0.505450811461    -1.702239718133    -1.237103346848    15.994914619570
         C           -1.846710111461     0.899093381867    -0.413689146848    12.000000000000
         C            1.813942188539     0.882716281867     0.421881653152    12.000000000000
         C           -2.674275811461     1.895083281867     0.273729653152    12.000000000000
         C            2.686586188539     1.883692281867    -0.303644346848    12.000000000000
         H           -1.073652811461     1.372817281867    -1.081846346848     1.007825032230
         H           -2.428455811461     0.229866281867    -1.089580346848     1.007825032230
         H            1.064534188539     1.391889281867     1.038288653152     1.007825032230
         H            2.408761188539     0.237318281867     1.076324653152     1.007825032230
         H           -3.214521811461     2.518956281867    -0.444896346848     1.007825032230
         H           -3.404137811461     1.393034281867     0.913445653152     1.007825032230
         H           -2.050612811461     2.541932281867     0.895432653152     1.007825032230
         H            3.222593188539     2.512235281867     0.414069653152     1.007825032230
         H            3.420515188539     1.367195281867    -0.926959346848     1.007825032230
         H            2.076682188539     2.527523281867    -0.941892346848     1.007825032230

  Basis Set: AUG-CC-PVTZ
    Blend: AUG-CC-PVTZ
  Basis Set: (AUG-CC-PVTZ AUX)
    Blend: AUG-CC-PVTZ-JKFIT
	 Reference Energy          =    -797.8302753085221184 [Eh]
	 Singles Energy            =      -0.0000000000000000 [Eh]
	 Same-Spin Energy          =      -0.4981710082258195 [Eh]
	 Opposite-Spin Energy      =      -1.5453760030764749 [Eh]
	 Correlation Energy        =      -2.0435470113022944 [Eh]
	 Total Energy              =    -799.8738223198243986 [Eh]

	 ================> DF-SCS-MP2 Energies <==================
	-----------------------------------------------------------
	 SCS Same-Spin Scale       =       0.3333333333333333 [-]
	 SCS Opposite-Spin Scale   =       1.2000000000000000 [-]
	 SCS Same-Spin Energy      =      -0.1660570027419398 [Eh]
	 SCS Opposite-Spin Energy  =      -1.8544512036917697 [Eh]
	 SCS Correlation Energy    =      -2.0205082064337097 [Eh]
	 SCS Total Energy          =    -799.8507835149558787 [Eh]
	-----------------------------------------------------------

  Dipole Moment: [D]
     X:     0.0367      Y:     7.3418      Z:     0.6222     Total:     7.3682

*** Psi4 exiting successfully. Buy a developer a beer!
