                               Psi4 1.3.2 release

  ==> Input File <==

--------------------------------------------------------------------------
#psi4
#
memory 32 gb

molecule  {
-1 1
  P       -0.0010900    -1.0890910     0.0004590
  O       -1.1524220    -0.0281740     0.5594010
  O        1.1506610    -0.0285350    -0.5585640
  O        0.4883570    -1.8765792     1.1876916
  O       -0.4907486    -1.8765437    -1.1866351
  C       -1.8201030     0.7715450    -0.4363210
  C        1.8136140     0.7766970     0.4358730
  C       -2.6746040     1.7890640     0.2877210
  C        2.6862580     1.7776730    -0.2896530
  H       -1.0739810     1.2667980    -1.0678550
  H       -2.4287840     0.1238470    -1.0755890
  H        1.0642060     1.2858700     1.0522800
  H        2.4084330     0.1312990     1.0903160
  H       -3.2148500     2.4129370    -0.4309050
  H       -3.4044660     1.2870150     0.9274370
  H       -2.0509410     2.4359130     0.9094240
  H        3.2222650     2.4062160     0.4280610
  H        3.4201870     1.2611760    -0.9129680
  H        2.0763540     2.4215040    -0.9279010
units angstrom
no_reorient  #important for SAPT in psi4, default
symmetry c1  #important for SAPT in psi4, default
}

set PROPERTIES_ORIGIN ["COM"]
properties('MP2/aug-cc-pvtz', properties = ['dipole'])
--------------------------------------------------------------------------

    Molecular point group: c1
  Charge       = -1
  Multiplicity = 1
  Basis Set: AUG-CC-PVTZ
    Blend: AUG-CC-PVTZ
  Basis Set: (AUG-CC-PVTZ AUX)
    Blend: AUG-CC-PVTZ-JKFIT

    Orbital Energies [Eh]
    ---------------------

    Doubly Occupied:

       1A    -79.878010     2A    -20.409176     3A    -20.409160
       4A    -20.298227     5A    -20.298189     6A    -11.148418
       7A    -11.148383     8A    -11.107304     9A    -11.107264
      10A     -7.393640    11A     -5.292468    12A     -5.291354
      13A     -5.290362    14A     -1.237558    15A     -1.191638
      16A     -1.098415    17A     -1.051020    18A     -0.897438
      19A     -0.893349    20A     -0.717005    21A     -0.716121
      22A     -0.603247    23A     -0.541379    24A     -0.532367
      25A     -0.509960    26A     -0.460907    27A     -0.450868
      28A     -0.442967    29A     -0.425401    30A     -0.425267
      31A     -0.402100    32A     -0.401682    33A     -0.366099
      34A     -0.363716    35A     -0.329079    36A     -0.311364
      37A     -0.309220    38A     -0.282099    39A     -0.266479
      40A     -0.244348    41A     -0.227777

  @DF-RHF Final Energy:  -797.83565131220882

   => Energetics <=

    Nuclear Repulsion Energy =            612.1084612828535683
    One-Electron Energy =               -2330.3465760698391023
    Two-Electron Energy =                 920.4024634747767095
    Total Energy =                       -797.8356513122088245
  Basis Set: (AUG-CC-PVTZ AUX)
    Blend: AUG-CC-PVTZ-RI
    Molecular point group: c1

    Geometry (in Angstrom), charge = -1, multiplicity = 1:

       Center              X                  Y                   Z               Mass
    ------------   -----------------  -----------------  -----------------  -----------------
         P           -0.000961695040    -0.970545421131     0.000405526920    30.973761998420
         O           -1.152293695040     0.090371578869     0.559347526920    15.994914619570
         O            1.150789304960     0.090010578869    -0.558617473080    15.994914619570
         O            0.488485304960    -1.758033621131     1.187638126920    15.994914619570
         O           -0.490620295040    -1.757998121131    -1.186688573080    15.994914619570
         C           -1.819974695040     0.890090578869    -0.436374473080    12.000000000000
         C            1.813742304960     0.895242578869     0.435819526920    12.000000000000
         C           -2.674475695040     1.907609578869     0.287667526920    12.000000000000
         C            2.686386304960     1.896218578869    -0.289706473080    12.000000000000
         H           -1.073852695040     1.385343578869    -1.067908473080     1.007825032230
         H           -2.428655695040     0.242392578869    -1.075642473080     1.007825032230
         H            1.064334304960     1.404415578869     1.052226526920     1.007825032230
         H            2.408561304960     0.249844578869     1.090262526920     1.007825032230
         H           -3.214721695040     2.531482578869    -0.430958473080     1.007825032230
         H           -3.404337695040     1.405560578869     0.927383526920     1.007825032230
         H           -2.050812695040     2.554458578869     0.909370526920     1.007825032230
         H            3.222393304960     2.524761578869     0.428007526920     1.007825032230
         H            3.420315304960     1.379721578869    -0.913021473080     1.007825032230
         H            2.076482304960     2.540049578869    -0.927954473080     1.007825032230

  Basis Set: AUG-CC-PVTZ
    Blend: AUG-CC-PVTZ
  Basis Set: (AUG-CC-PVTZ AUX)
    Blend: AUG-CC-PVTZ-JKFIT
	 Reference Energy          =    -797.8356513122088245 [Eh]
	 Singles Energy            =      -0.0000000000000000 [Eh]
	 Same-Spin Energy          =      -0.4977300055777684 [Eh]
	 Opposite-Spin Energy      =      -1.5448644562894744 [Eh]
	 Correlation Energy        =      -2.0425944618672429 [Eh]
	 Total Energy              =    -799.8782457740760492 [Eh]

	 ================> DF-SCS-MP2 Energies <==================
	-----------------------------------------------------------
	 SCS Same-Spin Scale       =       0.3333333333333333 [-]
	 SCS Opposite-Spin Scale   =       1.2000000000000000 [-]
	 SCS Same-Spin Energy      =      -0.1659100018592561 [Eh]
	 SCS Opposite-Spin Energy  =      -1.8538373475473693 [Eh]
	 SCS Correlation Energy    =      -2.0197473494066256 [Eh]
	 SCS Total Energy          =    -799.8553986616154816 [Eh]
	-----------------------------------------------------------

  Dipole Moment: [D]
     X:    -0.0005      Y:     7.9632      Z:    -0.0035     Total:     7.9632

*** Psi4 exiting successfully. Buy a developer a beer!
