                               Psi4 1.3.2 release

  ==> Input File <==

--------------------------------------------------------------------------
#psi4
#
memory 32 gb

molecule  {
-1 1
  P       -0.0010900    -1.0890910     0.0004590
  O       -1.1524220    -0.0281740     0.5594010
  O        1.1622940    -0.0154338    -0.5766097
  O        0.5034080    -1.8082920     1.2241620
  O       -0.5057790    -1.8082590    -1.2231120
  C       -1.8201030     0.7715450    -0.4363210
  C        1.8136140     0.7766970     0.4358730
  C       -2.6746040     1.7890640     0.2877210
  C        2.6782330     1.7676063    -0.3127132
  H       -1.0739810     1.2667980    -1.0678550
  H       -2.4287840     0.1238470    -1.0755890
  H        1.0642060     1.2858700     1.0522800
  H        2.4084330     0.1312990     1.0903160
  H       -3.2148500     2.4129370    -0.4309050
  H       -3.4044660     1.2870150     0.9274370
  H       -2.0509410     2.4359130     0.9094240
  H        3.2222650     2.4062160     0.4280610
  H        3.4201870     1.2611760    -0.9129680
  H        2.0763540     2.4215040    -0.9279010
units angstrom
no_reorient  #important for SAPT in psi4, default
symmetry c1  #important for SAPT in psi4, default
}

set PROPERTIES_ORIGIN ["COM"]
properties('MP2/aug-cc-pvtz', properties = ['dipole'])
--------------------------------------------------------------------------

    Molecular point group: c1
  Charge       = -1
  Multiplicity = 1
  Basis Set: AUG-CC-PVTZ
    Blend: AUG-CC-PVTZ
  Basis Set: (AUG-CC-PVTZ AUX)
    Blend: AUG-CC-PVTZ-JKFIT

    Orbital Energies [Eh]
    ---------------------

    Doubly Occupied:

       1A    -79.881525     2A    -20.406225     3A    -20.404086
       4A    -20.306171     5A    -20.304796     6A    -11.145504
       7A    -11.143293     8A    -11.105373     9A    -11.103430
      10A     -7.396791    11A     -5.295596    12A     -5.294742
      13A     -5.293388    14A     -1.232937    15A     -1.186459
      16A     -1.100805    17A     -1.060874    18A     -0.894065
      19A     -0.888849    20A     -0.714180    21A     -0.711321
      22A     -0.599288    23A     -0.537357    24A     -0.529512
      25A     -0.507912    26A     -0.457556    27A     -0.447787
      28A     -0.442096    29A     -0.424210    30A     -0.417484
      31A     -0.401228    32A     -0.399022    33A     -0.367146
      34A     -0.361286    35A     -0.332577    36A     -0.307369
      37A     -0.305418    38A     -0.285016    39A     -0.267414
      40A     -0.252403    41A     -0.238078

  @DF-RHF Final Energy:  -797.83609470140357

   => Energetics <=

    Nuclear Repulsion Energy =            612.4927451065760806
    One-Electron Energy =               -2331.1565453559474008
    Two-Electron Energy =                 920.8277055479678666
    Total Energy =                       -797.8360947014035673
  Basis Set: (AUG-CC-PVTZ AUX)
    Blend: AUG-CC-PVTZ-RI
    Molecular point group: c1

    Geometry (in Angstrom), charge = -1, multiplicity = 1:

       Center              X                  Y                   Z               Mass
    ------------   -----------------  -----------------  -----------------  -----------------
         P           -0.001550451188    -0.985399915259     0.004100616928    30.973761998420
         O           -1.152882451188     0.075517084741     0.563042616928    15.994914619570
         O            1.161833548812     0.088257284741    -0.572968083072    15.994914619570
         O            0.502947548812    -1.704600915259     1.227803616928    15.994914619570
         O           -0.506239451188    -1.704567915259    -1.219470383072    15.994914619570
         C           -1.820563451188     0.875236084741    -0.432679383072    12.000000000000
         C            1.813153548812     0.880388084741     0.439514616928    12.000000000000
         C           -2.675064451188     1.892755084741     0.291362616928    12.000000000000
         C            2.677772548812     1.871297384741    -0.309071583072    12.000000000000
         H           -1.074441451188     1.370489084741    -1.064213383072     1.007825032230
         H           -2.429244451188     0.227538084741    -1.071947383072     1.007825032230
         H            1.063745548812     1.389561084741     1.055921616928     1.007825032230
         H            2.407972548812     0.234990084741     1.093957616928     1.007825032230
         H           -3.215310451188     2.516628084741    -0.427263383072     1.007825032230
         H           -3.404926451188     1.390706084741     0.931078616928     1.007825032230
         H           -2.051401451188     2.539604084741     0.913065616928     1.007825032230
         H            3.221804548812     2.509907084741     0.431702616928     1.007825032230
         H            3.419726548812     1.364867084741    -0.909326383072     1.007825032230
         H            2.075893548812     2.525195084741    -0.924259383072     1.007825032230

  Basis Set: AUG-CC-PVTZ
    Blend: AUG-CC-PVTZ
  Basis Set: (AUG-CC-PVTZ AUX)
    Blend: AUG-CC-PVTZ-JKFIT
	 Reference Energy          =    -797.8360947014035673 [Eh]
	 Singles Energy            =      -0.0000000000000000 [Eh]
	 Same-Spin Energy          =      -0.4982790524335877 [Eh]
	 Opposite-Spin Energy      =      -1.5461087759232357 [Eh]
	 Correlation Energy        =      -2.0443878283568235 [Eh]
	 Total Energy              =    -799.8804825297603429 [Eh]

	 ================> DF-SCS-MP2 Energies <==================
	-----------------------------------------------------------
	 SCS Same-Spin Scale       =       0.3333333333333333 [-]
	 SCS Opposite-Spin Scale   =       1.2000000000000000 [-]
	 SCS Same-Spin Energy      =      -0.1660930174778625 [Eh]
	 SCS Opposite-Spin Energy  =      -1.8553305311078827 [Eh]
	 SCS Correlation Energy    =      -2.0214235485857452 [Eh]
	 SCS Total Energy          =    -799.8575182499893117 [Eh]
	-----------------------------------------------------------

  Dipole Moment: [D]
     X:    -0.1139      Y:     7.3948      Z:     0.0143     Total:     7.3957

*** Psi4 exiting successfully. Buy a developer a beer!
