                               Psi4 1.3.2 release

  ==> Input File <==

--------------------------------------------------------------------------
#psi4
#
memory 32 gb

molecule  {
-1 1
  P       -0.0010900    -1.0890910     0.0004590
  O       -1.1752021    -0.0010971     0.5951526
  O        1.1506610    -0.0285350    -0.5585640
  O        0.5034080    -1.8082920     1.2241620
  O       -0.5057790    -1.8082590    -1.2231120
  C       -1.8201030     0.7715450    -0.4363210
  C        1.8136140     0.7766970     0.4358730
  C       -2.6579216     1.7690197     0.3336517
  C        2.6862580     1.7776730    -0.2896530
  H       -1.0739810     1.2667980    -1.0678550
  H       -2.4287840     0.1238470    -1.0755890
  H        1.0642060     1.2858700     1.0522800
  H        2.4084330     0.1312990     1.0903160
  H       -3.2148500     2.4129370    -0.4309050
  H       -3.4044660     1.2870150     0.9274370
  H       -2.0509410     2.4359130     0.9094240
  H        3.2222650     2.4062160     0.4280610
  H        3.4201870     1.2611760    -0.9129680
  H        2.0763540     2.4215040    -0.9279010
units angstrom
no_reorient  #important for SAPT in psi4, default
symmetry c1  #important for SAPT in psi4, default
}

set PROPERTIES_ORIGIN ["COM"]
properties('MP2/aug-cc-pvtz', properties = ['dipole'])
--------------------------------------------------------------------------

    Molecular point group: c1
  Charge       = -1
  Multiplicity = 1
  Basis Set: AUG-CC-PVTZ
    Blend: AUG-CC-PVTZ
  Basis Set: (AUG-CC-PVTZ AUX)
    Blend: AUG-CC-PVTZ-JKFIT

    Orbital Energies [Eh]
    ---------------------

    Doubly Occupied:

       1A    -79.883770     2A    -20.407799     3A    -20.403568
       4A    -20.308745     5A    -20.305920     6A    -11.146042
       7A    -11.141941     8A    -11.105759     9A    -11.102318
      10A     -7.398812    11A     -5.297570    12A     -5.296741
      13A     -5.295399    14A     -1.231296    15A     -1.184942
      16A     -1.102480    17A     -1.062344    18A     -0.894214
      19A     -0.886515    20A     -0.714746    21A     -0.709666
      22A     -0.598809    23A     -0.535969    24A     -0.529619
      25A     -0.508931    26A     -0.457113    27A     -0.446753
      28A     -0.442160    29A     -0.425393    30A     -0.413857
      31A     -0.402721    32A     -0.394947    33A     -0.367093
      34A     -0.361445    35A     -0.334554    36A     -0.307132
      37A     -0.304920    38A     -0.285726    39A     -0.267955
      40A     -0.253917    41A     -0.239714

  @DF-RHF Final Energy:  -797.83126058539517

   => Energetics <=

    Nuclear Repulsion Energy =            611.9185909841769444
    One-Electron Energy =               -2329.9810781803175814
    Two-Electron Energy =                 920.2312266107454661
    Total Energy =                       -797.8312605853951709
  Basis Set: (AUG-CC-PVTZ AUX)
    Blend: AUG-CC-PVTZ-RI
    Molecular point group: c1

    Geometry (in Angstrom), charge = -1, multiplicity = 1:

       Center              X                  Y                   Z               Mass
    ------------   -----------------  -----------------  -----------------  -----------------
         P            0.000108981758    -0.986078264569    -0.006932223604    30.973761998420
         O           -1.174003118242     0.101915635431     0.587761376396    15.994914619570
         O            1.151859981758     0.074477735431    -0.565955223604    15.994914619570
         O            0.504606981758    -1.705279264569     1.216770776396    15.994914619570
         O           -0.504580018242    -1.705246264569    -1.230503223604    15.994914619570
         C           -1.818904018242     0.874557735431    -0.443712223604    12.000000000000
         C            1.814812981758     0.879709735431     0.428481776396    12.000000000000
         C           -2.656722618242     1.872032435431     0.326260476396    12.000000000000
         C            2.687456981758     1.880685735431    -0.297044223604    12.000000000000
         H           -1.072782018242     1.369810735431    -1.075246223604     1.007825032230
         H           -2.427585018242     0.226859735431    -1.082980223604     1.007825032230
         H            1.065404981758     1.388882735431     1.044888776396     1.007825032230
         H            2.409631981758     0.234311735431     1.082924776396     1.007825032230
         H           -3.213651018242     2.515949735431    -0.438296223604     1.007825032230
         H           -3.403267018242     1.390027735431     0.920045776396     1.007825032230
         H           -2.049742018242     2.538925735431     0.902032776396     1.007825032230
         H            3.223463981758     2.509228735431     0.420669776396     1.007825032230
         H            3.421385981758     1.364188735431    -0.920359223604     1.007825032230
         H            2.077552981758     2.524516735431    -0.935292223604     1.007825032230

  Basis Set: AUG-CC-PVTZ
    Blend: AUG-CC-PVTZ
  Basis Set: (AUG-CC-PVTZ AUX)
    Blend: AUG-CC-PVTZ-JKFIT
	 Reference Energy          =    -797.8312605853951709 [Eh]
	 Singles Energy            =      -0.0000000000000000 [Eh]
	 Same-Spin Energy          =      -0.4987004392562072 [Eh]
	 Opposite-Spin Energy      =      -1.5472190854945835 [Eh]
	 Correlation Energy        =      -2.0459195247507909 [Eh]
	 Total Energy              =    -799.8771801101460142 [Eh]

	 ================> DF-SCS-MP2 Energies <==================
	-----------------------------------------------------------
	 SCS Same-Spin Scale       =       0.3333333333333333 [-]
	 SCS Opposite-Spin Scale   =       1.2000000000000000 [-]
	 SCS Same-Spin Energy      =      -0.1662334797520690 [Eh]
	 SCS Opposite-Spin Energy  =      -1.8566629025935002 [Eh]
	 SCS Correlation Energy    =      -2.0228963823455692 [Eh]
	 SCS Total Energy          =    -799.8541569677407779 [Eh]
	-----------------------------------------------------------

  Dipole Moment: [D]
     X:     0.2290      Y:     7.2841      Z:    -0.0363     Total:     7.2878

*** Psi4 exiting successfully. Buy a developer a beer!
