                               Psi4 1.3.2 release

  ==> Input File <==

--------------------------------------------------------------------------
#psi4
#
memory 32 gb

molecule  {
-1 1
  P       -0.0010900    -1.0890910     0.0004590
  O       -1.1524220    -0.0281740     0.5594010
  O        1.1506610    -0.0285350    -0.5585640
  O        0.5034080    -1.8082920     1.2241620
  O       -0.5057790    -1.8082590    -1.2231120
  C       -1.8201030     0.7715450    -0.4363210
  C        1.9056196     0.8884483     0.5738825
  C       -2.6746040     1.7890640     0.2877210
  C        2.6862580     1.7776730    -0.2896530
  H       -1.0739810     1.2667980    -1.0678550
  H       -2.4287840     0.1238470    -1.0755890
  H        1.0642060     1.2858700     1.0522800
  H        2.4084330     0.1312990     1.0903160
  H       -3.2148500     2.4129370    -0.4309050
  H       -3.4044660     1.2870150     0.9274370
  H       -2.0509410     2.4359130     0.9094240
  H        3.2222650     2.4062160     0.4280610
  H        3.4201870     1.2611760    -0.9129680
  H        2.0763540     2.4215040    -0.9279010
units angstrom
no_reorient  #important for SAPT in psi4, default
symmetry c1  #important for SAPT in psi4, default
}

set PROPERTIES_ORIGIN ["COM"]
properties('MP2/aug-cc-pvtz', properties = ['dipole'])
--------------------------------------------------------------------------

    Molecular point group: c1
  Charge       = -1
  Multiplicity = 1
  Basis Set: AUG-CC-PVTZ
    Blend: AUG-CC-PVTZ
  Basis Set: (AUG-CC-PVTZ AUX)
    Blend: AUG-CC-PVTZ-JKFIT

    Orbital Energies [Eh]
    ---------------------

    Doubly Occupied:

       1A    -79.868370     2A    -20.398690     3A    -20.385326
       4A    -20.296626     5A    -20.295593     6A    -11.153233
       7A    -11.140821     8A    -11.113916     9A    -11.102903
      10A     -7.383824    11A     -5.282664    12A     -5.281765
      13A     -5.280559    14A     -1.216946    15A     -1.147924
      16A     -1.084969    17A     -1.051979    18A     -0.917627
      19A     -0.889514    20A     -0.727515    21A     -0.709778
      22A     -0.583208    23A     -0.539017    24A     -0.520710
      25A     -0.508690    26A     -0.463340    27A     -0.448828
      28A     -0.441274    29A     -0.421121    30A     -0.413938
      31A     -0.405020    32A     -0.377245    33A     -0.374057
      34A     -0.357968    35A     -0.317223    36A     -0.311731
      37A     -0.298332    38A     -0.276071    39A     -0.256679
      40A     -0.241730    41A     -0.227796

  @DF-RHF Final Energy:  -797.80503710062419

   => Energetics <=

    Nuclear Repulsion Energy =            609.4511569166739946
    One-Electron Energy =               -2325.4833474404008484
    Two-Electron Energy =                 918.2271534231027772
    Total Energy =                       -797.8050371006241903
  Basis Set: (AUG-CC-PVTZ AUX)
    Blend: AUG-CC-PVTZ-RI
    Molecular point group: c1

    Geometry (in Angstrom), charge = -1, multiplicity = 1:

       Center              X                  Y                   Z               Mass
    ------------   -----------------  -----------------  -----------------  -----------------
         P           -0.008178480228    -0.993582949647    -0.010415828061    30.973761998420
         O           -1.159510480228     0.067334050353     0.548526171939    15.994914619570
         O            1.143572519772     0.066973050353    -0.569438828061    15.994914619570
         O            0.496319519772    -1.712783949647     1.213287171939    15.994914619570
         O           -0.512867480228    -1.712750949647    -1.233986828061    15.994914619570
         C           -1.827191480228     0.867053050353    -0.447195828061    12.000000000000
         C            1.898531119772     0.983956350353     0.563007671939    12.000000000000
         C           -2.681692480228     1.884572050353     0.276846171939    12.000000000000
         C            2.679169519772     1.873181050353    -0.300527828061    12.000000000000
         H           -1.081069480228     1.362306050353    -1.078729828061     1.007825032230
         H           -2.435872480228     0.219355050353    -1.086463828061     1.007825032230
         H            1.057117519772     1.381378050353     1.041405171939     1.007825032230
         H            2.401344519772     0.226807050353     1.079441171939     1.007825032230
         H           -3.221938480228     2.508445050353    -0.441779828061     1.007825032230
         H           -3.411554480228     1.382523050353     0.916562171939     1.007825032230
         H           -2.058029480228     2.531421050353     0.898549171939     1.007825032230
         H            3.215176519772     2.501724050353     0.417186171939     1.007825032230
         H            3.413098519772     1.356684050353    -0.923842828061     1.007825032230
         H            2.069265519772     2.517012050353    -0.938775828061     1.007825032230

  Basis Set: AUG-CC-PVTZ
    Blend: AUG-CC-PVTZ
  Basis Set: (AUG-CC-PVTZ AUX)
    Blend: AUG-CC-PVTZ-JKFIT
	 Reference Energy          =    -797.8050371006241903 [Eh]
	 Singles Energy            =      -0.0000000000000000 [Eh]
	 Same-Spin Energy          =      -0.4995509602776503 [Eh]
	 Opposite-Spin Energy      =      -1.5497770827256114 [Eh]
	 Correlation Energy        =      -2.0493280430032619 [Eh]
	 Total Energy              =    -799.8543651436274331 [Eh]

	 ================> DF-SCS-MP2 Energies <==================
	-----------------------------------------------------------
	 SCS Same-Spin Scale       =       0.3333333333333333 [-]
	 SCS Opposite-Spin Scale   =       1.2000000000000000 [-]
	 SCS Same-Spin Energy      =      -0.1665169867592168 [Eh]
	 SCS Opposite-Spin Energy  =      -1.8597324992707336 [Eh]
	 SCS Correlation Energy    =      -2.0262494860299505 [Eh]
	 SCS Total Energy          =    -799.8312865866541870 [Eh]
	-----------------------------------------------------------

  Dipole Moment: [D]
     X:     0.5114      Y:     7.9863      Z:     0.2539     Total:     8.0067

*** Psi4 exiting successfully. Buy a developer a beer!
