                               Psi4 1.3.2 release

  ==> Input File <==

--------------------------------------------------------------------------
#psi4
#
memory 32 gb

molecule  {
-1 1
  P       -0.0010900    -1.0890910     0.0004590
  O       -1.1355893    -0.0059994     0.5512313
  O        1.1338349    -0.0063531    -0.5503950
  O        0.5034080    -1.8082920     1.2241620
  O       -0.5057790    -1.8082590    -1.2231120
  C       -1.8201030     0.7715450    -0.4363210
  C        1.8136140     0.7766970     0.4358730
  C       -2.6746040     1.7890640     0.2877210
  C        2.6862580     1.7776730    -0.2896530
  H       -1.0739810     1.2667980    -1.0678550
  H       -2.4287840     0.1238470    -1.0755890
  H        1.0642060     1.2858700     1.0522800
  H        2.4084330     0.1312990     1.0903160
  H       -3.2148500     2.4129370    -0.4309050
  H       -3.4044660     1.2870150     0.9274370
  H       -2.0509410     2.4359130     0.9094240
  H        3.2222650     2.4062160     0.4280610
  H        3.4201870     1.2611760    -0.9129680
  H        2.0763540     2.4215040    -0.9279010
units angstrom
no_reorient  #important for SAPT in psi4, default
symmetry c1  #important for SAPT in psi4, default
}

set PROPERTIES_ORIGIN ["COM"]
properties('MP2/aug-cc-pvtz', properties = ['dipole'])
--------------------------------------------------------------------------

    Molecular point group: c1
  Charge       = -1
  Multiplicity = 1
  Basis Set: AUG-CC-PVTZ
    Blend: AUG-CC-PVTZ
  Basis Set: (AUG-CC-PVTZ AUX)
    Blend: AUG-CC-PVTZ-JKFIT

    Orbital Energies [Eh]
    ---------------------

    Doubly Occupied:

       1A    -79.880381     2A    -20.402984     3A    -20.402962
       4A    -20.305741     5A    -20.305702     6A    -11.143368
       7A    -11.143308     8A    -11.104004     9A    -11.103970
      10A     -7.395860    11A     -5.294779    12A     -5.293770
      13A     -5.292485    14A     -1.237752    15A     -1.189272
      16A     -1.101444    17A     -1.061051    18A     -0.893801
      19A     -0.889295    20A     -0.714006    21A     -0.712383
      22A     -0.601112    23A     -0.539953    24A     -0.530344
      25A     -0.506018    26A     -0.459669    27A     -0.448688
      28A     -0.443389    29A     -0.423181    30A     -0.422891
      31A     -0.402287    32A     -0.398376    33A     -0.366760
      34A     -0.359154    35A     -0.331370    36A     -0.306238
      37A     -0.302410    38A     -0.286144    39A     -0.268267
      40A     -0.252563    41A     -0.238295

  @DF-RHF Final Energy:  -797.83964132637732

   => Energetics <=

    Nuclear Repulsion Energy =            613.7816349040194837
    One-Electron Energy =               -2333.7317037781490399
    Two-Electron Energy =                 922.1104275477522378
    Total Energy =                       -797.8396413263773184
  Basis Set: (AUG-CC-PVTZ AUX)
    Blend: AUG-CC-PVTZ-RI
    Molecular point group: c1

    Geometry (in Angstrom), charge = -1, multiplicity = 1:

       Center              X                  Y                   Z               Mass
    ------------   -----------------  -----------------  -----------------  -----------------
         P           -0.000964537992    -0.989456109978     0.000406279466    30.973761998420
         O           -1.135463837992     0.093635490022     0.551178579466    15.994914619570
         O            1.133960362008     0.093281790022    -0.550447720534    15.994914619570
         O            0.503533462008    -1.708657109978     1.224109279466    15.994914619570
         O           -0.505653537992    -1.708624109978    -1.223164720534    15.994914619570
         C           -1.819977537992     0.871179890022    -0.436373720534    12.000000000000
         C            1.813739462008     0.876331890022     0.435820279466    12.000000000000
         C           -2.674478537992     1.888698890022     0.287668279466    12.000000000000
         C            2.686383462008     1.877307890022    -0.289705720534    12.000000000000
         H           -1.073855537992     1.366432890022    -1.067907720534     1.007825032230
         H           -2.428658537992     0.223481890022    -1.075641720534     1.007825032230
         H            1.064331462008     1.385504890022     1.052227279466     1.007825032230
         H            2.408558462008     0.230933890022     1.090263279466     1.007825032230
         H           -3.214724537992     2.512571890022    -0.430957720534     1.007825032230
         H           -3.404340537992     1.386649890022     0.927384279466     1.007825032230
         H           -2.050815537992     2.535547890022     0.909371279466     1.007825032230
         H            3.222390462008     2.505850890022     0.428008279466     1.007825032230
         H            3.420312462008     1.360810890022    -0.913020720534     1.007825032230
         H            2.076479462008     2.521138890022    -0.927953720534     1.007825032230

  Basis Set: AUG-CC-PVTZ
    Blend: AUG-CC-PVTZ
  Basis Set: (AUG-CC-PVTZ AUX)
    Blend: AUG-CC-PVTZ-JKFIT
	 Reference Energy          =    -797.8396413263773184 [Eh]
	 Singles Energy            =      -0.0000000000000000 [Eh]
	 Same-Spin Energy          =      -0.4978673106502914 [Eh]
	 Opposite-Spin Energy      =      -1.5446647550317527 [Eh]
	 Correlation Energy        =      -2.0425320656820443 [Eh]
	 Total Energy              =    -799.8821733920593715 [Eh]

	 ================> DF-SCS-MP2 Energies <==================
	-----------------------------------------------------------
	 SCS Same-Spin Scale       =       0.3333333333333333 [-]
	 SCS Opposite-Spin Scale   =       1.2000000000000000 [-]
	 SCS Same-Spin Energy      =      -0.1659557702167638 [Eh]
	 SCS Opposite-Spin Energy  =      -1.8535977060381033 [Eh]
	 SCS Correlation Energy    =      -2.0195534762548668 [Eh]
	 SCS Total Energy          =    -799.8591948026321461 [Eh]
	-----------------------------------------------------------

  Dipole Moment: [D]
     X:    -0.0008      Y:     7.3624      Z:    -0.0034     Total:     7.3624

*** Psi4 exiting successfully. Buy a developer a beer!
