                               Psi4 1.3.2 release

  ==> Input File <==

--------------------------------------------------------------------------
#psi4
#
memory 32 gb

molecule  {
-1 1
  P       -0.0010900    -1.0890910     0.0004590
  O       -1.1524220    -0.0281740     0.5594010
  O        1.1506610    -0.0285350    -0.5585640
  O        0.5034080    -1.8082920     1.2241620
  O       -0.5057790    -1.8082590    -1.2231120
  C       -1.8664339     0.8270381    -0.5054149
  C        1.8136140     0.7766970     0.4358730
  C       -2.6746040     1.7890640     0.2877210
  C        2.6862580     1.7776730    -0.2896530
  H       -1.0739810     1.2667980    -1.0678550
  H       -2.4287840     0.1238470    -1.0755890
  H        1.0642060     1.2858700     1.0522800
  H        2.4084330     0.1312990     1.0903160
  H       -3.2148500     2.4129370    -0.4309050
  H       -3.4044660     1.2870150     0.9274370
  H       -2.0509410     2.4359130     0.9094240
  H        3.2222650     2.4062160     0.4280610
  H        3.4201870     1.2611760    -0.9129680
  H        2.0763540     2.4215040    -0.9279010
units angstrom
no_reorient  #important for SAPT in psi4, default
symmetry c1  #important for SAPT in psi4, default
}

set PROPERTIES_ORIGIN ["COM"]
properties('MP2/aug-cc-pvtz', properties = ['dipole'])
--------------------------------------------------------------------------

    Molecular point group: c1
  Charge       = -1
  Multiplicity = 1
  Basis Set: AUG-CC-PVTZ
    Blend: AUG-CC-PVTZ
  Basis Set: (AUG-CC-PVTZ AUX)
    Blend: AUG-CC-PVTZ-JKFIT

    Orbital Energies [Eh]
    ---------------------

    Doubly Occupied:

       1A    -79.873727     2A    -20.401588     3A    -20.395360
       4A    -20.300097     5A    -20.299614     6A    -11.147181
       7A    -11.142803     8A    -11.109034     9A    -11.103875
      10A     -7.389208    11A     -5.288052    12A     -5.287171
      13A     -5.285881    14A     -1.223364    15A     -1.166629
      16A     -1.092437    17A     -1.055675    18A     -0.905522
      19A     -0.890823    20A     -0.720088    21A     -0.711614
      22A     -0.590362    23A     -0.531862    24A     -0.528586
      25A     -0.509728    26A     -0.455499    27A     -0.449493
      28A     -0.441091    29A     -0.421838    30A     -0.416539
      31A     -0.400566    32A     -0.390060    33A     -0.373524
      34A     -0.362238    35A     -0.325737    36A     -0.312397
      37A     -0.302601    38A     -0.280214    39A     -0.261948
      40A     -0.246411    41A     -0.232312

  @DF-RHF Final Energy:  -797.82736640882138

   => Energetics <=

    Nuclear Repulsion Energy =            611.2342326049134726
    One-Electron Energy =               -2328.8777065165390923
    Two-Electron Energy =                 919.8161075028043570
    Total Energy =                       -797.8273664088213764
  Basis Set: (AUG-CC-PVTZ AUX)
    Blend: AUG-CC-PVTZ-RI
    Molecular point group: c1

    Geometry (in Angstrom), charge = -1, multiplicity = 1:

       Center              X                  Y                   Z               Mass
    ------------   -----------------  -----------------  -----------------  -----------------
         P            0.002669195885    -0.989171454978     0.005824214193    30.973761998420
         O           -1.148662804115     0.071745545022     0.564766214193    15.994914619570
         O            1.154420195885     0.071384545022    -0.553198785807    15.994914619570
         O            0.507167195885    -1.708372454978     1.229527214193    15.994914619570
         O           -0.502019804115    -1.708339454978    -1.217746785807    15.994914619570
         C           -1.862674704115     0.926957645022    -0.500049685807    12.000000000000
         C            1.817373195885     0.876616545022     0.441238214193    12.000000000000
         C           -2.670844804115     1.888983545022     0.293086214193    12.000000000000
         C            2.690017195885     1.877592545022    -0.284287785807    12.000000000000
         H           -1.070221804115     1.366717545022    -1.062489785807     1.007825032230
         H           -2.425024804115     0.223766545022    -1.070223785807     1.007825032230
         H            1.067965195885     1.385789545022     1.057645214193     1.007825032230
         H            2.412192195885     0.231218545022     1.095681214193     1.007825032230
         H           -3.211090804115     2.512856545022    -0.425539785807     1.007825032230
         H           -3.400706804115     1.386934545022     0.932802214193     1.007825032230
         H           -2.047181804115     2.535832545022     0.914789214193     1.007825032230
         H            3.226024195885     2.506135545022     0.433426214193     1.007825032230
         H            3.423946195885     1.361095545022    -0.907602785807     1.007825032230
         H            2.080113195885     2.521423545022    -0.922535785807     1.007825032230

  Basis Set: AUG-CC-PVTZ
    Blend: AUG-CC-PVTZ
  Basis Set: (AUG-CC-PVTZ AUX)
    Blend: AUG-CC-PVTZ-JKFIT
	 Reference Energy          =    -797.8273664088213764 [Eh]
	 Singles Energy            =      -0.0000000000000000 [Eh]
	 Same-Spin Energy          =      -0.4984794177945881 [Eh]
	 Opposite-Spin Energy      =      -1.5470425859548880 [Eh]
	 Correlation Energy        =      -2.0455220037494759 [Eh]
	 Total Energy              =    -799.8728884125708873 [Eh]

	 ================> DF-SCS-MP2 Energies <==================
	-----------------------------------------------------------
	 SCS Same-Spin Scale       =       0.3333333333333333 [-]
	 SCS Opposite-Spin Scale   =       1.2000000000000000 [-]
	 SCS Same-Spin Energy      =      -0.1661598059315293 [Eh]
	 SCS Opposite-Spin Energy  =      -1.8564511031458655 [Eh]
	 SCS Correlation Energy    =      -2.0226109090773949 [Eh]
	 SCS Total Energy          =    -799.8499773178987198 [Eh]
	-----------------------------------------------------------

  Dipole Moment: [D]
     X:    -0.2833      Y:     7.7655      Z:    -0.1518     Total:     7.7721

*** Psi4 exiting successfully. Buy a developer a beer!
