                               Psi4 1.3.2 release

  ==> Input File <==

--------------------------------------------------------------------------
#psi4
#
memory 32 gb

molecule  {
-1 1
  P       -0.0010900    -1.0890910     0.0004590
  O       -1.1425547    -0.0474201     0.6132448
  O        1.1506610    -0.0285350    -0.5585640
  O        0.4701657    -1.7799299     1.2534063
  O       -0.5057790    -1.8082590    -1.2231120
  C       -1.8201030     0.7715450    -0.4363210
  C        1.8136140     0.7766970     0.4358730
  C       -2.6746040     1.7890640     0.2877210
  C        2.6862580     1.7776730    -0.2896530
  H       -1.0739810     1.2667980    -1.0678550
  H       -2.4287840     0.1238470    -1.0755890
  H        1.0642060     1.2858700     1.0522800
  H        2.4084330     0.1312990     1.0903160
  H       -3.2148500     2.4129370    -0.4309050
  H       -3.4044660     1.2870150     0.9274370
  H       -2.0509410     2.4359130     0.9094240
  H        3.2222650     2.4062160     0.4280610
  H        3.4201870     1.2611760    -0.9129680
  H        2.0763540     2.4215040    -0.9279010
units angstrom
no_reorient  #important for SAPT in psi4, default
symmetry c1  #important for SAPT in psi4, default
}

set PROPERTIES_ORIGIN ["COM"]
properties('MP2/aug-cc-pvtz', properties = ['dipole'])
--------------------------------------------------------------------------

    Molecular point group: c1
  Charge       = -1
  Multiplicity = 1
  Basis Set: AUG-CC-PVTZ
    Blend: AUG-CC-PVTZ
  Basis Set: (AUG-CC-PVTZ AUX)
    Blend: AUG-CC-PVTZ-JKFIT

    Orbital Energies [Eh]
    ---------------------

    Doubly Occupied:

       1A    -79.877301     2A    -20.405610     3A    -20.404331
       4A    -20.306392     5A    -20.298774     6A    -11.148347
       7A    -11.144587     8A    -11.106072     9A    -11.104926
      10A     -7.392952    11A     -5.291759    12A     -5.290996
      13A     -5.289512    14A     -1.229824    15A     -1.178721
      16A     -1.096048    17A     -1.058964    18A     -0.895227
      19A     -0.891507    20A     -0.713391    21A     -0.712122
      22A     -0.595498    23A     -0.534275    24A     -0.526542
      25A     -0.505453    26A     -0.455504    27A     -0.450015
      28A     -0.438995    29A     -0.422826    30A     -0.419629
      31A     -0.398714    32A     -0.396807    33A     -0.367080
      34A     -0.362719    35A     -0.331087    36A     -0.310313
      37A     -0.306613    38A     -0.282761    39A     -0.265438
      40A     -0.249169    41A     -0.235589

  @DF-RHF Final Energy:  -797.83263654947643

   => Energetics <=

    Nuclear Repulsion Energy =            612.4010947440389145
    One-Electron Energy =               -2331.0826888538440471
    Two-Electron Energy =                 920.8489575603288131
    Total Energy =                       -797.8326365494764332
  Basis Set: (AUG-CC-PVTZ AUX)
    Blend: AUG-CC-PVTZ-RI
    Molecular point group: c1

    Geometry (in Angstrom), charge = -1, multiplicity = 1:

       Center              X                  Y                   Z               Mass
    ------------   -----------------  -----------------  -----------------  -----------------
         P            0.001479313622    -0.985772762697    -0.008278186011    30.973761998420
         O           -1.139985386378     0.055898137303     0.604507613989    15.994914619570
         O            1.153230313622     0.074783237303    -0.567301186011    15.994914619570
         O            0.472735013622    -1.676611662697     1.244669113989    15.994914619570
         O           -0.503209686378    -1.704940762697    -1.231849186011    15.994914619570
         C           -1.817533686378     0.874863237303    -0.445058186011    12.000000000000
         C            1.816183313622     0.880015237303     0.427135813989    12.000000000000
         C           -2.672034686378     1.892382237303     0.278983813989    12.000000000000
         C            2.688827313622     1.880991237303    -0.298390186011    12.000000000000
         H           -1.071411686378     1.370116237303    -1.076592186011     1.007825032230
         H           -2.426214686378     0.227165237303    -1.084326186011     1.007825032230
         H            1.066775313622     1.389188237303     1.043542813989     1.007825032230
         H            2.411002313622     0.234617237303     1.081578813989     1.007825032230
         H           -3.212280686378     2.516255237303    -0.439642186011     1.007825032230
         H           -3.401896686378     1.390333237303     0.918699813989     1.007825032230
         H           -2.048371686378     2.539231237303     0.900686813989     1.007825032230
         H            3.224834313622     2.509534237303     0.419323813989     1.007825032230
         H            3.422756313622     1.364494237303    -0.921705186011     1.007825032230
         H            2.078923313622     2.524822237303    -0.936638186011     1.007825032230

  Basis Set: AUG-CC-PVTZ
    Blend: AUG-CC-PVTZ
  Basis Set: (AUG-CC-PVTZ AUX)
    Blend: AUG-CC-PVTZ-JKFIT
	 Reference Energy          =    -797.8326365494764332 [Eh]
	 Singles Energy            =      -0.0000000000000000 [Eh]
	 Same-Spin Energy          =      -0.4984598118935940 [Eh]
	 Opposite-Spin Energy      =      -1.5470291700821708 [Eh]
	 Correlation Energy        =      -2.0454889819757649 [Eh]
	 Total Energy              =    -799.8781255314521559 [Eh]

	 ================> DF-SCS-MP2 Energies <==================
	-----------------------------------------------------------
	 SCS Same-Spin Scale       =       0.3333333333333333 [-]
	 SCS Opposite-Spin Scale   =       1.2000000000000000 [-]
	 SCS Same-Spin Energy      =      -0.1661532706311980 [Eh]
	 SCS Opposite-Spin Energy  =      -1.8564350040986048 [Eh]
	 SCS Correlation Energy    =      -2.0225882747298027 [Eh]
	 SCS Total Energy          =    -799.8552248242062888 [Eh]
	-----------------------------------------------------------

  Dipole Moment: [D]
     X:    -0.0069      Y:     7.5280      Z:    -0.2192     Total:     7.5312

*** Psi4 exiting successfully. Buy a developer a beer!
