                               Psi4 1.3.2 release

  ==> Input File <==

--------------------------------------------------------------------------
#psi4
#
memory 32 gb

molecule  {
-1 1
  P       -0.0010900    -1.0890910     0.0004590
  O       -1.1645896    -0.0017353     0.4773792
  O        1.1506610    -0.0285350    -0.5585640
  O        0.5521065    -1.8491818     1.1775117
  O       -0.5057790    -1.8082590    -1.2231120
  C       -1.8201030     0.7715450    -0.4363210
  C        1.8136140     0.7766970     0.4358730
  C       -2.6746040     1.7890640     0.2877210
  C        2.6862580     1.7776730    -0.2896530
  H       -1.0739810     1.2667980    -1.0678550
  H       -2.4287840     0.1238470    -1.0755890
  H        1.0642060     1.2858700     1.0522800
  H        2.4084330     0.1312990     1.0903160
  H       -3.2148500     2.4129370    -0.4309050
  H       -3.4044660     1.2870150     0.9274370
  H       -2.0509410     2.4359130     0.9094240
  H        3.2222650     2.4062160     0.4280610
  H        3.4201870     1.2611760    -0.9129680
  H        2.0763540     2.4215040    -0.9279010
units angstrom
no_reorient  #important for SAPT in psi4, default
symmetry c1  #important for SAPT in psi4, default
}

set PROPERTIES_ORIGIN ["COM"]
properties('MP2/aug-cc-pvtz', properties = ['dipole'])
--------------------------------------------------------------------------

    Molecular point group: c1
  Charge       = -1
  Multiplicity = 1
  Basis Set: AUG-CC-PVTZ
    Blend: AUG-CC-PVTZ
  Basis Set: (AUG-CC-PVTZ AUX)
    Blend: AUG-CC-PVTZ-JKFIT

    Orbital Energies [Eh]
    ---------------------

    Doubly Occupied:

       1A    -79.883132     2A    -20.404128     3A    -20.403454
       4A    -20.311126     5A    -20.299841     6A    -11.145575
       7A    -11.139143     8A    -11.105015     9A    -11.102822
      10A     -7.398403    11A     -5.297371    12A     -5.296266
      13A     -5.295006    14A     -1.249805    15A     -1.198766
      16A     -1.103902    17A     -1.059492    18A     -0.894228
      19A     -0.888634    20A     -0.718230    21A     -0.713328
      22A     -0.607165    23A     -0.546184    24A     -0.534123
      25A     -0.509511    26A     -0.467659    27A     -0.448902
      28A     -0.445636    29A     -0.426713    30A     -0.424092
      31A     -0.404896    32A     -0.401083    33A     -0.366924
      34A     -0.357722    35A     -0.328771    36A     -0.306557
      37A     -0.299170    38A     -0.286471    39A     -0.270346
      40A     -0.250226    41A     -0.236753

  @DF-RHF Final Energy:  -797.83736770276676

   => Energetics <=

    Nuclear Repulsion Energy =            614.2682735752458711
    One-Electron Energy =               -2334.5581449125620566
    Two-Electron Energy =                 922.4525036345493163
    Total Energy =                       -797.8373677027667554
  Basis Set: (AUG-CC-PVTZ AUX)
    Blend: AUG-CC-PVTZ-RI
    Molecular point group: c1

    Geometry (in Angstrom), charge = -1, multiplicity = 1:

       Center              X                  Y                   Z               Mass
    ------------   -----------------  -----------------  -----------------  -----------------
         P           -0.004782068422    -0.983309522569     0.013855051515    30.973761998420
         O           -1.168281668422     0.104046177431     0.490775251515    15.994914619570
         O            1.146968931578     0.077246477431    -0.545167948485    15.994914619570
         O            0.548414431578    -1.743400322569     1.190907751515    15.994914619570
         O           -0.509471068422    -1.702477522569    -1.209715948485    15.994914619570
         C           -1.823795068422     0.877326477431    -0.422924948485    12.000000000000
         C            1.809921931578     0.882478477431     0.449269051515    12.000000000000
         C           -2.678296068422     1.894845477431     0.301117051515    12.000000000000
         C            2.682565931578     1.883454477431    -0.276256948485    12.000000000000
         H           -1.077673068422     1.372579477431    -1.054458948485     1.007825032230
         H           -2.432476068422     0.229628477431    -1.062192948485     1.007825032230
         H            1.060513931578     1.391651477431     1.065676051515     1.007825032230
         H            2.404740931578     0.237080477431     1.103712051515     1.007825032230
         H           -3.218542068422     2.518718477431    -0.417508948485     1.007825032230
         H           -3.408158068422     1.392796477431     0.940833051515     1.007825032230
         H           -2.054633068422     2.541694477431     0.922820051515     1.007825032230
         H            3.218572931578     2.511997477431     0.441457051515     1.007825032230
         H            3.416494931578     1.366957477431    -0.899571948485     1.007825032230
         H            2.072661931578     2.527285477431    -0.914504948485     1.007825032230

  Basis Set: AUG-CC-PVTZ
    Blend: AUG-CC-PVTZ
  Basis Set: (AUG-CC-PVTZ AUX)
    Blend: AUG-CC-PVTZ-JKFIT
	 Reference Energy          =    -797.8373677027667554 [Eh]
	 Singles Energy            =      -0.0000000000000000 [Eh]
	 Same-Spin Energy          =      -0.4975361001599741 [Eh]
	 Opposite-Spin Energy      =      -1.5431832928898548 [Eh]
	 Correlation Energy        =      -2.0407193930498289 [Eh]
	 Total Energy              =    -799.8780870958165679 [Eh]

	 ================> DF-SCS-MP2 Energies <==================
	-----------------------------------------------------------
	 SCS Same-Spin Scale       =       0.3333333333333333 [-]
	 SCS Opposite-Spin Scale   =       1.2000000000000000 [-]
	 SCS Same-Spin Energy      =      -0.1658453667199914 [Eh]
	 SCS Opposite-Spin Energy  =      -1.8518199514678257 [Eh]
	 SCS Correlation Energy    =      -2.0176653181878170 [Eh]
	 SCS Total Energy          =    -799.8550330209545791 [Eh]
	-----------------------------------------------------------

  Dipole Moment: [D]
     X:     0.0560      Y:     7.4134      Z:     0.3541     Total:     7.4221

*** Psi4 exiting successfully. Buy a developer a beer!
