                               Psi4 1.3.2 release

  ==> Input File <==

--------------------------------------------------------------------------
#psi4
#
memory 32 gb

molecule  {
-1 1
  P       -0.0010900    -1.0890910     0.0004590
  O       -1.2909376     0.0994639     0.6266468
  O        1.1506610    -0.0285350    -0.5585640
  O        0.5034080    -1.8082920     1.2241620
  O       -0.5057790    -1.8082590    -1.2231120
  C       -1.8201030     0.7715450    -0.4363210
  C        1.8136140     0.7766970     0.4358730
  C       -2.6746040     1.7890640     0.2877210
  C        2.6862580     1.7776730    -0.2896530
  H       -1.0739810     1.2667980    -1.0678550
  H       -2.4287840     0.1238470    -1.0755890
  H        1.0642060     1.2858700     1.0522800
  H        2.4084330     0.1312990     1.0903160
  H       -3.2148500     2.4129370    -0.4309050
  H       -3.4044660     1.2870150     0.9274370
  H       -2.0509410     2.4359130     0.9094240
  H        3.2222650     2.4062160     0.4280610
  H        3.4201870     1.2611760    -0.9129680
  H        2.0763540     2.4215040    -0.9279010
units angstrom
no_reorient  #important for SAPT in psi4, default
symmetry c1  #important for SAPT in psi4, default
}

set PROPERTIES_ORIGIN ["COM"]
properties('MP2/aug-cc-pvtz', properties = ['dipole'])
--------------------------------------------------------------------------

    Molecular point group: c1
  Charge       = -1
  Multiplicity = 1
  Basis Set: AUG-CC-PVTZ
    Blend: AUG-CC-PVTZ
  Basis Set: (AUG-CC-PVTZ AUX)
    Blend: AUG-CC-PVTZ-JKFIT

    Orbital Energies [Eh]
    ---------------------

    Doubly Occupied:

       1A    -79.900610     2A    -20.419171     3A    -20.396649
       4A    -20.322558     5A    -20.320864     6A    -11.151112
       7A    -11.124081     8A    -11.108931     9A    -11.087622
      10A     -7.414710    11A     -5.313248    12A     -5.312475
      13A     -5.311056    14A     -1.233193    15A     -1.192266
      16A     -1.116704    17A     -1.074059    18A     -0.898111
      19A     -0.866388    20A     -0.719674    21A     -0.693215
      22A     -0.602029    23A     -0.538498    24A     -0.525317
      25A     -0.506371    26A     -0.460500    27A     -0.453919
      28A     -0.437816    29A     -0.422381    30A     -0.417641
      31A     -0.400022    32A     -0.391777    33A     -0.373079
      34A     -0.356864    35A     -0.342906    36A     -0.309247
      37A     -0.295451    38A     -0.285151    39A     -0.266950
      40A     -0.265639    41A     -0.252392

  @DF-RHF Final Energy:  -797.81031838992340

   => Energetics <=

    Nuclear Repulsion Energy =            608.2751026580859843
    One-Electron Energy =               -2322.4095500010444084
    Two-Electron Energy =                 916.3241289530351423
    Total Energy =                       -797.8103183899233954
  Basis Set: (AUG-CC-PVTZ AUX)
    Blend: AUG-CC-PVTZ-RI
    Molecular point group: c1

    Geometry (in Angstrom), charge = -1, multiplicity = 1:

       Center              X                  Y                   Z               Mass
    ------------   -----------------  -----------------  -----------------  -----------------
         P            0.013513842532    -0.998160706062    -0.006622344220    30.973761998420
         O           -1.276333757468     0.190394193938     0.619565455780    15.994914619570
         O            1.165264842532     0.062395293938    -0.565645344220    15.994914619570
         O            0.518011842532    -1.717361706062     1.217080655780    15.994914619570
         O           -0.491175157468    -1.717328706062    -1.230193344220    15.994914619570
         C           -1.805499157468     0.862475293938    -0.443402344220    12.000000000000
         C            1.828217842532     0.867627293938     0.428791655780    12.000000000000
         C           -2.660000157468     1.879994293938     0.280639655780    12.000000000000
         C            2.700861842532     1.868603293938    -0.296734344220    12.000000000000
         H           -1.059377157468     1.357728293938    -1.074936344220     1.007825032230
         H           -2.414180157468     0.214777293938    -1.082670344220     1.007825032230
         H            1.078809842532     1.376800293938     1.045198655780     1.007825032230
         H            2.423036842532     0.222229293938     1.083234655780     1.007825032230
         H           -3.200246157468     2.503867293938    -0.437986344220     1.007825032230
         H           -3.389862157468     1.377945293938     0.920355655780     1.007825032230
         H           -2.036337157468     2.526843293938     0.902342655780     1.007825032230
         H            3.236868842532     2.497146293938     0.420979655780     1.007825032230
         H            3.434790842532     1.352106293938    -0.920049344220     1.007825032230
         H            2.090957842532     2.512434293938    -0.934982344220     1.007825032230

  Basis Set: AUG-CC-PVTZ
    Blend: AUG-CC-PVTZ
  Basis Set: (AUG-CC-PVTZ AUX)
    Blend: AUG-CC-PVTZ-JKFIT
	 Reference Energy          =    -797.8103183899233954 [Eh]
	 Singles Energy            =      -0.0000000000000000 [Eh]
	 Same-Spin Energy          =      -0.5008534857160168 [Eh]
	 Opposite-Spin Energy      =      -1.5515795004604895 [Eh]
	 Correlation Energy        =      -2.0524329861765063 [Eh]
	 Total Energy              =    -799.8627513760999364 [Eh]

	 ================> DF-SCS-MP2 Energies <==================
	-----------------------------------------------------------
	 SCS Same-Spin Scale       =       0.3333333333333333 [-]
	 SCS Opposite-Spin Scale   =       1.2000000000000000 [-]
	 SCS Same-Spin Energy      =      -0.1669511619053389 [Eh]
	 SCS Opposite-Spin Energy  =      -1.8618954005525874 [Eh]
	 SCS Correlation Energy    =      -2.0288465624579262 [Eh]
	 SCS Total Energy          =    -799.8391649523813385 [Eh]
	-----------------------------------------------------------

  Dipole Moment: [D]
     X:     1.1093      Y:     6.5567      Z:    -0.1088     Total:     6.6507

*** Psi4 exiting successfully. Buy a developer a beer!
