                               Psi4 1.4a3.dev225

  ==> Input File <==

--------------------------------------------------------------------------
#psi4
#
memory 32 gb

molecule  {
-1 1
  P        0.0000000     1.0872980     0.0000000
  O       -1.1564220     0.0305830    -0.5476420
  O        1.1564220     0.0305830     0.5476420
  O        0.4924450     1.8091740    -1.2276720
  O       -0.4924450     1.8091740     1.2276720
  C       -1.8079212    -0.8058775     0.4547753
  C        1.7989910    -0.7944120    -0.4410350
  C       -2.7063440    -1.7646140    -0.2844450
  C        2.7063440    -1.7646150     0.2844450
  H       -1.0386670    -1.3302830     1.0205350
  H       -2.3670280    -0.1617970     1.1311080
  H        1.0386660    -1.3302840    -1.0205350
  H        2.3670280    -0.1617970    -1.1311080
  H       -3.2237520    -2.4090830     0.4325060
  H       -3.4553630    -1.2226600    -0.8671100
  H       -2.1260300    -2.3948090    -0.9629160
  H        3.2237520    -2.4090830    -0.4325060
  H        3.4553630    -1.2226600     0.8671100
  H        2.1260300    -2.3948090     0.9629160
units angstrom
no_reorient  #important for SAPT in psi4, default
symmetry c1  #important for SAPT in psi4, default
}

set PROPERTIES_ORIGIN ["COM"]
properties('MP2/aug-cc-pvtz', properties = ['dipole'])
--------------------------------------------------------------------------

    Molecular point group: c1
  Charge       = -1
  Multiplicity = 1
  Basis Set: AUG-CC-PVTZ
    Blend: AUG-CC-PVTZ
  Basis Set: (AUG-CC-PVTZ AUX)
    Blend: AUG-CC-PVTZ-JKFIT

    Orbital Energies [Eh]
    ---------------------

    Doubly Occupied:

       1A    -79.877786     2A    -20.404358     3A    -20.403158
       4A    -20.302241     5A    -20.302165     6A    -11.145679
       7A    -11.145131     8A    -11.106066     9A    -11.105102
      10A     -7.393325    11A     -5.292206    12A     -5.291297
      13A     -5.289924    14A     -1.233392    15A     -1.185024
      16A     -1.097360    17A     -1.057714    18A     -0.896659
      19A     -0.891760    20A     -0.715641    21A     -0.713699
      22A     -0.598737    23A     -0.538192    24A     -0.530352
      25A     -0.508020    26A     -0.457374    27A     -0.449234
      28A     -0.443019    29A     -0.423538    30A     -0.421366
      31A     -0.399828    32A     -0.399649    33A     -0.367988
      34A     -0.362705    35A     -0.329148    36A     -0.309429
      37A     -0.306036    38A     -0.282944    39A     -0.265694
      40A     -0.249037    41A     -0.234738

  @DF-RHF Final Energy:  -797.83789884580369

   => Energetics <=

    Nuclear Repulsion Energy =            612.7235493312613244
    One-Electron Energy =               -2331.6694614353518773
    Two-Electron Energy =                 921.1080132582867463
    Total Energy =                       -797.8378988458036929
  Basis Set: (AUG-CC-PVTZ AUX)
    Blend: AUG-CC-PVTZ-RI
    Molecular point group: c1

    Geometry (in Angstrom), charge = -1, multiplicity = 1:

       Center              X                  Y                   Z               Mass
    ------------   -----------------  -----------------  -----------------  -----------------
         P            0.000700269475     0.983907194822    -0.001077447558    30.973761998420
         O           -1.155721730525    -0.072807805178    -0.548719447558    15.994914619570
         O            1.157122269475    -0.072807805178     0.546564552442    15.994914619570
         O            0.493145269475     1.705783194822    -1.228749447558    15.994914619570
         O           -0.491744730525     1.705783194822     1.226594552442    15.994914619570
         C           -1.807220930525    -0.909268305178     0.453697852442    12.000000000000
         C            1.799691269475    -0.897802805178    -0.442112447558    12.000000000000
         C           -2.705643730525    -1.868004805178    -0.285522447558    12.000000000000
         C            2.707044269475    -1.868005805178     0.283367552442    12.000000000000
         H           -1.037966730525    -1.433673805178     1.019457552442     1.007825032230
         H           -2.366327730525    -0.265187805178     1.130030552442     1.007825032230
         H            1.039366269475    -1.433674805178    -1.021612447558     1.007825032230
         H            2.367728269475    -0.265187805178    -1.132185447558     1.007825032230
         H           -3.223051730525    -2.512473805178     0.431428552442     1.007825032230
         H           -3.454662730525    -1.326050805178    -0.868187447558     1.007825032230
         H           -2.125329730525    -2.498199805178    -0.963993447558     1.007825032230
         H            3.224452269475    -2.512473805178    -0.433583447558     1.007825032230
         H            3.456063269475    -1.326050805178     0.866032552442     1.007825032230
         H            2.126730269475    -2.498199805178     0.961838552442     1.007825032230

  Basis Set: AUG-CC-PVTZ
    Blend: AUG-CC-PVTZ
  Basis Set: (AUG-CC-PVTZ AUX)
    Blend: AUG-CC-PVTZ-JKFIT
	 Reference Energy          =    -797.8378988458036929 [Eh]
	 Singles Energy            =      -0.0000000000000000 [Eh]
	 Same-Spin Energy          =      -0.4978938749819082 [Eh]
	 Opposite-Spin Energy      =      -1.5451509579485430 [Eh]
	 Correlation Energy        =      -2.0430448329304509 [Eh]
	 Total Energy              =    -799.8809436787341838 [Eh]

	 ================> DF-SCS-MP2 Energies <==================
	-----------------------------------------------------------
	 SCS Same-Spin Scale       =       0.3333333333333333 [-]
	 SCS Opposite-Spin Scale   =       1.2000000000000000 [-]
	 SCS Same-Spin Energy      =      -0.1659646249939694 [Eh]
	 SCS Opposite-Spin Energy  =      -1.8541811495382514 [Eh]
	 SCS Correlation Energy    =      -2.0201457745322209 [Eh]
	 SCS Total Energy          =    -799.8580446203359315 [Eh]
	-----------------------------------------------------------

  Dipole Moment: [D]
     X:    -0.0599      Y:    -7.6336      Z:     0.0331     Total:     7.6339

*** Psi4 exiting successfully. Buy a developer a beer!
