                               Psi4 1.3.2 release

  ==> Input File <==

--------------------------------------------------------------------------
#psi4
#
memory 32 gb

molecule  {
-1 1
  P       -0.0010900    -1.0890910     0.0004590
  O       -1.1524220    -0.0281740     0.5594010
  O        1.0846039    -0.0051549    -0.5305959
  O        0.5034080    -1.8082920     1.2241620
  O       -0.5057790    -1.8082590    -1.2231120
  C       -1.8201030     0.7715450    -0.4363210
  C        1.8136140     0.7766970     0.4358730
  C       -2.6746040     1.7890640     0.2877210
  C        2.6862580     1.7776730    -0.2896530
  H       -1.0739810     1.2667980    -1.0678550
  H       -2.4287840     0.1238470    -1.0755890
  H        1.0233917     1.2606017     1.0208620
  H        2.4084330     0.1312990     1.0903160
  H       -3.2148500     2.4129370    -0.4309050
  H       -3.4044660     1.2870150     0.9274370
  H       -2.0509410     2.4359130     0.9094240
  H        3.2222650     2.4062160     0.4280610
  H        3.4201870     1.2611760    -0.9129680
  H        2.0763540     2.4215040    -0.9279010
units angstrom
no_reorient  #important for SAPT in psi4, default
symmetry c1  #important for SAPT in psi4, default
}

set PROPERTIES_ORIGIN ["COM"]
properties('MP2/aug-cc-pvtz', properties = ['dipole'])
--------------------------------------------------------------------------

    Molecular point group: c1
  Charge       = -1
  Multiplicity = 1
  Basis Set: AUG-CC-PVTZ
    Blend: AUG-CC-PVTZ
  Basis Set: (AUG-CC-PVTZ AUX)
    Blend: AUG-CC-PVTZ-JKFIT

    Orbital Energies [Eh]
    ---------------------

    Doubly Occupied:

       1A    -79.874850     2A    -20.402815     3A    -20.398927
       4A    -20.301916     5A    -20.301759     6A    -11.147813
       7A    -11.142185     8A    -11.108193     9A    -11.103129
      10A     -7.390961    11A     -5.289955    12A     -5.288902
      13A     -5.287579    14A     -1.240548    15A     -1.186926
      16A     -1.097521    17A     -1.057875    18A     -0.897262
      19A     -0.889611    20A     -0.718981    21A     -0.711018
      22A     -0.599662    23A     -0.541063    24A     -0.530345
      25A     -0.505763    26A     -0.461758    27A     -0.448324
      28A     -0.443567    29A     -0.424825    30A     -0.423870
      31A     -0.401588    32A     -0.397984    33A     -0.367706
      34A     -0.359446    35A     -0.328628    36A     -0.307698
      37A     -0.302682    38A     -0.283762    39A     -0.265581
      40A     -0.249054    41A     -0.234712

  @DF-RHF Final Energy:  -797.83844010121345

   => Energetics <=

    Nuclear Repulsion Energy =            615.0273171384968691
    One-Electron Energy =               -2336.2980238620443743
    Two-Electron Energy =                 923.4322666223339411
    Total Energy =                       -797.8384401012134504
  Basis Set: (AUG-CC-PVTZ AUX)
    Blend: AUG-CC-PVTZ-RI
    Molecular point group: c1

    Geometry (in Angstrom), charge = -1, multiplicity = 1:

       Center              X                  Y                   Z               Mass
    ------------   -----------------  -----------------  -----------------  -----------------
         P            0.006209250992    -0.987097240403    -0.002310117206    30.973761998420
         O           -1.145122749008     0.073819759597     0.556631882794    15.994914619570
         O            1.091903150992     0.096838859597    -0.533365017206    15.994914619570
         O            0.510707250992    -1.706298240403     1.221392882794    15.994914619570
         O           -0.498479749008    -1.706265240403    -1.225881117206    15.994914619570
         C           -1.812803749008     0.873538759597    -0.439090117206    12.000000000000
         C            1.820913250992     0.878690759597     0.433103882794    12.000000000000
         C           -2.667304749008     1.891057759597     0.284951882794    12.000000000000
         C            2.693557250992     1.879666759597    -0.292422117206    12.000000000000
         H           -1.066681749008     1.368791759597    -1.070624117206     1.007825032230
         H           -2.421484749008     0.225840759597    -1.078358117206     1.007825032230
         H            1.030690950992     1.362595459597     1.018092882794     1.007825032230
         H            2.415732250992     0.233292759597     1.087546882794     1.007825032230
         H           -3.207550749008     2.514930759597    -0.433674117206     1.007825032230
         H           -3.397166749008     1.389008759597     0.924667882794     1.007825032230
         H           -2.043641749008     2.537906759597     0.906654882794     1.007825032230
         H            3.229564250992     2.508209759597     0.425291882794     1.007825032230
         H            3.427486250992     1.363169759597    -0.915737117206     1.007825032230
         H            2.083653250992     2.523497759597    -0.930670117206     1.007825032230

  Basis Set: AUG-CC-PVTZ
    Blend: AUG-CC-PVTZ
  Basis Set: (AUG-CC-PVTZ AUX)
    Blend: AUG-CC-PVTZ-JKFIT
	 Reference Energy          =    -797.8384401012134504 [Eh]
	 Singles Energy            =      -0.0000000000000000 [Eh]
	 Same-Spin Energy          =      -0.4975623725863479 [Eh]
	 Opposite-Spin Energy      =      -1.5438686938736694 [Eh]
	 Correlation Energy        =      -2.0414310664600173 [Eh]
	 Total Energy              =    -799.8798711676735138 [Eh]

	 ================> DF-SCS-MP2 Energies <==================
	-----------------------------------------------------------
	 SCS Same-Spin Scale       =       0.3333333333333333 [-]
	 SCS Opposite-Spin Scale   =       1.2000000000000000 [-]
	 SCS Same-Spin Energy      =      -0.1658541241954493 [Eh]
	 SCS Opposite-Spin Energy  =      -1.8526424326484032 [Eh]
	 SCS Correlation Energy    =      -2.0184965568438527 [Eh]
	 SCS Total Energy          =    -799.8569366580572932 [Eh]
	-----------------------------------------------------------

  Dipole Moment: [D]
     X:     0.2879      Y:     7.5572      Z:    -0.0698     Total:     7.5630

*** Psi4 exiting successfully. Buy a developer a beer!
