                               Psi4 1.3.2 release

  ==> Input File <==

--------------------------------------------------------------------------
#psi4
#
memory 32 gb

molecule  {
-1 1
  P       -0.0010900    -1.0890910     0.0004590
  O       -1.1524220    -0.0281740     0.5594010
  O        1.1506610    -0.0285350    -0.5585640
  O        0.5034080    -1.8082920     1.2241620
  O       -0.5057790    -1.8082590    -1.2231120
  C       -1.8201030     0.7715450    -0.4363210
  C        1.8136140     0.7766970     0.4358730
  C       -2.6746040     1.7890640     0.2877210
  C        2.6862580     1.7776730    -0.2896530
  H       -1.0058926     1.3119930    -1.1254865
  H       -2.4287840     0.1238470    -1.0755890
  H        1.0642060     1.2858700     1.0522800
  H        2.4084330     0.1312990     1.0903160
  H       -3.2148500     2.4129370    -0.4309050
  H       -3.4044660     1.2870150     0.9274370
  H       -2.0509410     2.4359130     0.9094240
  H        3.2222650     2.4062160     0.4280610
  H        3.4201870     1.2611760    -0.9129680
  H        2.0763540     2.4215040    -0.9279010
units angstrom
no_reorient  #important for SAPT in psi4, default
symmetry c1  #important for SAPT in psi4, default
}

set PROPERTIES_ORIGIN ["COM"]
properties('MP2/aug-cc-pvtz', properties = ['dipole'])
--------------------------------------------------------------------------

    Molecular point group: c1
  Charge       = -1
  Multiplicity = 1
  Basis Set: AUG-CC-PVTZ
    Blend: AUG-CC-PVTZ
  Basis Set: (AUG-CC-PVTZ AUX)
    Blend: AUG-CC-PVTZ-JKFIT

    Orbital Energies [Eh]
    ---------------------

    Doubly Occupied:

       1A    -79.879786     2A    -20.406947     3A    -20.404463
       4A    -20.304135     5A    -20.303914     6A    -11.156929
       7A    -11.144767     8A    -11.106023     9A    -11.104706
      10A     -7.395306    11A     -5.294170    12A     -5.293276
      13A     -5.291894    14A     -1.235727    15A     -1.188393
      16A     -1.099533    17A     -1.059758    18A     -0.893841
      19A     -0.889605    20A     -0.713496    21A     -0.706257
      22A     -0.597760    23A     -0.539447    24A     -0.527325
      25A     -0.501551    26A     -0.458981    27A     -0.449533
      28A     -0.442903    29A     -0.423627    30A     -0.423345
      31A     -0.401318    32A     -0.396213    33A     -0.367585
      34A     -0.357295    35A     -0.330699    36A     -0.306977
      37A     -0.302184    38A     -0.284681    39A     -0.267170
      40A     -0.251190    41A     -0.236778

  @DF-RHF Final Energy:  -797.83208567803513

   => Energetics <=

    Nuclear Repulsion Energy =            612.6854175483961171
    One-Electron Energy =               -2331.5560374025931196
    Two-Electron Energy =                 921.0385341761618747
    Total Energy =                       -797.8320856780351278
  Basis Set: (AUG-CC-PVTZ AUX)
    Blend: AUG-CC-PVTZ-RI
    Molecular point group: c1

    Geometry (in Angstrom), charge = -1, multiplicity = 1:

       Center              X                  Y                   Z               Mass
    ------------   -----------------  -----------------  -----------------  -----------------
         P           -0.001412259872    -0.985117597731     0.000785751712    30.973761998420
         O           -1.152744259872     0.075799402269     0.559727751712    15.994914619570
         O            1.150338740128     0.075438402269    -0.558237248288    15.994914619570
         O            0.503085740128    -1.704318597731     1.224488751712    15.994914619570
         O           -0.506101259872    -1.704285597731    -1.222785248288    15.994914619570
         C           -1.820425259872     0.875518402269    -0.435994248288    12.000000000000
         C            1.813291740128     0.880670402269     0.436199751712    12.000000000000
         C           -2.674926259872     1.893037402269     0.288047751712    12.000000000000
         C            2.685935740128     1.881646402269    -0.289326248288    12.000000000000
         H           -1.006214859872     1.415966402269    -1.125159748288     1.007825032230
         H           -2.429106259872     0.227820402269    -1.075262248288     1.007825032230
         H            1.063883740128     1.389843402269     1.052606751712     1.007825032230
         H            2.408110740128     0.235272402269     1.090642751712     1.007825032230
         H           -3.215172259872     2.516910402269    -0.430578248288     1.007825032230
         H           -3.404788259872     1.390988402269     0.927763751712     1.007825032230
         H           -2.051263259872     2.539886402269     0.909750751712     1.007825032230
         H            3.221942740128     2.510189402269     0.428387751712     1.007825032230
         H            3.419864740128     1.365149402269    -0.912641248288     1.007825032230
         H            2.076031740128     2.525477402269    -0.927574248288     1.007825032230

  Basis Set: AUG-CC-PVTZ
    Blend: AUG-CC-PVTZ
  Basis Set: (AUG-CC-PVTZ AUX)
    Blend: AUG-CC-PVTZ-JKFIT
	 Reference Energy          =    -797.8320856780351278 [Eh]
	 Singles Energy            =      -0.0000000000000000 [Eh]
	 Same-Spin Energy          =      -0.4981414783460979 [Eh]
	 Opposite-Spin Energy      =      -1.5460730814450234 [Eh]
	 Correlation Energy        =      -2.0442145597911212 [Eh]
	 Total Energy              =    -799.8763002378262854 [Eh]

	 ================> DF-SCS-MP2 Energies <==================
	-----------------------------------------------------------
	 SCS Same-Spin Scale       =       0.3333333333333333 [-]
	 SCS Opposite-Spin Scale   =       1.2000000000000000 [-]
	 SCS Same-Spin Energy      =      -0.1660471594486993 [Eh]
	 SCS Opposite-Spin Energy  =      -1.8552876977340280 [Eh]
	 SCS Correlation Energy    =      -2.0213348571827274 [Eh]
	 SCS Total Energy          =    -799.8534205352178788 [Eh]
	-----------------------------------------------------------

  Dipole Moment: [D]
     X:    -0.0215      Y:     7.4433      Z:     0.0593     Total:     7.4436

*** Psi4 exiting successfully. Buy a developer a beer!
