                               Psi4 1.3.2 release

  ==> Input File <==

--------------------------------------------------------------------------
#psi4
#
memory 32 gb

molecule  {
-1 1
  P       -0.0010900    -1.0890910     0.0004590
  O       -1.2216798     0.0356449     0.5930239
  O        1.1506610    -0.0285350    -0.5585640
  O        0.5034080    -1.8082920     1.2241620
  O       -0.5057790    -1.8082590    -1.2231120
  C       -1.8201030     0.7715450    -0.4363210
  C        1.8136140     0.7766970     0.4358730
  C       -2.6746040     1.7890640     0.2877210
  C        2.6862580     1.7776730    -0.2896530
  H       -1.0739810     1.2667980    -1.0678550
  H       -2.4287840     0.1238470    -1.0755890
  H        1.0642060     1.2858700     1.0522800
  H        2.4084330     0.1312990     1.0903160
  H       -3.2148500     2.4129370    -0.4309050
  H       -3.4044660     1.2870150     0.9274370
  H       -2.0509410     2.4359130     0.9094240
  H        3.2222650     2.4062160     0.4280610
  H        3.4201870     1.2611760    -0.9129680
  H        2.0763540     2.4215040    -0.9279010
units angstrom
no_reorient  #important for SAPT in psi4, default
symmetry c1  #important for SAPT in psi4, default
}

set PROPERTIES_ORIGIN ["COM"]
properties('MP2/aug-cc-pvtz', properties = ['dipole'])
--------------------------------------------------------------------------

    Molecular point group: c1
  Charge       = -1
  Multiplicity = 1
  Basis Set: AUG-CC-PVTZ
    Blend: AUG-CC-PVTZ
  Basis Set: (AUG-CC-PVTZ AUX)
    Blend: AUG-CC-PVTZ-JKFIT

    Orbital Energies [Eh]
    ---------------------

    Doubly Occupied:

       1A    -79.891015     2A    -20.412172     3A    -20.401416
       4A    -20.313392     5A    -20.312678     6A    -11.148076
       7A    -11.133602     8A    -11.106972     9A    -11.095934
      10A     -7.405517    11A     -5.304207    12A     -5.303389
      13A     -5.302038    14A     -1.232322    15A     -1.189642
      16A     -1.108408    17A     -1.067006    18A     -0.895594
      19A     -0.879144    20A     -0.716679    21A     -0.702467
      22A     -0.600877    23A     -0.538237    24A     -0.527942
      25A     -0.506587    26A     -0.457977    27A     -0.450607
      28A     -0.441151    29A     -0.421578    30A     -0.419180
      31A     -0.402105    32A     -0.396458    33A     -0.368913
      34A     -0.357683    35A     -0.337276    36A     -0.307611
      37A     -0.297659    38A     -0.288394    39A     -0.270173
      40A     -0.258943    41A     -0.244868

  @DF-RHF Final Energy:  -797.82940683453012

   => Energetics <=

    Nuclear Repulsion Energy =            610.5544524215258662
    One-Electron Energy =               -2327.1359409073061215
    Two-Electron Energy =                 918.7520816512501369
    Total Energy =                       -797.8294068345301184
  Basis Set: (AUG-CC-PVTZ AUX)
    Blend: AUG-CC-PVTZ-RI
    Molecular point group: c1

    Geometry (in Angstrom), charge = -1, multiplicity = 1:

       Center              X                  Y                   Z               Mass
    ------------   -----------------  -----------------  -----------------  -----------------
         P            0.006274997187    -0.991490325671    -0.003108068959    30.973761998420
         O           -1.214314802813     0.133245574329     0.589456831041    15.994914619570
         O            1.158025997187     0.069065674329    -0.562131068959    15.994914619570
         O            0.510772997187    -1.710691325671     1.220594931041    15.994914619570
         O           -0.498414002813    -1.710658325671    -1.226679068959    15.994914619570
         C           -1.812738002813     0.869145674329    -0.439888068959    12.000000000000
         C            1.820978997187     0.874297674329     0.432305931041    12.000000000000
         C           -2.667239002813     1.886664674329     0.284153931041    12.000000000000
         C            2.693622997187     1.875273674329    -0.293220068959    12.000000000000
         H           -1.066616002813     1.364398674329    -1.071422068959     1.007825032230
         H           -2.421419002813     0.221447674329    -1.079156068959     1.007825032230
         H            1.071570997187     1.383470674329     1.048712931041     1.007825032230
         H            2.415797997187     0.228899674329     1.086748931041     1.007825032230
         H           -3.207485002813     2.510537674329    -0.434472068959     1.007825032230
         H           -3.397101002813     1.384615674329     0.923869931041     1.007825032230
         H           -2.043576002813     2.533513674329     0.905856931041     1.007825032230
         H            3.229629997187     2.503816674329     0.424493931041     1.007825032230
         H            3.427551997187     1.358776674329    -0.916535068959     1.007825032230
         H            2.083718997187     2.519104674329    -0.931468068959     1.007825032230

  Basis Set: AUG-CC-PVTZ
    Blend: AUG-CC-PVTZ
  Basis Set: (AUG-CC-PVTZ AUX)
    Blend: AUG-CC-PVTZ-JKFIT
	 Reference Energy          =    -797.8294068345301184 [Eh]
	 Singles Energy            =      -0.0000000000000000 [Eh]
	 Same-Spin Energy          =      -0.4992344471523443 [Eh]
	 Opposite-Spin Energy      =      -1.5481100238758883 [Eh]
	 Correlation Energy        =      -2.0473444710282327 [Eh]
	 Total Energy              =    -799.8767513055584004 [Eh]

	 ================> DF-SCS-MP2 Energies <==================
	-----------------------------------------------------------
	 SCS Same-Spin Scale       =       0.3333333333333333 [-]
	 SCS Opposite-Spin Scale   =       1.2000000000000000 [-]
	 SCS Same-Spin Energy      =      -0.1664114823841147 [Eh]
	 SCS Opposite-Spin Energy  =      -1.8577320286510659 [Eh]
	 SCS Correlation Energy    =      -2.0241435110351809 [Eh]
	 SCS Total Energy          =    -799.8535503455652815 [Eh]
	-----------------------------------------------------------

  Dipole Moment: [D]
     X:     0.5742      Y:     7.0132      Z:    -0.0597     Total:     7.0369

*** Psi4 exiting successfully. Buy a developer a beer!
