                               Psi4 1.3.2 release

  ==> Input File <==

--------------------------------------------------------------------------
#psi4
#
memory 32 gb

molecule  {
-1 1
  P       -0.0010900    -1.0890910     0.0004590
  O       -1.1524220    -0.0281740     0.5594010
  O        1.1506610    -0.0285350    -0.5585640
  O        0.5034080    -1.8082920     1.2241620
  O       -0.5057790    -1.8082590    -1.2231120
  C       -1.7274412     0.6605588    -0.2981332
  C        1.8136140     0.7766970     0.4358730
  C       -2.6746040     1.7890640     0.2877210
  C        2.6862580     1.7776730    -0.2896530
  H       -1.0739810     1.2667980    -1.0678550
  H       -2.4287840     0.1238470    -1.0755890
  H        1.0642060     1.2858700     1.0522800
  H        2.4084330     0.1312990     1.0903160
  H       -3.2148500     2.4129370    -0.4309050
  H       -3.4044660     1.2870150     0.9274370
  H       -2.0509410     2.4359130     0.9094240
  H        3.2222650     2.4062160     0.4280610
  H        3.4201870     1.2611760    -0.9129680
  H        2.0763540     2.4215040    -0.9279010
units angstrom
no_reorient  #important for SAPT in psi4, default
symmetry c1  #important for SAPT in psi4, default
}

set PROPERTIES_ORIGIN ["COM"]
properties('MP2/aug-cc-pvtz', properties = ['dipole'])
--------------------------------------------------------------------------

    Molecular point group: c1
  Charge       = -1
  Multiplicity = 1
  Basis Set: AUG-CC-PVTZ
    Blend: AUG-CC-PVTZ
  Basis Set: (AUG-CC-PVTZ AUX)
    Blend: AUG-CC-PVTZ-JKFIT

    Orbital Energies [Eh]
    ---------------------

    Doubly Occupied:

       1A    -79.892693     2A    -20.424452     3A    -20.412150
       4A    -20.313348     5A    -20.312597     6A    -11.152079
       7A    -11.149972     8A    -11.107353     9A    -11.097500
      10A     -7.408384    11A     -5.307344    12A     -5.306284
      13A     -5.304745    14A     -1.308957    15A     -1.215646
      16A     -1.112298    17A     -1.068442    18A     -0.896483
      19A     -0.866973    20A     -0.719740    21A     -0.713085
      22A     -0.623964    23A     -0.561396    24A     -0.537616
      25A     -0.509318    26A     -0.496366    27A     -0.455429
      28A     -0.449317    29A     -0.429521    30A     -0.425952
      31A     -0.410777    32A     -0.405152    33A     -0.368474
      34A     -0.349101    35A     -0.324526    36A     -0.302881
      37A     -0.292641    38A     -0.277146    39A     -0.266672
      40A     -0.260505    41A     -0.245432

  @DF-RHF Final Energy:  -797.80244497365004

   => Energetics <=

    Nuclear Repulsion Energy =            617.2479099562369811
    One-Electron Energy =               -2339.9352908029109130
    Two-Electron Energy =                 924.8849358730238919
    Total Energy =                       -797.8024449736500401
  Basis Set: (AUG-CC-PVTZ AUX)
    Blend: AUG-CC-PVTZ-RI
    Molecular point group: c1

    Geometry (in Angstrom), charge = -1, multiplicity = 1:

       Center              X                  Y                   Z               Mass
    ------------   -----------------  -----------------  -----------------  -----------------
         P           -0.008229936244    -0.976116957242    -0.010429809481    30.973761998420
         O           -1.159561936244     0.084800042758     0.548512190519    15.994914619570
         O            1.143521063756     0.084439042758    -0.569452809481    15.994914619570
         O            0.496268063756    -1.695317957242     1.213273190519    15.994914619570
         O           -0.512918936244    -1.695284957242    -1.234000809481    15.994914619570
         C           -1.734581136244     0.773532842758    -0.309022009481    12.000000000000
         C            1.806474063756     0.889671042758     0.424984190519    12.000000000000
         C           -2.681743936244     1.902038042758     0.276832190519    12.000000000000
         C            2.679118063756     1.890647042758    -0.300541809481    12.000000000000
         H           -1.081120936244     1.379772042758    -1.078743809481     1.007825032230
         H           -2.435923936244     0.236821042758    -1.086477809481     1.007825032230
         H            1.057066063756     1.398844042758     1.041391190519     1.007825032230
         H            2.401293063756     0.244273042758     1.079427190519     1.007825032230
         H           -3.221989936244     2.525911042758    -0.441793809481     1.007825032230
         H           -3.411605936244     1.399989042758     0.916548190519     1.007825032230
         H           -2.058080936244     2.548887042758     0.898535190519     1.007825032230
         H            3.215125063756     2.519190042758     0.417172190519     1.007825032230
         H            3.413047063756     1.374150042758    -0.923856809481     1.007825032230
         H            2.069214063756     2.534478042758    -0.938789809481     1.007825032230

  Basis Set: AUG-CC-PVTZ
    Blend: AUG-CC-PVTZ
  Basis Set: (AUG-CC-PVTZ AUX)
    Blend: AUG-CC-PVTZ-JKFIT
	 Reference Energy          =    -797.8024449736500401 [Eh]
	 Singles Energy            =      -0.0000000000000000 [Eh]
	 Same-Spin Energy          =      -0.4987874344741571 [Eh]
	 Opposite-Spin Energy      =      -1.5447490261005301 [Eh]
	 Correlation Energy        =      -2.0435364605746873 [Eh]
	 Total Energy              =    -799.8459814342247682 [Eh]

	 ================> DF-SCS-MP2 Energies <==================
	-----------------------------------------------------------
	 SCS Same-Spin Scale       =       0.3333333333333333 [-]
	 SCS Opposite-Spin Scale   =       1.2000000000000000 [-]
	 SCS Same-Spin Energy      =      -0.1662624781580524 [Eh]
	 SCS Opposite-Spin Energy  =      -1.8536988313206360 [Eh]
	 SCS Correlation Energy    =      -2.0199613094786883 [Eh]
	 SCS Total Energy          =    -799.8224062831287711 [Eh]
	-----------------------------------------------------------

  Dipole Moment: [D]
     X:     0.7784      Y:     6.7789      Z:     0.4526     Total:     6.8384

*** Psi4 exiting successfully. Buy a developer a beer!
