                               Psi4 1.3.2 release

  ==> Input File <==

--------------------------------------------------------------------------
#psi4
#
memory 32 gb

molecule  {
-1 1
  P       -0.0010900    -1.0890910     0.0004590
  O       -1.1524220    -0.0281740     0.5594010
  O        1.1506610    -0.0285350    -0.5585640
  O        0.5170762    -1.7380335     1.2572783
  O       -0.5194261    -1.7380031    -1.2562352
  C       -1.8201030     0.7715450    -0.4363210
  C        1.8136140     0.7766970     0.4358730
  C       -2.6746040     1.7890640     0.2877210
  C        2.6862580     1.7776730    -0.2896530
  H       -1.0739810     1.2667980    -1.0678550
  H       -2.4287840     0.1238470    -1.0755890
  H        1.0642060     1.2858700     1.0522800
  H        2.4084330     0.1312990     1.0903160
  H       -3.2148500     2.4129370    -0.4309050
  H       -3.4044660     1.2870150     0.9274370
  H       -2.0509410     2.4359130     0.9094240
  H        3.2222650     2.4062160     0.4280610
  H        3.4201870     1.2611760    -0.9129680
  H        2.0763540     2.4215040    -0.9279010
units angstrom
no_reorient  #important for SAPT in psi4, default
symmetry c1  #important for SAPT in psi4, default
}

set PROPERTIES_ORIGIN ["COM"]
properties('MP2/aug-cc-pvtz', properties = ['dipole'])
--------------------------------------------------------------------------

    Molecular point group: c1
  Charge       = -1
  Multiplicity = 1
  Basis Set: AUG-CC-PVTZ
    Blend: AUG-CC-PVTZ
  Basis Set: (AUG-CC-PVTZ AUX)
    Blend: AUG-CC-PVTZ-JKFIT

    Orbital Energies [Eh]
    ---------------------

    Doubly Occupied:

       1A    -79.880534     2A    -20.399891     3A    -20.399874
       4A    -20.308603     5A    -20.308567     6A    -11.141290
       7A    -11.141247     8A    -11.102502     9A    -11.102467
      10A     -7.395995    11A     -5.294861    12A     -5.294202
      13A     -5.292458    14A     -1.232868    15A     -1.183762
      16A     -1.099703    17A     -1.066779    18A     -0.891653
      19A     -0.887816    20A     -0.711112    21A     -0.709750
      22A     -0.596460    23A     -0.536643    24A     -0.526186
      25A     -0.503972    26A     -0.455798    27A     -0.448293
      28A     -0.441458    29A     -0.421491    30A     -0.420478
      31A     -0.399330    32A     -0.396359    33A     -0.368458
      34A     -0.357790    35A     -0.330602    36A     -0.304108
      37A     -0.301963    38A     -0.285959    39A     -0.266670
      40A     -0.256219    41A     -0.243308

  @DF-RHF Final Energy:  -797.83747897783678

   => Energetics <=

    Nuclear Repulsion Energy =            614.2224584036234774
    One-Electron Energy =               -2334.7049198741337932
    Two-Electron Energy =                 922.6449824926735346
    Total Energy =                       -797.8374789778367813
  Basis Set: (AUG-CC-PVTZ AUX)
    Blend: AUG-CC-PVTZ-RI
    Molecular point group: c1

    Geometry (in Angstrom), charge = -1, multiplicity = 1:

       Center              X                  Y                   Z               Mass
    ------------   -----------------  -----------------  -----------------  -----------------
         P           -0.000966053536    -0.999506561577     0.000406927491    30.973761998420
         O           -1.152298053536     0.061410438423     0.559348927491    15.994914619570
         O            1.150784946464     0.061049438423    -0.558616072509    15.994914619570
         O            0.517200146464    -1.648449061577     1.257226227491    15.994914619570
         O           -0.519302153536    -1.648418661577    -1.256287272509    15.994914619570
         C           -1.819979053536     0.861129438423    -0.436373072509    12.000000000000
         C            1.813737946464     0.866281438423     0.435820927491    12.000000000000
         C           -2.674480053536     1.878648438423     0.287668927491    12.000000000000
         C            2.686381946464     1.867257438423    -0.289705072509    12.000000000000
         H           -1.073857053536     1.356382438423    -1.067907072509     1.007825032230
         H           -2.428660053536     0.213431438423    -1.075641072509     1.007825032230
         H            1.064329946464     1.375454438423     1.052227927491     1.007825032230
         H            2.408556946464     0.220883438423     1.090263927491     1.007825032230
         H           -3.214726053536     2.502521438423    -0.430957072509     1.007825032230
         H           -3.404342053536     1.376599438423     0.927384927491     1.007825032230
         H           -2.050817053536     2.525497438423     0.909371927491     1.007825032230
         H            3.222388946464     2.495800438423     0.428008927491     1.007825032230
         H            3.420310946464     1.350760438423    -0.913020072509     1.007825032230
         H            2.076477946464     2.511088438423    -0.927953072509     1.007825032230

  Basis Set: AUG-CC-PVTZ
    Blend: AUG-CC-PVTZ
  Basis Set: (AUG-CC-PVTZ AUX)
    Blend: AUG-CC-PVTZ-JKFIT
	 Reference Energy          =    -797.8374789778367813 [Eh]
	 Singles Energy            =      -0.0000000000000000 [Eh]
	 Same-Spin Energy          =      -0.4983274381099388 [Eh]
	 Opposite-Spin Energy      =      -1.5458352591972710 [Eh]
	 Correlation Energy        =      -2.0441626973072098 [Eh]
	 Total Energy              =    -799.8816416751440102 [Eh]

	 ================> DF-SCS-MP2 Energies <==================
	-----------------------------------------------------------
	 SCS Same-Spin Scale       =       0.3333333333333333 [-]
	 SCS Opposite-Spin Scale   =       1.2000000000000000 [-]
	 SCS Same-Spin Energy      =      -0.1661091460366463 [Eh]
	 SCS Opposite-Spin Energy  =      -1.8550023110367251 [Eh]
	 SCS Correlation Energy    =      -2.0211114570733715 [Eh]
	 SCS Total Energy          =    -799.8585904349101838 [Eh]
	-----------------------------------------------------------

  Dipole Moment: [D]
     X:    -0.0008      Y:     7.0234      Z:    -0.0033     Total:     7.0234

*** Psi4 exiting successfully. Buy a developer a beer!
