                               Psi4 1.3.2 release

  ==> Input File <==

--------------------------------------------------------------------------
#psi4
#
memory 32 gb

molecule  {
-1 1
  P       -0.0010900    -1.0890910     0.0004590
  O       -1.1524220    -0.0281740     0.5594010
  O        1.1506610    -0.0285350    -0.5585640
  O        0.5034080    -1.8082920     1.2241620
  O       -0.5057790    -1.8082590    -1.2231120
  C       -1.8201030     0.7715450    -0.4363210
  C        1.8136140     0.7766970     0.4358730
  C       -2.6746040     1.7890640     0.2877210
  C        2.6862580     1.7776730    -0.2896530
  H       -1.0739810     1.2667980    -1.0678550
  H       -2.4287840     0.1238470    -1.0755890
  H        1.0642060     1.2858700     1.0522800
  H        2.4084330     0.1312990     1.0903160
  H       -3.2148500     2.4129370    -0.4309050
  H       -3.4044660     1.2870150     0.9274370
  H       -2.0509410     2.4359130     0.9094240
  H        3.2222650     2.4062160     0.4280610
  H        3.4201870     1.2611760    -0.9129680
  H        2.0763540     2.4215040    -0.9279010
units angstrom
no_reorient  #important for SAPT in psi4, default
symmetry c1  #important for SAPT in psi4, default
}

set PROPERTIES_ORIGIN ["COM"]
properties('MP2/aug-cc-pvtz', properties = ['dipole'])
--------------------------------------------------------------------------

    Molecular point group: c1
  Charge       = -1
  Multiplicity = 1
  Basis Set: AUG-CC-PVTZ
    Blend: AUG-CC-PVTZ
  Basis Set: (AUG-CC-PVTZ AUX)
    Blend: AUG-CC-PVTZ-JKFIT

    Orbital Energies [Eh]
    ---------------------

    Doubly Occupied:

       1A    -79.879264     2A    -20.404629     3A    -20.404614
       4A    -20.303697     5A    -20.303660     6A    -11.144930
       7A    -11.144892     8A    -11.104954     9A    -11.104916
      10A     -7.394786    11A     -5.293646    12A     -5.292756
      13A     -5.291384    14A     -1.235139    15A     -1.187768
      16A     -1.099197    17A     -1.059431    18A     -0.894600
      19A     -0.890637    20A     -0.714097    21A     -0.713001
      22A     -0.599889    23A     -0.539026    24A     -0.529324
      25A     -0.507022    26A     -0.458351    27A     -0.449246
      28A     -0.442504    29A     -0.423462    30A     -0.422898
      31A     -0.400921    32A     -0.399059    33A     -0.367059
      34A     -0.360840    35A     -0.330576    36A     -0.307744
      37A     -0.305687    38A     -0.284306    39A     -0.266691
      40A     -0.250833    41A     -0.236453

  @DF-RHF Final Energy:  -797.83868351455294

   => Energetics <=

    Nuclear Repulsion Energy =            613.0939177675368228
    One-Electron Energy =               -2332.3774197065345106
    Two-Electron Energy =                 921.4448184244447475
    Total Energy =                       -797.8386835145529403
  Basis Set: (AUG-CC-PVTZ AUX)
    Blend: AUG-CC-PVTZ-RI
    Molecular point group: c1

    Geometry (in Angstrom), charge = -1, multiplicity = 1:

       Center              X                  Y                   Z               Mass
    ------------   -----------------  -----------------  -----------------  -----------------
         P           -0.000963848158    -0.984819955732     0.000406206301    30.973761998420
         O           -1.152295848158     0.076097044268     0.559348206301    15.994914619570
         O            1.150787151842     0.075736044268    -0.558616793699    15.994914619570
         O            0.503534151842    -1.704020955732     1.224109206301    15.994914619570
         O           -0.505652848158    -1.703987955732    -1.223164793699    15.994914619570
         C           -1.819976848158     0.875816044268    -0.436373793699    12.000000000000
         C            1.813740151842     0.880968044268     0.435820206301    12.000000000000
         C           -2.674477848158     1.893335044268     0.287668206301    12.000000000000
         C            2.686384151842     1.881944044268    -0.289705793699    12.000000000000
         H           -1.073854848158     1.371069044268    -1.067907793699     1.007825032230
         H           -2.428657848158     0.228118044268    -1.075641793699     1.007825032230
         H            1.064332151842     1.390141044268     1.052227206301     1.007825032230
         H            2.408559151842     0.235570044268     1.090263206301     1.007825032230
         H           -3.214723848158     2.517208044268    -0.430957793699     1.007825032230
         H           -3.404339848158     1.391286044268     0.927384206301     1.007825032230
         H           -2.050814848158     2.540184044268     0.909371206301     1.007825032230
         H            3.222391151842     2.510487044268     0.428008206301     1.007825032230
         H            3.420313151842     1.365447044268    -0.913020793699     1.007825032230
         H            2.076480151842     2.525775044268    -0.927953793699     1.007825032230

  Basis Set: AUG-CC-PVTZ
    Blend: AUG-CC-PVTZ
  Basis Set: (AUG-CC-PVTZ AUX)
    Blend: AUG-CC-PVTZ-JKFIT
	 Reference Energy          =    -797.8386835145529403 [Eh]
	 Singles Energy            =      -0.0000000000000000 [Eh]
	 Same-Spin Energy          =      -0.4979115290870640 [Eh]
	 Opposite-Spin Energy      =      -1.5451195011981949 [Eh]
	 Correlation Energy        =      -2.0430310302852588 [Eh]
	 Total Energy              =    -799.8817145448382462 [Eh]

	 ================> DF-SCS-MP2 Energies <==================
	-----------------------------------------------------------
	 SCS Same-Spin Scale       =       0.3333333333333333 [-]
	 SCS Opposite-Spin Scale   =       1.2000000000000000 [-]
	 SCS Same-Spin Energy      =      -0.1659705096956880 [Eh]
	 SCS Opposite-Spin Energy  =      -1.8541434014378337 [Eh]
	 SCS Correlation Energy    =      -2.0201139111335218 [Eh]
	 SCS Total Energy          =    -799.8587974256864754 [Eh]
	-----------------------------------------------------------

  Dipole Moment: [D]
     X:    -0.0006      Y:     7.4996      Z:    -0.0034     Total:     7.4996

*** Psi4 exiting successfully. Buy a developer a beer!
