                               Psi4 1.3.2 release

  ==> Input File <==

--------------------------------------------------------------------------
#psi4
#
memory 32 gb

molecule  {
-1 1
  P       -0.0010900    -1.0890910     0.0004590
  O       -1.1476630    -0.0376369     0.5864121
  O        1.1506610    -0.0285350    -0.5585640
  O        0.4868612    -1.7942183     1.2389728
  O       -0.5057790    -1.8082590    -1.2231120
  C       -1.8201030     0.7715450    -0.4363210
  C        1.8136140     0.7766970     0.4358730
  C       -2.6746040     1.7890640     0.2877210
  C        2.6862580     1.7776730    -0.2896530
  H       -1.0739810     1.2667980    -1.0678550
  H       -2.4287840     0.1238470    -1.0755890
  H        1.0642060     1.2858700     1.0522800
  H        2.4084330     0.1312990     1.0903160
  H       -3.2148500     2.4129370    -0.4309050
  H       -3.4044660     1.2870150     0.9274370
  H       -2.0509410     2.4359130     0.9094240
  H        3.2222650     2.4062160     0.4280610
  H        3.4201870     1.2611760    -0.9129680
  H        2.0763540     2.4215040    -0.9279010
units angstrom
no_reorient  #important for SAPT in psi4, default
symmetry c1  #important for SAPT in psi4, default
}

set PROPERTIES_ORIGIN ["COM"]
properties('MP2/aug-cc-pvtz', properties = ['dipole'])
--------------------------------------------------------------------------

    Molecular point group: c1
  Charge       = -1
  Multiplicity = 1
  Basis Set: AUG-CC-PVTZ
    Blend: AUG-CC-PVTZ
  Basis Set: (AUG-CC-PVTZ AUX)
    Blend: AUG-CC-PVTZ-JKFIT

    Orbital Energies [Eh]
    ---------------------

    Doubly Occupied:

       1A    -79.878220     2A    -20.405094     3A    -20.404537
       4A    -20.305032     5A    -20.301207     6A    -11.146698
       7A    -11.144724     8A    -11.105544     9A    -11.104913
      10A     -7.393810    11A     -5.292641    12A     -5.291817
      13A     -5.290392    14A     -1.232116    15A     -1.183316
      16A     -1.097620    17A     -1.059257    18A     -0.894880
      19A     -0.891119    20A     -0.713524    21A     -0.712671
      22A     -0.597614    23A     -0.536622    24A     -0.527931
      25A     -0.506225    26A     -0.456638    27A     -0.449595
      28A     -0.440788    29A     -0.423090    30A     -0.421398
      31A     -0.399728    32A     -0.398082    33A     -0.367076
      34A     -0.361822    35A     -0.330915    36A     -0.308900
      37A     -0.306431    38A     -0.283531    39A     -0.265893
      40A     -0.250260    41A     -0.236103

  @DF-RHF Final Energy:  -797.83630508254032

   => Energetics <=

    Nuclear Repulsion Energy =            612.7379681159234224
    One-Electron Energy =               -2331.7129922906910906
    Two-Electron Energy =                 921.1387190922273476
    Total Energy =                       -797.8363050825403207
  Basis Set: (AUG-CC-PVTZ AUX)
    Blend: AUG-CC-PVTZ-RI
    Molecular point group: c1

    Geometry (in Angstrom), charge = -1, multiplicity = 1:

       Center              X                  Y                   Z               Mass
    ------------   -----------------  -----------------  -----------------  -----------------
         P            0.000268216118    -0.985301877886    -0.003965030817    30.973761998420
         O           -1.146304783882     0.066152222114     0.581988069183    15.994914619570
         O            1.152019216118     0.075254122114    -0.562988030817    15.994914619570
         O            0.488219416118    -1.690429177886     1.234548769183    15.994914619570
         O           -0.504420783882    -1.704469877886    -1.227536030817    15.994914619570
         C           -1.818744783882     0.875334122114    -0.440745030817    12.000000000000
         C            1.814972216118     0.880486122114     0.431448969183    12.000000000000
         C           -2.673245783882     1.892853122114     0.283296969183    12.000000000000
         C            2.687616216118     1.881462122114    -0.294077030817    12.000000000000
         H           -1.072622783882     1.370587122114    -1.072279030817     1.007825032230
         H           -2.427425783882     0.227636122114    -1.080013030817     1.007825032230
         H            1.065564216118     1.389659122114     1.047855969183     1.007825032230
         H            2.409791216118     0.235088122114     1.085891969183     1.007825032230
         H           -3.213491783882     2.516726122114    -0.435329030817     1.007825032230
         H           -3.403107783882     1.390804122114     0.923012969183     1.007825032230
         H           -2.049582783882     2.539702122114     0.904999969183     1.007825032230
         H            3.223623216118     2.510005122114     0.423636969183     1.007825032230
         H            3.421545216118     1.364965122114    -0.917392030817     1.007825032230
         H            2.077712216118     2.525293122114    -0.932325030817     1.007825032230

  Basis Set: AUG-CC-PVTZ
    Blend: AUG-CC-PVTZ
  Basis Set: (AUG-CC-PVTZ AUX)
    Blend: AUG-CC-PVTZ-JKFIT
	 Reference Energy          =    -797.8363050825403207 [Eh]
	 Singles Energy            =      -0.0000000000000000 [Eh]
	 Same-Spin Energy          =      -0.4981553944984265 [Eh]
	 Opposite-Spin Energy      =      -1.5460113694027131 [Eh]
	 Correlation Energy        =      -2.0441667639011394 [Eh]
	 Total Energy              =    -799.8804718464414236 [Eh]

	 ================> DF-SCS-MP2 Energies <==================
	-----------------------------------------------------------
	 SCS Same-Spin Scale       =       0.3333333333333333 [-]
	 SCS Opposite-Spin Scale   =       1.2000000000000000 [-]
	 SCS Same-Spin Energy      =      -0.1660517981661422 [Eh]
	 SCS Opposite-Spin Energy  =      -1.8552136432832556 [Eh]
	 SCS Correlation Energy    =      -2.0212654414493976 [Eh]
	 SCS Total Energy          =    -799.8575705239896934 [Eh]
	-----------------------------------------------------------

  Dipole Moment: [D]
     X:    -0.0070      Y:     7.5168      Z:    -0.1137     Total:     7.5177

*** Psi4 exiting successfully. Buy a developer a beer!
