                               Psi4 1.3.2 release

  ==> Input File <==

--------------------------------------------------------------------------
#psi4
#
memory 32 gb

molecule  {
-1 1
  P       -0.0010900    -1.0890910     0.0004590
  O       -1.1500862    -0.0328652     0.5729284
  O        1.1506610    -0.0285350    -0.5585640
  O        0.4951535    -1.8012823     1.2316143
  O       -0.5057790    -1.8082590    -1.2231120
  C       -1.8201030     0.7715450    -0.4363210
  C        1.8136140     0.7766970     0.4358730
  C       -2.6746040     1.7890640     0.2877210
  C        2.6862580     1.7776730    -0.2896530
  H       -1.0739810     1.2667980    -1.0678550
  H       -2.4287840     0.1238470    -1.0755890
  H        1.0642060     1.2858700     1.0522800
  H        2.4084330     0.1312990     1.0903160
  H       -3.2148500     2.4129370    -0.4309050
  H       -3.4044660     1.2870150     0.9274370
  H       -2.0509410     2.4359130     0.9094240
  H        3.2222650     2.4062160     0.4280610
  H        3.4201870     1.2611760    -0.9129680
  H        2.0763540     2.4215040    -0.9279010
units angstrom
no_reorient  #important for SAPT in psi4, default
symmetry c1  #important for SAPT in psi4, default
}

set PROPERTIES_ORIGIN ["COM"]
properties('MP2/aug-cc-pvtz', properties = ['dipole'])
--------------------------------------------------------------------------

    Molecular point group: c1
  Charge       = -1
  Multiplicity = 1
  Basis Set: AUG-CC-PVTZ
    Blend: AUG-CC-PVTZ
  Basis Set: (AUG-CC-PVTZ AUX)
    Blend: AUG-CC-PVTZ-JKFIT

    Orbital Energies [Eh]
    ---------------------

    Doubly Occupied:

       1A    -79.878726     2A    -20.404852     3A    -20.404596
       4A    -20.304361     5A    -20.302432     6A    -11.145828
       7A    -11.144804     8A    -11.105257     9A    -11.104913
      10A     -7.394283    11A     -5.293128    12A     -5.292272
      13A     -5.290874    14A     -1.233527    15A     -1.185571
      16A     -1.098409    17A     -1.059357    18A     -0.894731
      19A     -0.890891    20A     -0.713739    21A     -0.712877
      22A     -0.598734    23A     -0.537822    24A     -0.528621
      25A     -0.506621    26A     -0.457412    27A     -0.449410
      28A     -0.441669    29A     -0.423246    30A     -0.422202
      31A     -0.400303    32A     -0.398606    33A     -0.367070
      34A     -0.361339    35A     -0.330766    36A     -0.308248
      37A     -0.306172    38A     -0.283919    39A     -0.266252
      40A     -0.250609    41A     -0.236296

  @DF-RHF Final Energy:  -797.83765964290149

   => Energetics <=

    Nuclear Repulsion Energy =            612.9136046807074081
    One-Electron Energy =               -2332.0410393305728576
    Two-Electron Energy =                 921.2897750069638505
    Total Energy =                       -797.8376596429014853
  Basis Set: (AUG-CC-PVTZ AUX)
    Blend: AUG-CC-PVTZ-RI
    Molecular point group: c1

    Geometry (in Angstrom), charge = -1, multiplicity = 1:

       Center              X                  Y                   Z               Mass
    ------------   -----------------  -----------------  -----------------  -----------------
         P           -0.000345223917    -0.985062286025    -0.001786598028    30.973761998420
         O           -1.149341423917     0.071163513975     0.570682801972    15.994914619570
         O            1.151405776083     0.075493713975    -0.560809598028    15.994914619570
         O            0.495898276083    -1.697253586025     1.229368701972    15.994914619570
         O           -0.505034223917    -1.704230286025    -1.225357598028    15.994914619570
         C           -1.819358223917     0.875573713975    -0.438566598028    12.000000000000
         C            1.814358776083     0.880725713975     0.433627401972    12.000000000000
         C           -2.673859223917     1.893092713975     0.285475401972    12.000000000000
         C            2.687002776083     1.881701713975    -0.291898598028    12.000000000000
         H           -1.073236223917     1.370826713975    -1.070100598028     1.007825032230
         H           -2.428039223917     0.227875713975    -1.077834598028     1.007825032230
         H            1.064950776083     1.389898713975     1.050034401972     1.007825032230
         H            2.409177776083     0.235327713975     1.088070401972     1.007825032230
         H           -3.214105223917     2.516965713975    -0.433150598028     1.007825032230
         H           -3.403721223917     1.391043713975     0.925191401972     1.007825032230
         H           -2.050196223917     2.539941713975     0.907178401972     1.007825032230
         H            3.223009776083     2.510244713975     0.425815401972     1.007825032230
         H            3.420931776083     1.365204713975    -0.915213598028     1.007825032230
         H            2.077098776083     2.525532713975    -0.930146598028     1.007825032230

  Basis Set: AUG-CC-PVTZ
    Blend: AUG-CC-PVTZ
  Basis Set: (AUG-CC-PVTZ AUX)
    Blend: AUG-CC-PVTZ-JKFIT
	 Reference Energy          =    -797.8376596429014853 [Eh]
	 Singles Energy            =      -0.0000000000000000 [Eh]
	 Same-Spin Energy          =      -0.4980259424131692 [Eh]
	 Opposite-Spin Energy      =      -1.5455498066954894 [Eh]
	 Correlation Energy        =      -2.0435757491086584 [Eh]
	 Total Energy              =    -799.8812353920101259 [Eh]

	 ================> DF-SCS-MP2 Energies <==================
	-----------------------------------------------------------
	 SCS Same-Spin Scale       =       0.3333333333333333 [-]
	 SCS Opposite-Spin Scale   =       1.2000000000000000 [-]
	 SCS Same-Spin Energy      =      -0.1660086474710564 [Eh]
	 SCS Opposite-Spin Energy  =      -1.8546597680345871 [Eh]
	 SCS Correlation Energy    =      -2.0206684155056434 [Eh]
	 SCS Total Energy          =    -799.8583280584070963 [Eh]
	-----------------------------------------------------------

  Dipole Moment: [D]
     X:    -0.0046      Y:     7.5090      Z:    -0.0592     Total:     7.5092

*** Psi4 exiting successfully. Buy a developer a beer!
