                               Psi4 1.3.2 release

  ==> Input File <==

--------------------------------------------------------------------------
#psi4
#
memory 32 gb

molecule  {
-1 1
  P       -0.0010900    -1.0890910     0.0004590
  O       -1.1612603    -0.0321842     0.5486188
  O        1.1506610    -0.0285350    -0.5585640
  O        0.5034080    -1.8082920     1.2241620
  O       -0.5170851    -1.8016037    -1.2222897
  C       -1.8201030     0.7715450    -0.4363210
  C        1.8136140     0.7766970     0.4358730
  C       -2.6746040     1.7890640     0.2877210
  C        2.6862580     1.7776730    -0.2896530
  H       -1.0739810     1.2667980    -1.0678550
  H       -2.4287840     0.1238470    -1.0755890
  H        1.0642060     1.2858700     1.0522800
  H        2.4084330     0.1312990     1.0903160
  H       -3.2148500     2.4129370    -0.4309050
  H       -3.4044660     1.2870150     0.9274370
  H       -2.0509410     2.4359130     0.9094240
  H        3.2222650     2.4062160     0.4280610
  H        3.4201870     1.2611760    -0.9129680
  H        2.0763540     2.4215040    -0.9279010
units angstrom
no_reorient  #important for SAPT in psi4, default
symmetry c1  #important for SAPT in psi4, default
}

set PROPERTIES_ORIGIN ["COM"]
properties('MP2/aug-cc-pvtz', properties = ['dipole'])
--------------------------------------------------------------------------

    Molecular point group: c1
  Charge       = -1
  Multiplicity = 1
  Basis Set: AUG-CC-PVTZ
    Blend: AUG-CC-PVTZ
  Basis Set: (AUG-CC-PVTZ AUX)
    Blend: AUG-CC-PVTZ-JKFIT

    Orbital Energies [Eh]
    ---------------------

    Doubly Occupied:

       1A    -79.879747     2A    -20.405356     3A    -20.403350
       4A    -20.304992     5A    -20.303175     6A    -11.145449
       7A    -11.143442     8A    -11.105242     9A    -11.104213
      10A     -7.395232    11A     -5.294097    12A     -5.293220
      13A     -5.291816    14A     -1.236166    15A     -1.189276
      16A     -1.099639    17A     -1.059943    18A     -0.894456
      19A     -0.890244    20A     -0.714379    21A     -0.712793
      22A     -0.600488    23A     -0.539838    24A     -0.529539
      25A     -0.507324    26A     -0.458906    27A     -0.449099
      28A     -0.443073    29A     -0.423652    30A     -0.423211
      31A     -0.401163    32A     -0.399356    33A     -0.367259
      34A     -0.360349    35A     -0.330288    36A     -0.307589
      37A     -0.304909    38A     -0.284526    39A     -0.266909
      40A     -0.251177    41A     -0.236984

  @DF-RHF Final Energy:  -797.83923697486000

   => Energetics <=

    Nuclear Repulsion Energy =            613.2531884494623000
    One-Electron Energy =               -2332.6811246452002706
    Two-Electron Energy =                 921.5886992208778565
    Total Energy =                       -797.8392369748600004
  Basis Set: (AUG-CC-PVTZ AUX)
    Blend: AUG-CC-PVTZ-RI
    Molecular point group: c1

    Geometry (in Angstrom), charge = -1, multiplicity = 1:

       Center              X                  Y                   Z               Mass
    ------------   -----------------  -----------------  -----------------  -----------------
         P            0.001141650373    -0.985096422352     0.001447217938    30.973761998420
         O           -1.159028649627     0.071810377648     0.549607017938    15.994914619570
         O            1.152892650373     0.075459577648    -0.557575782062    15.994914619570
         O            0.505639650373    -1.704297422352     1.225150217938    15.994914619570
         O           -0.514853449627    -1.697609122352    -1.221301482062    15.994914619570
         C           -1.817871349627     0.875539577648    -0.435332782062    12.000000000000
         C            1.815845650373     0.880691577648     0.436861217938    12.000000000000
         C           -2.672372349627     1.893058577648     0.288709217938    12.000000000000
         C            2.688489650373     1.881667577648    -0.288664782062    12.000000000000
         H           -1.071749349627     1.370792577648    -1.066866782062     1.007825032230
         H           -2.426552349627     0.227841577648    -1.074600782062     1.007825032230
         H            1.066437650373     1.389864577648     1.053268217938     1.007825032230
         H            2.410664650373     0.235293577648     1.091304217938     1.007825032230
         H           -3.212618349627     2.516931577648    -0.429916782062     1.007825032230
         H           -3.402234349627     1.391009577648     0.928425217938     1.007825032230
         H           -2.048709349627     2.539907577648     0.910412217938     1.007825032230
         H            3.224496650373     2.510210577648     0.429049217938     1.007825032230
         H            3.422418650373     1.365170577648    -0.911979782062     1.007825032230
         H            2.078585650373     2.525498577648    -0.926912782062     1.007825032230

  Basis Set: AUG-CC-PVTZ
    Blend: AUG-CC-PVTZ
  Basis Set: (AUG-CC-PVTZ AUX)
    Blend: AUG-CC-PVTZ-JKFIT
	 Reference Energy          =    -797.8392369748600004 [Eh]
	 Singles Energy            =      -0.0000000000000000 [Eh]
	 Same-Spin Energy          =      -0.4978504307043674 [Eh]
	 Opposite-Spin Energy      =      -1.5448522059086145 [Eh]
	 Correlation Energy        =      -2.0427026366129817 [Eh]
	 Total Energy              =    -799.8819396114729443 [Eh]

	 ================> DF-SCS-MP2 Energies <==================
	-----------------------------------------------------------
	 SCS Same-Spin Scale       =       0.3333333333333333 [-]
	 SCS Opposite-Spin Scale   =       1.2000000000000000 [-]
	 SCS Same-Spin Energy      =      -0.1659501435681224 [Eh]
	 SCS Opposite-Spin Energy  =      -1.8538226470903374 [Eh]
	 SCS Correlation Energy    =      -2.0197727906584597 [Eh]
	 SCS Total Energy          =    -799.8590097655184081 [Eh]
	-----------------------------------------------------------

  Dipole Moment: [D]
     X:     0.0765      Y:     7.4690      Z:     0.0276     Total:     7.4694

*** Psi4 exiting successfully. Buy a developer a beer!
