                               Psi4 1.3.2 release

  ==> Input File <==

--------------------------------------------------------------------------
#psi4
#
memory 32 gb

molecule  {
-1 1
  P       -0.0010900    -1.0890910     0.0004590
  O       -1.1524220    -0.0281740     0.5594010
  O        1.1506610    -0.0285350    -0.5585640
  O        0.5034080    -1.8082920     1.2241620
  O       -0.5057790    -1.8082590    -1.2231120
  C       -1.8201030     0.7715450    -0.4363210
  C        1.8136140     0.7766970     0.4358730
  C       -2.6746040     1.7890640     0.2877210
  C        2.6862580     1.7776730    -0.2896530
  H       -1.2101577     1.1764080    -0.9525920
  H       -2.4287840     0.1238470    -1.0755890
  H        1.0642060     1.2858700     1.0522800
  H        2.4084330     0.1312990     1.0903160
  H       -3.2148500     2.4129370    -0.4309050
  H       -3.4044660     1.2870150     0.9274370
  H       -2.0509410     2.4359130     0.9094240
  H        3.2222650     2.4062160     0.4280610
  H        3.4201870     1.2611760    -0.9129680
  H        2.0763540     2.4215040    -0.9279010
units angstrom
no_reorient  #important for SAPT in psi4, default
symmetry c1  #important for SAPT in psi4, default
}

set PROPERTIES_ORIGIN ["COM"]
properties('MP2/aug-cc-pvtz', properties = ['dipole'])
--------------------------------------------------------------------------

    Molecular point group: c1
  Charge       = -1
  Multiplicity = 1
  Basis Set: AUG-CC-PVTZ
    Blend: AUG-CC-PVTZ
  Basis Set: (AUG-CC-PVTZ AUX)
    Blend: AUG-CC-PVTZ-JKFIT

    Orbital Energies [Eh]
    ---------------------

    Doubly Occupied:

       1A    -79.878568     2A    -20.404763     3A    -20.401505
       4A    -20.303450     5A    -20.303018     6A    -11.144984
       7A    -11.119927     8A    -11.105104     9A    -11.103721
      10A     -7.394088    11A     -5.292941    12A     -5.292057
      13A     -5.290699    14A     -1.234668    15A     -1.187378
      16A     -1.098912    17A     -1.059015    18A     -0.901711
      19A     -0.892333    20A     -0.739090    21A     -0.713674
      22A     -0.605939    23A     -0.541874    24A     -0.533846
      25A     -0.514835    26A     -0.457652    27A     -0.448917
      28A     -0.442093    29A     -0.423529    30A     -0.422289
      31A     -0.405929    32A     -0.400429    33A     -0.366748
      34A     -0.366209    35A     -0.330836    36A     -0.312152
      37A     -0.305808    38A     -0.283795    39A     -0.266035
      40A     -0.250359    41A     -0.236026

  @DF-RHF Final Energy:  -797.80563903124232

   => Energetics <=

    Nuclear Repulsion Energy =            614.0735307431783667
    One-Electron Energy =               -2334.2045248973217895
    Two-Electron Energy =                 922.3253551229012146
    Total Energy =                       -797.8056390312423218
  Basis Set: (AUG-CC-PVTZ AUX)
    Blend: AUG-CC-PVTZ-RI
    Molecular point group: c1

    Geometry (in Angstrom), charge = -1, multiplicity = 1:

       Center              X                  Y                   Z               Mass
    ------------   -----------------  -----------------  -----------------  -----------------
         P           -0.000067025387    -0.984224671735    -0.000352884520    30.973761998420
         O           -1.151399025387     0.076692328265     0.558589115480    15.994914619570
         O            1.151683974613     0.076331328265    -0.559375884520    15.994914619570
         O            0.504430974613    -1.703425671735     1.223350115480    15.994914619570
         O           -0.504756025387    -1.703392671735    -1.223923884520    15.994914619570
         C           -1.819080025387     0.876411328265    -0.437132884520    12.000000000000
         C            1.814636974613     0.881563328265     0.435061115480    12.000000000000
         C           -2.673581025387     1.893930328265     0.286909115480    12.000000000000
         C            2.687280974613     1.882539328265    -0.290464884520    12.000000000000
         H           -1.209134725387     1.281274328265    -0.953403884520     1.007825032230
         H           -2.427761025387     0.228713328265    -1.076400884520     1.007825032230
         H            1.065228974613     1.390736328265     1.051468115480     1.007825032230
         H            2.409455974613     0.236165328265     1.089504115480     1.007825032230
         H           -3.213827025387     2.517803328265    -0.431716884520     1.007825032230
         H           -3.403443025387     1.391881328265     0.926625115480     1.007825032230
         H           -2.049918025387     2.540779328265     0.908612115480     1.007825032230
         H            3.223287974613     2.511082328265     0.427249115480     1.007825032230
         H            3.421209974613     1.366042328265    -0.913779884520     1.007825032230
         H            2.077376974613     2.526370328265    -0.928712884520     1.007825032230

  Basis Set: AUG-CC-PVTZ
    Blend: AUG-CC-PVTZ
  Basis Set: (AUG-CC-PVTZ AUX)
    Blend: AUG-CC-PVTZ-JKFIT
	 Reference Energy          =    -797.8056390312423218 [Eh]
	 Singles Energy            =      -0.0000000000000000 [Eh]
	 Same-Spin Energy          =      -0.4976708835699945 [Eh]
	 Opposite-Spin Energy      =      -1.5441683873575207 [Eh]
	 Correlation Energy        =      -2.0418392709275150 [Eh]
	 Total Energy              =    -799.8474783021698613 [Eh]

	 ================> DF-SCS-MP2 Energies <==================
	-----------------------------------------------------------
	 SCS Same-Spin Scale       =       0.3333333333333333 [-]
	 SCS Opposite-Spin Scale   =       1.2000000000000000 [-]
	 SCS Same-Spin Energy      =      -0.1658902945233315 [Eh]
	 SCS Opposite-Spin Energy  =      -1.8530020648290249 [Eh]
	 SCS Correlation Energy    =      -2.0188923593523564 [Eh]
	 SCS Total Energy          =    -799.8245313905946432 [Eh]
	-----------------------------------------------------------

  Dipole Moment: [D]
     X:     0.0083      Y:     7.5717      Z:    -0.0804     Total:     7.5721

*** Psi4 exiting successfully. Buy a developer a beer!
