                               Psi4 1.3.2 release

  ==> Input File <==

--------------------------------------------------------------------------
#psi4
#
memory 32 gb

molecule  {
-1 1
  P       -0.0010900    -1.0890910     0.0004590
  O       -1.1524220    -0.0281740     0.5594010
  O        1.1506610    -0.0285350    -0.5585640
  O        0.5034080    -1.8082920     1.2241620
  O       -0.5057790    -1.8082590    -1.2231120
  C       -1.8201030     0.7715450    -0.4363210
  C        1.8136140     0.7766970     0.4358730
  C       -2.6746040     1.7890640     0.2877210
  C        2.6862580     1.7776730    -0.2896530
  H       -1.0739810     1.2667980    -1.0678550
  H       -2.4287840     0.1238470    -1.0755890
  H        1.2009814     1.1929402     0.9397788
  H        2.4084330     0.1312990     1.0903160
  H       -3.2148500     2.4129370    -0.4309050
  H       -3.4044660     1.2870150     0.9274370
  H       -2.0509410     2.4359130     0.9094240
  H        3.2222650     2.4062160     0.4280610
  H        3.4201870     1.2611760    -0.9129680
  H        2.0763540     2.4215040    -0.9279010
units angstrom
no_reorient  #important for SAPT in psi4, default
symmetry c1  #important for SAPT in psi4, default
}

set PROPERTIES_ORIGIN ["COM"]
properties('MP2/aug-cc-pvtz', properties = ['dipole'])
--------------------------------------------------------------------------

    Molecular point group: c1
  Charge       = -1
  Multiplicity = 1
  Basis Set: AUG-CC-PVTZ
    Blend: AUG-CC-PVTZ
  Basis Set: (AUG-CC-PVTZ AUX)
    Blend: AUG-CC-PVTZ-JKFIT

    Orbital Energies [Eh]
    ---------------------

    Doubly Occupied:

       1A    -79.878558     2A    -20.404777     3A    -20.401485
       4A    -20.303391     5A    -20.303041     6A    -11.145027
       7A    -11.119852     8A    -11.105151     9A    -11.103671
      10A     -7.394077    11A     -5.292930    12A     -5.292047
      13A     -5.290689    14A     -1.234663    15A     -1.187372
      16A     -1.098899    17A     -1.058999    18A     -0.901661
      19A     -0.892381    20A     -0.739089    21A     -0.713697
      22A     -0.605824    23A     -0.541776    24A     -0.533989
      25A     -0.514891    26A     -0.457656    27A     -0.448909
      28A     -0.442083    29A     -0.423532    30A     -0.422293
      31A     -0.405989    32A     -0.400435    33A     -0.366475
      34A     -0.366208    35A     -0.330844    36A     -0.312279
      37A     -0.305771    38A     -0.283781    39A     -0.266025
      40A     -0.250345    41A     -0.236008

  @DF-RHF Final Energy:  -797.80563182151843

   => Energetics <=

    Nuclear Repulsion Energy =            614.0740215141659064
    One-Electron Energy =               -2334.2061692698821389
    Two-Electron Energy =                 922.3265159341978006
    Total Energy =                       -797.8056318215184319
  Basis Set: (AUG-CC-PVTZ AUX)
    Blend: AUG-CC-PVTZ-RI
    Molecular point group: c1

    Geometry (in Angstrom), charge = -1, multiplicity = 1:

       Center              X                  Y                   Z               Mass
    ------------   -----------------  -----------------  -----------------  -----------------
         P           -0.001864613804    -0.984207945302     0.001147108658    30.973761998420
         O           -1.153196613804     0.076709054698     0.560089108658    15.994914619570
         O            1.149886386196     0.076348054698    -0.557875891342    15.994914619570
         O            0.502633386196    -1.703408945302     1.224850108658    15.994914619570
         O           -0.506553613804    -1.703375945302    -1.222423891342    15.994914619570
         C           -1.820877613804     0.876428054698    -0.435632891342    12.000000000000
         C            1.812839386196     0.881580054698     0.436561108658    12.000000000000
         C           -2.675378613804     1.893947054698     0.288409108658    12.000000000000
         C            2.685483386196     1.882556054698    -0.288964891342    12.000000000000
         H           -1.074755613804     1.371681054698    -1.067166891342     1.007825032230
         H           -2.429558613804     0.228730054698    -1.074900891342     1.007825032230
         H            1.200206786196     1.297823254698     0.940466908658     1.007825032230
         H            2.407658386196     0.236182054698     1.091004108658     1.007825032230
         H           -3.215624613804     2.517820054698    -0.430216891342     1.007825032230
         H           -3.405240613804     1.391898054698     0.928125108658     1.007825032230
         H           -2.051715613804     2.540796054698     0.910112108658     1.007825032230
         H            3.221490386196     2.511099054698     0.428749108658     1.007825032230
         H            3.419412386196     1.366059054698    -0.912279891342     1.007825032230
         H            2.075579386196     2.526387054698    -0.927212891342     1.007825032230

  Basis Set: AUG-CC-PVTZ
    Blend: AUG-CC-PVTZ
  Basis Set: (AUG-CC-PVTZ AUX)
    Blend: AUG-CC-PVTZ-JKFIT
	 Reference Energy          =    -797.8056318215184319 [Eh]
	 Singles Energy            =      -0.0000000000000000 [Eh]
	 Same-Spin Energy          =      -0.4976724156791889 [Eh]
	 Opposite-Spin Energy      =      -1.5441700603054418 [Eh]
	 Correlation Energy        =      -2.0418424759846308 [Eh]
	 Total Energy              =    -799.8474742975030267 [Eh]

	 ================> DF-SCS-MP2 Energies <==================
	-----------------------------------------------------------
	 SCS Same-Spin Scale       =       0.3333333333333333 [-]
	 SCS Opposite-Spin Scale   =       1.2000000000000000 [-]
	 SCS Same-Spin Energy      =      -0.1658908052263963 [Eh]
	 SCS Opposite-Spin Energy  =      -1.8530040723665300 [Eh]
	 SCS Correlation Energy    =      -2.0188948775929263 [Eh]
	 SCS Total Energy          =    -799.8245266991114022 [Eh]
	-----------------------------------------------------------

  Dipole Moment: [D]
     X:    -0.0107      Y:     7.5738      Z:     0.0733     Total:     7.5741

*** Psi4 exiting successfully. Buy a developer a beer!
