                               Psi4 1.4a3.dev225

  ==> Input File <==

--------------------------------------------------------------------------
#psi4
#
memory 32 gb

molecule  {
-1 1
  P        0.0000000     1.0872980     0.0000000
  O       -1.1564220     0.0305830    -0.5476420
  O        1.1564220     0.0305830     0.5476420
  O        0.4924450     1.8091740    -1.2276720
  O       -0.4924450     1.8091740     1.2276720
  C       -1.7989910    -0.7944120     0.4410350
  C        1.7989910    -0.7944120    -0.4410350
  C       -2.7063440    -1.7646140    -0.2844450
  C        2.7063440    -1.7646150     0.2844450
  H       -1.0386670    -1.3302830     1.0205350
  H       -2.3670280    -0.1617970     1.1311080
  H        1.0247906    -1.3400633    -1.0311104
  H        2.3670280    -0.1617970    -1.1311080
  H       -3.2237520    -2.4090830     0.4325060
  H       -3.4553630    -1.2226600    -0.8671100
  H       -2.1260300    -2.3948090    -0.9629160
  H        3.2237520    -2.4090830    -0.4325060
  H        3.4553630    -1.2226600     0.8671100
  H        2.1260300    -2.3948090     0.9629160
units angstrom
no_reorient  #important for SAPT in psi4, default
symmetry c1  #important for SAPT in psi4, default
}

set PROPERTIES_ORIGIN ["COM"]
properties('MP2/aug-cc-pvtz', properties = ['dipole'])
--------------------------------------------------------------------------

    Molecular point group: c1
  Charge       = -1
  Multiplicity = 1
  Basis Set: AUG-CC-PVTZ
    Blend: AUG-CC-PVTZ
  Basis Set: (AUG-CC-PVTZ AUX)
    Blend: AUG-CC-PVTZ-JKFIT

    Orbital Energies [Eh]
    ---------------------

    Doubly Occupied:

       1A    -79.879028     2A    -20.405415     3A    -20.404951
       4A    -20.303081     5A    -20.303036     6A    -11.148022
       7A    -11.145524     8A    -11.105503     9A    -11.105267
      10A     -7.394576    11A     -5.293462    12A     -5.292548
      13A     -5.291157    14A     -1.236657    15A     -1.189343
      16A     -1.098728    17A     -1.058551    18A     -0.894885
      19A     -0.890823    20A     -0.714596    21A     -0.712281
      22A     -0.600411    23A     -0.540423    24A     -0.529787
      25A     -0.506318    26A     -0.458677    27A     -0.449423
      28A     -0.443934    29A     -0.424265    30A     -0.422618
      31A     -0.401176    32A     -0.399213    33A     -0.366861
      34A     -0.361010    35A     -0.329819    36A     -0.307731
      37A     -0.305993    38A     -0.283826    39A     -0.266693
      40A     -0.249988    41A     -0.235629

  @DF-RHF Final Energy:  -797.83844008823201

   => Energetics <=

    Nuclear Repulsion Energy =            613.0187425428115375
    One-Electron Energy =               -2332.2119102026231303
    Two-Electron Energy =                 921.3547275715794740
    Total Energy =                       -797.8384400882320051
  Basis Set: (AUG-CC-PVTZ AUX)
    Blend: AUG-CC-PVTZ-RI
    Molecular point group: c1

    Geometry (in Angstrom), charge = -1, multiplicity = 1:

       Center              X                  Y                   Z               Mass
    ------------   -----------------  -----------------  -----------------  -----------------
         P            0.000091386203     0.983072529841     0.000069646713    30.973761998420
         O           -1.156330613797    -0.073642470159    -0.547572353287    15.994914619570
         O            1.156513386203    -0.073642470159     0.547711646713    15.994914619570
         O            0.492536386203     1.704948529841    -1.227602353287    15.994914619570
         O           -0.492353613797     1.704948529841     1.227741646713    15.994914619570
         C           -1.798899613797    -0.898637470159     0.441104646713    12.000000000000
         C            1.799082386203    -0.898637470159    -0.440965353287    12.000000000000
         C           -2.706252613797    -1.868839470159    -0.284375353287    12.000000000000
         C            2.706435386203    -1.868840470159     0.284514646713    12.000000000000
         H           -1.038575613797    -1.434508470159     1.020604646713     1.007825032230
         H           -2.366936613797    -0.266022470159     1.131177646713     1.007825032230
         H            1.024881986203    -1.444288770159    -1.031040753287     1.007825032230
         H            2.367119386203    -0.266022470159    -1.131038353287     1.007825032230
         H           -3.223660613797    -2.513308470159     0.432575646713     1.007825032230
         H           -3.455271613797    -1.326885470159    -0.867040353287     1.007825032230
         H           -2.125938613797    -2.499034470159    -0.962846353287     1.007825032230
         H            3.223843386203    -2.513308470159    -0.432436353287     1.007825032230
         H            3.455454386203    -1.326885470159     0.867179646713     1.007825032230
         H            2.126121386203    -2.499034470159     0.962985646713     1.007825032230

  Basis Set: AUG-CC-PVTZ
    Blend: AUG-CC-PVTZ
  Basis Set: (AUG-CC-PVTZ AUX)
    Blend: AUG-CC-PVTZ-JKFIT
	 Reference Energy          =    -797.8384400882320051 [Eh]
	 Singles Energy            =      -0.0000000000000000 [Eh]
	 Same-Spin Energy          =      -0.4978711133816548 [Eh]
	 Opposite-Spin Energy      =      -1.5450176410331480 [Eh]
	 Correlation Energy        =      -2.0428887544148027 [Eh]
	 Total Energy              =    -799.8813288426467807 [Eh]

	 ================> DF-SCS-MP2 Energies <==================
	-----------------------------------------------------------
	 SCS Same-Spin Scale       =       0.3333333333333333 [-]
	 SCS Opposite-Spin Scale   =       1.2000000000000000 [-]
	 SCS Same-Spin Energy      =      -0.1659570377938849 [Eh]
	 SCS Opposite-Spin Energy  =      -1.8540211692397774 [Eh]
	 SCS Correlation Energy    =      -2.0199782070336623 [Eh]
	 SCS Total Energy          =    -799.8584182952656647 [Eh]
	-----------------------------------------------------------

  Dipole Moment: [D]
     X:     0.0041      Y:    -7.5642      Z:     0.0110     Total:     7.5642

*** Psi4 exiting successfully. Buy a developer a beer!
