                               Psi4 1.3.2 release

  ==> Input File <==

--------------------------------------------------------------------------
#psi4
#
memory 32 gb

molecule  {
-1 1
  P       -0.0010900    -1.0890910     0.0004590
  O       -1.1524220    -0.0281740     0.5594010
  O        1.1506610    -0.0285350    -0.5585640
  O        0.5034080    -1.8082920     1.2241620
  O       -0.5057790    -1.8082590    -1.2231120
  C       -1.8201030     0.7715450    -0.4363210
  C        1.8136140     0.7766970     0.4358730
  C       -2.6746040     1.7890640     0.2877210
  C        2.6862580     1.7776730    -0.2896530
  H       -1.0739810     1.2667980    -1.0678550
  H       -2.4287840     0.1238470    -1.0755890
  H        0.9958183     1.3323349     1.1085306
  H        2.4084330     0.1312990     1.0903160
  H       -3.2148500     2.4129370    -0.4309050
  H       -3.4044660     1.2870150     0.9274370
  H       -2.0509410     2.4359130     0.9094240
  H        3.2222650     2.4062160     0.4280610
  H        3.4201870     1.2611760    -0.9129680
  H        2.0763540     2.4215040    -0.9279010
units angstrom
no_reorient  #important for SAPT in psi4, default
symmetry c1  #important for SAPT in psi4, default
}

set PROPERTIES_ORIGIN ["COM"]
properties('MP2/aug-cc-pvtz', properties = ['dipole'])
--------------------------------------------------------------------------

    Molecular point group: c1
  Charge       = -1
  Multiplicity = 1
  Basis Set: AUG-CC-PVTZ
    Blend: AUG-CC-PVTZ
  Basis Set: (AUG-CC-PVTZ AUX)
    Blend: AUG-CC-PVTZ-JKFIT

    Orbital Energies [Eh]
    ---------------------

    Doubly Occupied:

       1A    -79.879794     2A    -20.406954     3A    -20.404462
       4A    -20.304174     5A    -20.303900     6A    -11.156913
       7A    -11.144802     8A    -11.105994     9A    -11.104734
      10A     -7.395313    11A     -5.294178    12A     -5.293283
      13A     -5.291902    14A     -1.235731    15A     -1.188398
      16A     -1.099543    17A     -1.059770    18A     -0.893855
      19A     -0.889593    20A     -0.713507    21A     -0.706233
      22A     -0.597812    23A     -0.539480    24A     -0.527300
      25A     -0.501502    26A     -0.458977    27A     -0.449538
      28A     -0.442910    29A     -0.423614    30A     -0.423354
      31A     -0.401321    32A     -0.396145    33A     -0.367604
      34A     -0.357450    35A     -0.330705    36A     -0.306928
      37A     -0.302180    38A     -0.284691    39A     -0.267177
      40A     -0.251200    41A     -0.236791

  @DF-RHF Final Energy:  -797.83209314159581

   => Energetics <=

    Nuclear Repulsion Energy =            612.6853660558476804
    One-Electron Energy =               -2331.5554942629614743
    Two-Electron Energy =                 921.0380350655179882
    Total Energy =                       -797.8320931415958057
  Basis Set: (AUG-CC-PVTZ AUX)
    Blend: AUG-CC-PVTZ-RI
    Molecular point group: c1

    Geometry (in Angstrom), charge = -1, multiplicity = 1:

       Center              X                  Y                   Z               Mass
    ------------   -----------------  -----------------  -----------------  -----------------
         P           -0.000513465334    -0.985125960947     0.000035755123    30.973761998420
         O           -1.151845465334     0.075791039053     0.558977755123    15.994914619570
         O            1.151237534666     0.075430039053    -0.558987244877    15.994914619570
         O            0.503984534666    -1.704326960947     1.223738755123    15.994914619570
         O           -0.505202465334    -1.704293960947    -1.223535244877    15.994914619570
         C           -1.819526465334     0.875510039053    -0.436744244877    12.000000000000
         C            1.814190534666     0.880662039053     0.435449755123    12.000000000000
         C           -2.674027465334     1.893029039053     0.287297755123    12.000000000000
         C            2.686834534666     1.881638039053    -0.290076244877    12.000000000000
         H           -1.073404465334     1.370763039053    -1.068278244877     1.007825032230
         H           -2.428207465334     0.227812039053    -1.076012244877     1.007825032230
         H            0.996394834666     1.436299939053     1.108107355123     1.007825032230
         H            2.409009534666     0.235264039053     1.089892755123     1.007825032230
         H           -3.214273465334     2.516902039053    -0.431328244877     1.007825032230
         H           -3.403889465334     1.390980039053     0.927013755123     1.007825032230
         H           -2.050364465334     2.539878039053     0.909000755123     1.007825032230
         H            3.222841534666     2.510181039053     0.427637755123     1.007825032230
         H            3.420763534666     1.365141039053    -0.913391244877     1.007825032230
         H            2.076930534666     2.525469039053    -0.928324244877     1.007825032230

  Basis Set: AUG-CC-PVTZ
    Blend: AUG-CC-PVTZ
  Basis Set: (AUG-CC-PVTZ AUX)
    Blend: AUG-CC-PVTZ-JKFIT
	 Reference Energy          =    -797.8320931415958057 [Eh]
	 Singles Energy            =      -0.0000000000000000 [Eh]
	 Same-Spin Energy          =      -0.4981407801122486 [Eh]
	 Opposite-Spin Energy      =      -1.5460726637154938 [Eh]
	 Correlation Energy        =      -2.0442134438277426 [Eh]
	 Total Energy              =    -799.8763065854235492 [Eh]

	 ================> DF-SCS-MP2 Energies <==================
	-----------------------------------------------------------
	 SCS Same-Spin Scale       =       0.3333333333333333 [-]
	 SCS Opposite-Spin Scale   =       1.2000000000000000 [-]
	 SCS Same-Spin Energy      =      -0.1660469267040829 [Eh]
	 SCS Opposite-Spin Energy  =      -1.8552871964585924 [Eh]
	 SCS Correlation Energy    =      -2.0213341231626751 [Eh]
	 SCS Total Energy          =    -799.8534272647584658 [Eh]
	-----------------------------------------------------------

  Dipole Moment: [D]
     X:     0.0211      Y:     7.4417      Z:    -0.0657     Total:     7.4420

*** Psi4 exiting successfully. Buy a developer a beer!
