                               Psi4 1.3.2 release

  ==> Input File <==

--------------------------------------------------------------------------
#psi4
#
memory 32 gb

molecule  {
-1 1
  P       -0.0010900    -1.0890910     0.0004590
  O       -1.1434960    -0.0242446     0.5701406
  O        1.1506610    -0.0285350    -0.5585640
  O        0.5034080    -1.8082920     1.2241620
  O       -0.4944345    -1.8148595    -1.2238411
  C       -1.8201030     0.7715450    -0.4363210
  C        1.8136140     0.7766970     0.4358730
  C       -2.6746040     1.7890640     0.2877210
  C        2.6862580     1.7776730    -0.2896530
  H       -1.0739810     1.2667980    -1.0678550
  H       -2.4287840     0.1238470    -1.0755890
  H        1.0642060     1.2858700     1.0522800
  H        2.4084330     0.1312990     1.0903160
  H       -3.2148500     2.4129370    -0.4309050
  H       -3.4044660     1.2870150     0.9274370
  H       -2.0509410     2.4359130     0.9094240
  H        3.2222650     2.4062160     0.4280610
  H        3.4201870     1.2611760    -0.9129680
  H        2.0763540     2.4215040    -0.9279010
units angstrom
no_reorient  #important for SAPT in psi4, default
symmetry c1  #important for SAPT in psi4, default
}

set PROPERTIES_ORIGIN ["COM"]
properties('MP2/aug-cc-pvtz', properties = ['dipole'])
--------------------------------------------------------------------------

    Molecular point group: c1
  Charge       = -1
  Multiplicity = 1
  Basis Set: AUG-CC-PVTZ
    Blend: AUG-CC-PVTZ
  Basis Set: (AUG-CC-PVTZ AUX)
    Blend: AUG-CC-PVTZ-JKFIT

    Orbital Energies [Eh]
    ---------------------

    Doubly Occupied:

       1A    -79.878793     2A    -20.405863     3A    -20.403883
       4A    -20.304205     5A    -20.302331     6A    -11.146421
       7A    -11.144332     8A    -11.105695     9A    -11.104590
      10A     -7.394352    11A     -5.293206    12A     -5.292304
      13A     -5.290961    14A     -1.234138    15A     -1.186249
      16A     -1.098776    17A     -1.058887    18A     -0.894970
      19A     -0.890804    20A     -0.714130    21A     -0.712919
      22A     -0.599266    23A     -0.538215    24A     -0.529107
      25A     -0.506724    26A     -0.457835    27A     -0.449402
      28A     -0.441943    29A     -0.423339    30A     -0.422459
      31A     -0.400691    32A     -0.398763    33A     -0.366926
      34A     -0.361313    35A     -0.330839    36A     -0.308504
      37A     -0.305774    38A     -0.284071    39A     -0.266561
      40A     -0.250347    41A     -0.235883

  @DF-RHF Final Energy:  -797.83788258635195

   => Energetics <=

    Nuclear Repulsion Energy =            612.9373900737911072
    One-Electron Energy =               -2332.0790030566831774
    Two-Electron Energy =                 921.3037303965402316
    Total Energy =                       -797.8378825863519523
  Basis Set: (AUG-CC-PVTZ AUX)
    Blend: AUG-CC-PVTZ-RI
    Molecular point group: c1

    Geometry (in Angstrom), charge = -1, multiplicity = 1:

       Center              X                  Y                   Z               Mass
    ------------   -----------------  -----------------  -----------------  -----------------
         P           -0.003082526697    -0.984540771586    -0.000640094062    30.973761998420
         O           -1.145488526697     0.080305628414     0.569041505938    15.994914619570
         O            1.148668473303     0.076015228414    -0.559663094062    15.994914619570
         O            0.501415473303    -1.703741771586     1.223062905938    15.994914619570
         O           -0.496427026697    -1.710309271586    -1.224940194062    15.994914619570
         C           -1.822095526697     0.876095228414    -0.437420094062    12.000000000000
         C            1.811621473303     0.881247228414     0.434773905938    12.000000000000
         C           -2.676596526697     1.893614228414     0.286621905938    12.000000000000
         C            2.684265473303     1.882223228414    -0.290752094062    12.000000000000
         H           -1.075973526697     1.371348228414    -1.068954094062     1.007825032230
         H           -2.430776526697     0.228397228414    -1.076688094062     1.007825032230
         H            1.062213473303     1.390420228414     1.051180905938     1.007825032230
         H            2.406440473303     0.235849228414     1.089216905938     1.007825032230
         H           -3.216842526697     2.517487228414    -0.432004094062     1.007825032230
         H           -3.406458526697     1.391565228414     0.926337905938     1.007825032230
         H           -2.052933526697     2.540463228414     0.908324905938     1.007825032230
         H            3.220272473303     2.510766228414     0.426961905938     1.007825032230
         H            3.418194473303     1.365726228414    -0.914067094062     1.007825032230
         H            2.074361473303     2.526054228414    -0.929000094062     1.007825032230

  Basis Set: AUG-CC-PVTZ
    Blend: AUG-CC-PVTZ
  Basis Set: (AUG-CC-PVTZ AUX)
    Blend: AUG-CC-PVTZ-JKFIT
	 Reference Energy          =    -797.8378825863519523 [Eh]
	 Singles Energy            =      -0.0000000000000000 [Eh]
	 Same-Spin Energy          =      -0.4979836196371862 [Eh]
	 Opposite-Spin Energy      =      -1.5454092020251118 [Eh]
	 Correlation Energy        =      -2.0433928216622981 [Eh]
	 Total Energy              =    -799.8812754080142895 [Eh]

	 ================> DF-SCS-MP2 Energies <==================
	-----------------------------------------------------------
	 SCS Same-Spin Scale       =       0.3333333333333333 [-]
	 SCS Opposite-Spin Scale   =       1.2000000000000000 [-]
	 SCS Same-Spin Energy      =      -0.1659945398790620 [Eh]
	 SCS Opposite-Spin Energy  =      -1.8544910424301340 [Eh]
	 SCS Correlation Energy    =      -2.0204855823091958 [Eh]
	 SCS Total Energy          =    -799.8583681686611726 [Eh]
	-----------------------------------------------------------

  Dipole Moment: [D]
     X:    -0.0773      Y:     7.5298      Z:    -0.0342     Total:     7.5302

*** Psi4 exiting successfully. Buy a developer a beer!
