                               Psi4 1.3.2 release

  ==> Input File <==

--------------------------------------------------------------------------
#psi4
#
memory 32 gb

molecule  {
-1 1
  P       -0.0010900    -1.0890910     0.0004590
  O       -1.1524220    -0.0281740     0.5594010
  O        1.1506610    -0.0285350    -0.5585640
  O        0.5368985    -1.8560353     1.3053960
  O       -0.5057790    -1.8082590    -1.2231120
  C       -1.8201030     0.7715450    -0.4363210
  C        1.8136140     0.7766970     0.4358730
  C       -2.6746040     1.7890640     0.2877210
  C        2.6862580     1.7776730    -0.2896530
  H       -1.0739810     1.2667980    -1.0678550
  H       -2.4287840     0.1238470    -1.0755890
  H        1.0642060     1.2858700     1.0522800
  H        2.4084330     0.1312990     1.0903160
  H       -3.2148500     2.4129370    -0.4309050
  H       -3.4044660     1.2870150     0.9274370
  H       -2.0509410     2.4359130     0.9094240
  H        3.2222650     2.4062160     0.4280610
  H        3.4201870     1.2611760    -0.9129680
  H        2.0763540     2.4215040    -0.9279010
units angstrom
no_reorient  #important for SAPT in psi4, default
symmetry c1  #important for SAPT in psi4, default
}

set PROPERTIES_ORIGIN ["COM"]
properties('MP2/aug-cc-pvtz', properties = ['dipole'])
--------------------------------------------------------------------------

    Molecular point group: c1
  Charge       = -1
  Multiplicity = 1
  Basis Set: AUG-CC-PVTZ
    Blend: AUG-CC-PVTZ
  Basis Set: (AUG-CC-PVTZ AUX)
    Blend: AUG-CC-PVTZ-JKFIT

    Orbital Energies [Eh]
    ---------------------

    Doubly Occupied:

       1A    -79.895569     2A    -20.411149     3A    -20.410802
       4A    -20.312087     5A    -20.306968     6A    -11.149044
       7A    -11.146980     8A    -11.107597     9A    -11.106590
      10A     -7.408385    11A     -5.307435    12A     -5.306451
      13A     -5.304539    14A     -1.238096    15A     -1.193027
      16A     -1.093633    17A     -1.034674    18A     -0.897517
      19A     -0.893226    20A     -0.717753    21A     -0.715666
      22A     -0.605963    23A     -0.541744    24A     -0.532814
      25A     -0.509891    26A     -0.461912    27A     -0.451597
      28A     -0.444310    29A     -0.425898    30A     -0.424925
      31A     -0.401827    32A     -0.400992    33A     -0.365007
      34A     -0.362366    35A     -0.326632    36A     -0.311001
      37A     -0.308351    38A     -0.276841    39A     -0.268115
      40A     -0.240594    41A     -0.230595

  @DF-RHF Final Energy:  -797.82175876926897

   => Energetics <=

    Nuclear Repulsion Energy =            608.7106283920209080
    One-Electron Energy =               -2323.3676483676454154
    Two-Electron Energy =                 916.8352612063555398
    Total Energy =                       -797.8217587692689676
  Basis Set: (AUG-CC-PVTZ AUX)
    Blend: AUG-CC-PVTZ-RI
    Molecular point group: c1

    Geometry (in Angstrom), charge = -1, multiplicity = 1:

       Center              X                  Y                   Z               Mass
    ------------   -----------------  -----------------  -----------------  -----------------
         P           -0.004464284932    -0.979829812168    -0.008084394941    30.973761998420
         O           -1.155796284932     0.081087187832     0.550857605059    15.994914619570
         O            1.147286715068     0.080726187832    -0.567107394941    15.994914619570
         O            0.533524215068    -1.746774112168     1.296852605059    15.994914619570
         O           -0.509153284932    -1.698997812168    -1.231655394941    15.994914619570
         C           -1.823477284932     0.880806187832    -0.444864394941    12.000000000000
         C            1.810239715068     0.885958187832     0.427329605059    12.000000000000
         C           -2.677978284932     1.898325187832     0.279177605059    12.000000000000
         C            2.682883715068     1.886934187832    -0.298196394941    12.000000000000
         H           -1.077355284932     1.376059187832    -1.076398394941     1.007825032230
         H           -2.432158284932     0.233108187832    -1.084132394941     1.007825032230
         H            1.060831715068     1.395131187832     1.043736605059     1.007825032230
         H            2.405058715068     0.240560187832     1.081772605059     1.007825032230
         H           -3.218224284932     2.522198187832    -0.439448394941     1.007825032230
         H           -3.407840284932     1.396276187832     0.918893605059     1.007825032230
         H           -2.054315284932     2.545174187832     0.900880605059     1.007825032230
         H            3.218890715068     2.515477187832     0.419517605059     1.007825032230
         H            3.416812715068     1.370437187832    -0.921511394941     1.007825032230
         H            2.072979715068     2.530765187832    -0.936444394941     1.007825032230

  Basis Set: AUG-CC-PVTZ
    Blend: AUG-CC-PVTZ
  Basis Set: (AUG-CC-PVTZ AUX)
    Blend: AUG-CC-PVTZ-JKFIT
	 Reference Energy          =    -797.8217587692689676 [Eh]
	 Singles Energy            =      -0.0000000000000000 [Eh]
	 Same-Spin Energy          =      -0.4997705366111058 [Eh]
	 Opposite-Spin Energy      =      -1.5499773266016084 [Eh]
	 Correlation Energy        =      -2.0497478632127142 [Eh]
	 Total Energy              =    -799.8715066324816689 [Eh]

	 ================> DF-SCS-MP2 Energies <==================
	-----------------------------------------------------------
	 SCS Same-Spin Scale       =       0.3333333333333333 [-]
	 SCS Opposite-Spin Scale   =       1.2000000000000000 [-]
	 SCS Same-Spin Energy      =      -0.1665901788703686 [Eh]
	 SCS Opposite-Spin Energy  =      -1.8599727919219300 [Eh]
	 SCS Correlation Energy    =      -2.0265629707922987 [Eh]
	 SCS Total Energy          =    -799.8483217400612375 [Eh]
	-----------------------------------------------------------

  Dipole Moment: [D]
     X:    -0.2017      Y:     7.8540      Z:    -0.4630     Total:     7.8702

*** Psi4 exiting successfully. Buy a developer a beer!
