                               Psi4 1.3.2 release

  ==> Input File <==

--------------------------------------------------------------------------
#psi4
#
memory 32 gb

molecule  {
-1 1
  P       -0.0010900    -1.0890910     0.0004590
  O       -1.1524220    -0.0281740     0.5594010
  O        1.1506610    -0.0285350    -0.5585640
  O        0.5009945    -1.8198152     1.2183139
  O       -0.5033689    -1.8197818    -1.2172628
  C       -1.8201030     0.7715450    -0.4363210
  C        1.8136140     0.7766970     0.4358730
  C       -2.6746040     1.7890640     0.2877210
  C        2.6862580     1.7776730    -0.2896530
  H       -1.0739810     1.2667980    -1.0678550
  H       -2.4287840     0.1238470    -1.0755890
  H        1.0642060     1.2858700     1.0522800
  H        2.4084330     0.1312990     1.0903160
  H       -3.2148500     2.4129370    -0.4309050
  H       -3.4044660     1.2870150     0.9274370
  H       -2.0509410     2.4359130     0.9094240
  H        3.2222650     2.4062160     0.4280610
  H        3.4201870     1.2611760    -0.9129680
  H        2.0763540     2.4215040    -0.9279010
units angstrom
no_reorient  #important for SAPT in psi4, default
symmetry c1  #important for SAPT in psi4, default
}

set PROPERTIES_ORIGIN ["COM"]
properties('MP2/aug-cc-pvtz', properties = ['dipole'])
--------------------------------------------------------------------------

    Molecular point group: c1
  Charge       = -1
  Multiplicity = 1
  Basis Set: AUG-CC-PVTZ
    Blend: AUG-CC-PVTZ
  Basis Set: (AUG-CC-PVTZ AUX)
    Blend: AUG-CC-PVTZ-JKFIT

    Orbital Energies [Eh]
    ---------------------

    Doubly Occupied:

       1A    -79.879053     2A    -20.405401     3A    -20.405385
       4A    -20.302825     5A    -20.302788     6A    -11.145523
       7A    -11.145485     8A    -11.105353     9A    -11.105315
      10A     -7.394590    11A     -5.293446    12A     -5.292519
      13A     -5.291209    14A     -1.235533    15A     -1.188423
      16A     -1.099080    17A     -1.058106    18A     -0.895081
      19A     -0.891097    20A     -0.714587    21A     -0.713531
      22A     -0.600454    23A     -0.539421    24A     -0.529839
      25A     -0.507520    26A     -0.458778    27A     -0.449476
      28A     -0.442615    29A     -0.423787    30A     -0.423298
      31A     -0.401148    32A     -0.399503    33A     -0.366862
      34A     -0.361332    35A     -0.330435    36A     -0.308351
      37A     -0.306291    38A     -0.283971    39A     -0.266671
      40A     -0.249828    41A     -0.235137

  @DF-RHF Final Energy:  -797.83848049704204

   => Energetics <=

    Nuclear Repulsion Energy =            612.9196240479005837
    One-Electron Energy =               -2332.0181094914282767
    Two-Electron Energy =                 921.2600049464857648
    Total Energy =                       -797.8384804970420419
  Basis Set: (AUG-CC-PVTZ AUX)
    Blend: AUG-CC-PVTZ-RI
    Molecular point group: c1

    Geometry (in Angstrom), charge = -1, multiplicity = 1:

       Center              X                  Y                   Z               Mass
    ------------   -----------------  -----------------  -----------------  -----------------
         P           -0.000963492789    -0.982411181128     0.000406091329    30.973761998420
         O           -1.152295492789     0.078505818872     0.559348091329    15.994914619570
         O            1.150787507211     0.078144818872    -0.558616908671    15.994914619570
         O            0.501121007211    -1.713135381128     1.218260991329    15.994914619570
         O           -0.503242392789    -1.713101981128    -1.217315708671    15.994914619570
         C           -1.819976492789     0.878224818872    -0.436373908671    12.000000000000
         C            1.813740507211     0.883376818872     0.435820091329    12.000000000000
         C           -2.674477492789     1.895743818872     0.287668091329    12.000000000000
         C            2.686384507211     1.884352818872    -0.289705908671    12.000000000000
         H           -1.073854492789     1.373477818872    -1.067907908671     1.007825032230
         H           -2.428657492789     0.230526818872    -1.075641908671     1.007825032230
         H            1.064332507211     1.392549818872     1.052227091329     1.007825032230
         H            2.408559507211     0.237978818872     1.090263091329     1.007825032230
         H           -3.214723492789     2.519616818872    -0.430957908671     1.007825032230
         H           -3.404339492789     1.393694818872     0.927384091329     1.007825032230
         H           -2.050814492789     2.542592818872     0.909371091329     1.007825032230
         H            3.222391507211     2.512895818872     0.428008091329     1.007825032230
         H            3.420313507211     1.367855818872    -0.913020908671     1.007825032230
         H            2.076480507211     2.528183818872    -0.927953908671     1.007825032230

  Basis Set: AUG-CC-PVTZ
    Blend: AUG-CC-PVTZ
  Basis Set: (AUG-CC-PVTZ AUX)
    Blend: AUG-CC-PVTZ-JKFIT
	 Reference Energy          =    -797.8384804970420419 [Eh]
	 Singles Energy            =      -0.0000000000000000 [Eh]
	 Same-Spin Energy          =      -0.4978645914435880 [Eh]
	 Opposite-Spin Energy      =      -1.5450447563837351 [Eh]
	 Correlation Energy        =      -2.0429093478273233 [Eh]
	 Total Energy              =    -799.8813898448693180 [Eh]

	 ================> DF-SCS-MP2 Energies <==================
	-----------------------------------------------------------
	 SCS Same-Spin Scale       =       0.3333333333333333 [-]
	 SCS Opposite-Spin Scale   =       1.2000000000000000 [-]
	 SCS Same-Spin Energy      =      -0.1659548638145293 [Eh]
	 SCS Opposite-Spin Energy  =      -1.8540537076604819 [Eh]
	 SCS Correlation Energy    =      -2.0200085714750111 [Eh]
	 SCS Total Energy          =    -799.8584890685170876 [Eh]
	-----------------------------------------------------------

  Dipole Moment: [D]
     X:    -0.0006      Y:     7.5779      Z:    -0.0034     Total:     7.5779

*** Psi4 exiting successfully. Buy a developer a beer!
