                               Psi4 1.3.2 release

  ==> Input File <==

--------------------------------------------------------------------------
#psi4
#
memory 32 gb

molecule  {
-1 1
  P       -0.0010900    -1.0890910     0.0004590
  O       -1.1524220    -0.0281740     0.5594010
  O        1.1449200    -0.0349939    -0.5494272
  O        0.5034080    -1.8082920     1.2241620
  O       -0.5057790    -1.8082590    -1.2231120
  C       -1.8201030     0.7715450    -0.4363210
  C        1.8136140     0.7766970     0.4358730
  C       -2.6746040     1.7890640     0.2877210
  C        2.6901710     1.7825922    -0.2780396
  H       -1.0739810     1.2667980    -1.0678550
  H       -2.4287840     0.1238470    -1.0755890
  H        1.0642060     1.2858700     1.0522800
  H        2.4084330     0.1312990     1.0903160
  H       -3.2148500     2.4129370    -0.4309050
  H       -3.4044660     1.2870150     0.9274370
  H       -2.0509410     2.4359130     0.9094240
  H        3.2222650     2.4062160     0.4280610
  H        3.4201870     1.2611760    -0.9129680
  H        2.0763540     2.4215040    -0.9279010
units angstrom
no_reorient  #important for SAPT in psi4, default
symmetry c1  #important for SAPT in psi4, default
}

set PROPERTIES_ORIGIN ["COM"]
properties('MP2/aug-cc-pvtz', properties = ['dipole'])
--------------------------------------------------------------------------

    Molecular point group: c1
  Charge       = -1
  Multiplicity = 1
  Basis Set: AUG-CC-PVTZ
    Blend: AUG-CC-PVTZ
  Basis Set: (AUG-CC-PVTZ AUX)
    Blend: AUG-CC-PVTZ-JKFIT

    Orbital Energies [Eh]
    ---------------------

    Doubly Occupied:

       1A    -79.878126     2A    -20.404889     3A    -20.403831
       4A    -20.303162     5A    -20.302409     6A    -11.145766
       7A    -11.144654     8A    -11.105779     9A    -11.104752
      10A     -7.393789    11A     -5.292678    12A     -5.291768
      13A     -5.290383    14A     -1.236463    15A     -1.188330
      16A     -1.098410    17A     -1.058714    18A     -0.895401
      19A     -0.891054    20A     -0.715107    21A     -0.713000
      22A     -0.600226    23A     -0.539914    24A     -0.529238
      25A     -0.506633    26A     -0.458942    27A     -0.450386
      28A     -0.442987    29A     -0.426199    30A     -0.422439
      31A     -0.401021    32A     -0.398172    33A     -0.366987
      34A     -0.360535    35A     -0.329569    36A     -0.307975
      37A     -0.305753    38A     -0.283929    39A     -0.266277
      40A     -0.250032    41A     -0.235639

  @DF-RHF Final Energy:  -797.83908279739614

   => Energetics <=

    Nuclear Repulsion Energy =            613.4009970714430438
    One-Electron Energy =               -2332.9975227941945377
    Two-Electron Energy =                 921.7574429253553490
    Total Energy =                       -797.8390827973961450
  Basis Set: (AUG-CC-PVTZ AUX)
    Blend: AUG-CC-PVTZ-RI
    Molecular point group: c1

    Geometry (in Angstrom), charge = -1, multiplicity = 1:

       Center              X                  Y                   Z               Mass
    ------------   -----------------  -----------------  -----------------  -----------------
         P           -0.000670635618    -0.984530609391    -0.001459441080    30.973761998420
         O           -1.152002635618     0.076386390609     0.557482558920    15.994914619570
         O            1.145339364382     0.069566490609    -0.551345641080    15.994914619570
         O            0.503827364382    -1.703731609391     1.222243558920    15.994914619570
         O           -0.505359635618    -1.703698609391    -1.225030441080    15.994914619570
         C           -1.819683635618     0.876105390609    -0.438239441080    12.000000000000
         C            1.814033364382     0.881257390609     0.433954558920    12.000000000000
         C           -2.674184635618     1.893624390609     0.285802558920    12.000000000000
         C            2.690590364382     1.887152590609    -0.279958041080    12.000000000000
         H           -1.073561635618     1.371358390609    -1.069773441080     1.007825032230
         H           -2.428364635618     0.228407390609    -1.077507441080     1.007825032230
         H            1.064625364382     1.390430390609     1.050361558920     1.007825032230
         H            2.408852364382     0.235859390609     1.088397558920     1.007825032230
         H           -3.214430635618     2.517497390609    -0.432823441080     1.007825032230
         H           -3.404046635618     1.391575390609     0.925518558920     1.007825032230
         H           -2.050521635618     2.540473390609     0.907505558920     1.007825032230
         H            3.222684364382     2.510776390609     0.426142558920     1.007825032230
         H            3.420606364382     1.365736390609    -0.914886441080     1.007825032230
         H            2.076773364382     2.526064390609    -0.929819441080     1.007825032230

  Basis Set: AUG-CC-PVTZ
    Blend: AUG-CC-PVTZ
  Basis Set: (AUG-CC-PVTZ AUX)
    Blend: AUG-CC-PVTZ-JKFIT
	 Reference Energy          =    -797.8390827973961450 [Eh]
	 Singles Energy            =      -0.0000000000000000 [Eh]
	 Same-Spin Energy          =      -0.4977477452421925 [Eh]
	 Opposite-Spin Energy      =      -1.5446714924204961 [Eh]
	 Correlation Energy        =      -2.0424192376626884 [Eh]
	 Total Energy              =    -799.8815020350588156 [Eh]

	 ================> DF-SCS-MP2 Energies <==================
	-----------------------------------------------------------
	 SCS Same-Spin Scale       =       0.3333333333333333 [-]
	 SCS Opposite-Spin Scale   =       1.2000000000000000 [-]
	 SCS Same-Spin Energy      =      -0.1659159150807308 [Eh]
	 SCS Opposite-Spin Energy  =      -1.8536057909045951 [Eh]
	 SCS Correlation Energy    =      -2.0195217059853259 [Eh]
	 SCS Total Energy          =    -799.8586045033814571 [Eh]
	-----------------------------------------------------------

  Dipole Moment: [D]
     X:     0.0544      Y:     7.5503      Z:    -0.0131     Total:     7.5505

*** Psi4 exiting successfully. Buy a developer a beer!
