                               Psi4 1.3.2 release

  ==> Input File <==

--------------------------------------------------------------------------
#psi4
#
memory 32 gb

molecule  {
-1 1
  P       -0.0010900    -1.0890910     0.0004590
  O       -1.0975748    -0.0058199     0.6231718
  O        1.1506610    -0.0285350    -0.5585640
  O        0.5034080    -1.8082920     1.2241620
  O       -0.4371658    -1.8470231    -1.2260875
  C       -1.8201030     0.7715450    -0.4363210
  C        1.8136140     0.7766970     0.4358730
  C       -2.6746040     1.7890640     0.2877210
  C        2.6862580     1.7776730    -0.2896530
  H       -1.0739810     1.2667980    -1.0678550
  H       -2.4287840     0.1238470    -1.0755890
  H        1.0642060     1.2858700     1.0522800
  H        2.4084330     0.1312990     1.0903160
  H       -3.2148500     2.4129370    -0.4309050
  H       -3.4044660     1.2870150     0.9274370
  H       -2.0509410     2.4359130     0.9094240
  H        3.2222650     2.4062160     0.4280610
  H        3.4201870     1.2611760    -0.9129680
  H        2.0763540     2.4215040    -0.9279010
units angstrom
no_reorient  #important for SAPT in psi4, default
symmetry c1  #important for SAPT in psi4, default
}

set PROPERTIES_ORIGIN ["COM"]
properties('MP2/aug-cc-pvtz', properties = ['dipole'])
--------------------------------------------------------------------------

    Molecular point group: c1
  Charge       = -1
  Multiplicity = 1
  Basis Set: AUG-CC-PVTZ
    Blend: AUG-CC-PVTZ
  Basis Set: (AUG-CC-PVTZ AUX)
    Blend: AUG-CC-PVTZ-JKFIT

    Orbital Energies [Eh]
    ---------------------

    Doubly Occupied:

       1A    -79.876612     2A    -20.411528     3A    -20.400222
       4A    -20.306602     5A    -20.295667     6A    -11.153871
       7A    -11.141517     8A    -11.109382     9A    -11.102947
      10A     -7.392347    11A     -5.291196    12A     -5.290205
      13A     -5.288989    14A     -1.229540    15A     -1.178561
      16A     -1.096984    17A     -1.055693    18A     -0.898700
      19A     -0.889726    20A     -0.716363    21A     -0.710800
      22A     -0.595859    23A     -0.534303    24A     -0.527914
      25A     -0.505293    26A     -0.456163    27A     -0.449862
      28A     -0.439449    29A     -0.422748    30A     -0.419397
      31A     -0.399671    32A     -0.397304    33A     -0.368431
      34A     -0.362090    35A     -0.331766    36A     -0.313442
      37A     -0.303701    38A     -0.282695    39A     -0.266737
      40A     -0.246367    41A     -0.232520

  @DF-RHF Final Energy:  -797.83035373656980

   => Energetics <=

    Nuclear Repulsion Energy =            612.1976038410819001
    One-Electron Energy =               -2330.6695888736430788
    Two-Electron Energy =                 920.6416312959913739
    Total Energy =                       -797.8303537365698048
  Basis Set: (AUG-CC-PVTZ AUX)
    Blend: AUG-CC-PVTZ-RI
    Molecular point group: c1

    Geometry (in Angstrom), charge = -1, multiplicity = 1:

       Center              X                  Y                   Z               Mass
    ------------   -----------------  -----------------  -----------------  -----------------
         P           -0.013867964976    -0.983104777773    -0.005948136089    30.973761998420
         O           -1.110352764976     0.100166322227     0.616764663911    15.994914619570
         O            1.137883035024     0.077451222227    -0.564971136089    15.994914619570
         O            0.490630035024    -1.702305777773     1.217754863911    15.994914619570
         O           -0.449943764976    -1.741036877773    -1.232494636089    15.994914619570
         C           -1.832880964976     0.877531222227    -0.442728136089    12.000000000000
         C            1.800836035024     0.882683222227     0.429465863911    12.000000000000
         C           -2.687381964976     1.895050222227     0.281313863911    12.000000000000
         C            2.673480035024     1.883659222227    -0.296060136089    12.000000000000
         H           -1.086758964976     1.372784222227    -1.074262136089     1.007825032230
         H           -2.441561964976     0.229833222227    -1.081996136089     1.007825032230
         H            1.051428035024     1.391856222227     1.045872863911     1.007825032230
         H            2.395655035024     0.237285222227     1.083908863911     1.007825032230
         H           -3.227627964976     2.518923222227    -0.437312136089     1.007825032230
         H           -3.417243964976     1.393001222227     0.921029863911     1.007825032230
         H           -2.063718964976     2.541899222227     0.903016863911     1.007825032230
         H            3.209487035024     2.512202222227     0.421653863911     1.007825032230
         H            3.407409035024     1.367162222227    -0.919375136089     1.007825032230
         H            2.063576035024     2.527490222227    -0.934308136089     1.007825032230

  Basis Set: AUG-CC-PVTZ
    Blend: AUG-CC-PVTZ
  Basis Set: (AUG-CC-PVTZ AUX)
    Blend: AUG-CC-PVTZ-JKFIT
	 Reference Energy          =    -797.8303537365698048 [Eh]
	 Singles Energy            =      -0.0000000000000000 [Eh]
	 Same-Spin Energy          =      -0.4985040724746622 [Eh]
	 Opposite-Spin Energy      =      -1.5471858959497902 [Eh]
	 Correlation Energy        =      -2.0456899684244525 [Eh]
	 Total Energy              =    -799.8760437049942311 [Eh]

	 ================> DF-SCS-MP2 Energies <==================
	-----------------------------------------------------------
	 SCS Same-Spin Scale       =       0.3333333333333333 [-]
	 SCS Opposite-Spin Scale   =       1.2000000000000000 [-]
	 SCS Same-Spin Energy      =      -0.1661680241582207 [Eh]
	 SCS Opposite-Spin Energy  =      -1.8566230751397481 [Eh]
	 SCS Correlation Energy    =      -2.0227910992979687 [Eh]
	 SCS Total Energy          =    -799.8531448358677380 [Eh]
	-----------------------------------------------------------

  Dipole Moment: [D]
     X:    -0.4532      Y:     7.6727      Z:    -0.1842     Total:     7.6883

*** Psi4 exiting successfully. Buy a developer a beer!
