                               Psi4 1.4a3.dev225

  ==> Input File <==

--------------------------------------------------------------------------
#psi4
#
memory 32 gb

molecule  {
-1 1
  P        0.0000000     1.0872980     0.0000000
  O       -1.1564220     0.0305830    -0.5476420
  O        1.1564220     0.0305830     0.5476420
  O        0.4924450     1.8091740    -1.2276720
  O       -0.5087845     1.8331262     1.2684067
  C       -1.7989910    -0.7944120     0.4410350
  C        1.7989910    -0.7944120    -0.4410350
  C       -2.7063440    -1.7646140    -0.2844450
  C        2.7063440    -1.7646150     0.2844450
  H       -1.0386670    -1.3302830     1.0205350
  H       -2.3670280    -0.1617970     1.1311080
  H        1.0386660    -1.3302840    -1.0205350
  H        2.3670280    -0.1617970    -1.1311080
  H       -3.2237520    -2.4090830     0.4325060
  H       -3.4553630    -1.2226600    -0.8671100
  H       -2.1260300    -2.3948090    -0.9629160
  H        3.2237520    -2.4090830    -0.4325060
  H        3.4553630    -1.2226600     0.8671100
  H        2.1260300    -2.3948090     0.9629160
units angstrom
no_reorient  #important for SAPT in psi4, default
symmetry c1  #important for SAPT in psi4, default
}

set PROPERTIES_ORIGIN ["COM"]
properties('MP2/aug-cc-pvtz', properties = ['dipole'])
--------------------------------------------------------------------------

    Molecular point group: c1
  Charge       = -1
  Multiplicity = 1
  Basis Set: AUG-CC-PVTZ
    Blend: AUG-CC-PVTZ
  Basis Set: (AUG-CC-PVTZ AUX)
    Blend: AUG-CC-PVTZ-JKFIT

    Orbital Energies [Eh]
    ---------------------

    Doubly Occupied:

       1A    -79.887708     2A    -20.408343     3A    -20.408154
       4A    -20.307306     5A    -20.304716     6A    -11.147660
       7A    -11.146615     8A    -11.106655     9A    -11.106157
      10A     -7.401662    11A     -5.300691    12A     -5.299704
      13A     -5.298007    14A     -1.237902    15A     -1.191929
      16A     -1.093520    17A     -1.047938    18A     -0.896576
      19A     -0.892409    20A     -0.716837    21A     -0.714997
      22A     -0.603968    23A     -0.541725    24A     -0.532026
      25A     -0.508880    26A     -0.460352    27A     -0.450602
      28A     -0.444652    29A     -0.425136    30A     -0.423860
      31A     -0.401255    32A     -0.400812    33A     -0.365589
      34A     -0.362348    35A     -0.327731    36A     -0.309665
      37A     -0.307966    38A     -0.279892    39A     -0.266168
      40A     -0.245705    41A     -0.233040

  @DF-RHF Final Energy:  -797.83219822221861

   => Energetics <=

    Nuclear Repulsion Energy =            610.8626486404081106
    One-Electron Energy =               -2327.7759765543178219
    Two-Electron Energy =                 919.0811296916909896
    Total Energy =                       -797.8321982222186080
  Basis Set: (AUG-CC-PVTZ AUX)
    Blend: AUG-CC-PVTZ-RI
    Molecular point group: c1

    Geometry (in Angstrom), charge = -1, multiplicity = 1:

       Center              X                  Y                   Z               Mass
    ------------   -----------------  -----------------  -----------------  -----------------
         P            0.001707815865     0.980504635135    -0.004257602659    30.973761998420
         O           -1.154714184135    -0.076210364865    -0.551899602659    15.994914619570
         O            1.158129815865    -0.076210364865     0.543384397341    15.994914619570
         O            0.494152815865     1.702380635135    -1.231929602659    15.994914619570
         O           -0.507076684135     1.726332835135     1.264149097341    15.994914619570
         C           -1.797283184135    -0.901205364865     0.436777397341    12.000000000000
         C            1.800698815865    -0.901205364865    -0.445292602659    12.000000000000
         C           -2.704636184135    -1.871407364865    -0.288702602659    12.000000000000
         C            2.708051815865    -1.871408364865     0.280187397341    12.000000000000
         H           -1.036959184135    -1.437076364865     1.016277397341     1.007825032230
         H           -2.365320184135    -0.268590364865     1.126850397341     1.007825032230
         H            1.040373815865    -1.437077364865    -1.024792602659     1.007825032230
         H            2.368735815865    -0.268590364865    -1.135365602659     1.007825032230
         H           -3.222044184135    -2.515876364865     0.428248397341     1.007825032230
         H           -3.453655184135    -1.329453364865    -0.871367602659     1.007825032230
         H           -2.124322184135    -2.501602364865    -0.967173602659     1.007825032230
         H            3.225459815865    -2.515876364865    -0.436763602659     1.007825032230
         H            3.457070815865    -1.329453364865     0.862852397341     1.007825032230
         H            2.127737815865    -2.501602364865     0.958658397341     1.007825032230

  Basis Set: AUG-CC-PVTZ
    Blend: AUG-CC-PVTZ
  Basis Set: (AUG-CC-PVTZ AUX)
    Blend: AUG-CC-PVTZ-JKFIT
	 Reference Energy          =    -797.8321982222186080 [Eh]
	 Singles Energy            =      -0.0000000000000000 [Eh]
	 Same-Spin Energy          =      -0.4987854517853695 [Eh]
	 Opposite-Spin Energy      =      -1.5473024460425002 [Eh]
	 Correlation Energy        =      -2.0460878978278698 [Eh]
	 Total Energy              =    -799.8782861200464822 [Eh]

	 ================> DF-SCS-MP2 Energies <==================
	-----------------------------------------------------------
	 SCS Same-Spin Scale       =       0.3333333333333333 [-]
	 SCS Opposite-Spin Scale   =       1.2000000000000000 [-]
	 SCS Same-Spin Energy      =      -0.1662618172617898 [Eh]
	 SCS Opposite-Spin Energy  =      -1.8567629352510002 [Eh]
	 SCS Correlation Energy    =      -2.0230247525127902 [Eh]
	 SCS Total Energy          =    -799.8552229747314186 [Eh]
	-----------------------------------------------------------

  Dipole Moment: [D]
     X:     0.0990      Y:    -7.7533      Z:    -0.2313     Total:     7.7573

*** Psi4 exiting successfully. Buy a developer a beer!
