                               Psi4 1.3.2 release

  ==> Input File <==

--------------------------------------------------------------------------
#psi4
#
memory 32 gb

molecule  {
-1 1
  P       -0.0010900    -1.0890910     0.0004590
  O       -1.1524220    -0.0281740     0.5594010
  O        1.1618522    -0.0322188    -0.5629623
  O        0.5034080    -1.8082920     1.2241620
  O       -0.5057790    -1.8082590    -1.2231120
  C       -1.8201030     0.7715450    -0.4363210
  C        1.8136140     0.7766970     0.4358730
  C       -2.6746040     1.7890640     0.2877210
  C        2.6862580     1.7776730    -0.2896530
  H       -1.0739810     1.2667980    -1.0678550
  H       -2.4287840     0.1238470    -1.0755890
  H        1.0712112     1.2899475     1.0573543
  H        2.4084330     0.1312990     1.0903160
  H       -3.2148500     2.4129370    -0.4309050
  H       -3.4044660     1.2870150     0.9274370
  H       -2.0509410     2.4359130     0.9094240
  H        3.2222650     2.4062160     0.4280610
  H        3.4201870     1.2611760    -0.9129680
  H        2.0763540     2.4215040    -0.9279010
units angstrom
no_reorient  #important for SAPT in psi4, default
symmetry c1  #important for SAPT in psi4, default
}

set PROPERTIES_ORIGIN ["COM"]
properties('MP2/aug-cc-pvtz', properties = ['dipole'])
--------------------------------------------------------------------------

    Molecular point group: c1
  Charge       = -1
  Multiplicity = 1
  Basis Set: AUG-CC-PVTZ
    Blend: AUG-CC-PVTZ
  Basis Set: (AUG-CC-PVTZ AUX)
    Blend: AUG-CC-PVTZ-JKFIT

    Orbital Energies [Eh]
    ---------------------

    Doubly Occupied:

       1A    -79.880030     2A    -20.405564     3A    -20.404874
       4A    -20.304065     5A    -20.303992     6A    -11.145389
       7A    -11.144383     8A    -11.105258     9A    -11.104347
      10A     -7.395461    11A     -5.294297    12A     -5.293436
      13A     -5.292052    14A     -1.234424    15A     -1.187725
      16A     -1.099515    17A     -1.059724    18A     -0.894479
      19A     -0.890460    20A     -0.714122    21A     -0.712534
      22A     -0.599905    23A     -0.538940    24A     -0.528914
      25A     -0.507139    26A     -0.457986    27A     -0.449398
      28A     -0.442292    29A     -0.423271    30A     -0.422679
      31A     -0.400922    32A     -0.398954    33A     -0.367068
      34A     -0.360928    35A     -0.331056    36A     -0.307746
      37A     -0.305966    38A     -0.284366    39A     -0.266848
      40A     -0.251148    41A     -0.236775

  @DF-RHF Final Energy:  -797.83817333700415

   => Energetics <=

    Nuclear Repulsion Energy =            612.7679814729680174
    One-Electron Energy =               -2331.7154406005470264
    Two-Electron Energy =                 921.1092857905747451
    Total Energy =                       -797.8381733370041502
  Basis Set: (AUG-CC-PVTZ AUX)
    Blend: AUG-CC-PVTZ-RI
    Molecular point group: c1

    Geometry (in Angstrom), charge = -1, multiplicity = 1:

       Center              X                  Y                   Z               Mass
    ------------   -----------------  -----------------  -----------------  -----------------
         P           -0.002179689973    -0.984461777196     0.000832499931    30.973761998420
         O           -1.153511689973     0.076455222804     0.559774499931    15.994914619570
         O            1.160762510027     0.072410422804    -0.562588800069    15.994914619570
         O            0.502318310027    -1.703662777196     1.224535499931    15.994914619570
         O           -0.506868689973    -1.703629777196    -1.222738500069    15.994914619570
         C           -1.821192689973     0.876174222804    -0.435947500069    12.000000000000
         C            1.812524310027     0.881326222804     0.436246499931    12.000000000000
         C           -2.675693689973     1.893693222804     0.288094499931    12.000000000000
         C            2.685168310027     1.882302222804    -0.289279500069    12.000000000000
         H           -1.075070689973     1.371427222804    -1.067481500069     1.007825032230
         H           -2.429873689973     0.228476222804    -1.075215500069     1.007825032230
         H            1.070121510027     1.394576722804     1.057727799931     1.007825032230
         H            2.407343310027     0.235928222804     1.090689499931     1.007825032230
         H           -3.215939689973     2.517566222804    -0.430531500069     1.007825032230
         H           -3.405555689973     1.391644222804     0.927810499931     1.007825032230
         H           -2.052030689973     2.540542222804     0.909797499931     1.007825032230
         H            3.221175310027     2.510845222804     0.428434499931     1.007825032230
         H            3.419097310027     1.365805222804    -0.912594500069     1.007825032230
         H            2.075264310027     2.526133222804    -0.927527500069     1.007825032230

  Basis Set: AUG-CC-PVTZ
    Blend: AUG-CC-PVTZ
  Basis Set: (AUG-CC-PVTZ AUX)
    Blend: AUG-CC-PVTZ-JKFIT
	 Reference Energy          =    -797.8381733370041502 [Eh]
	 Singles Energy            =      -0.0000000000000000 [Eh]
	 Same-Spin Energy          =      -0.4979960099359783 [Eh]
	 Opposite-Spin Energy      =      -1.5453777959013504 [Eh]
	 Correlation Energy        =      -2.0433738058373287 [Eh]
	 Total Energy              =    -799.8815471428414412 [Eh]

	 ================> DF-SCS-MP2 Energies <==================
	-----------------------------------------------------------
	 SCS Same-Spin Scale       =       0.3333333333333333 [-]
	 SCS Opposite-Spin Scale   =       1.2000000000000000 [-]
	 SCS Same-Spin Energy      =      -0.1659986699786594 [Eh]
	 SCS Opposite-Spin Energy  =      -1.8544533550816205 [Eh]
	 SCS Correlation Energy    =      -2.0204520250602798 [Eh]
	 SCS Total Energy          =    -799.8586253620644584 [Eh]
	-----------------------------------------------------------

  Dipole Moment: [D]
     X:    -0.0502      Y:     7.4877      Z:     0.0069     Total:     7.4879

*** Psi4 exiting successfully. Buy a developer a beer!
