                               Psi4 1.3.2 release

  ==> Input File <==

--------------------------------------------------------------------------
#psi4
#
memory 32 gb

molecule  {
-1 1
  P       -0.0010900    -1.0890910     0.0004590
  O       -1.1524220    -0.0281740     0.5594010
  O        1.1506610    -0.0285350    -0.5585640
  O        0.5034080    -1.8082920     1.2241620
  O       -0.5057790    -1.8082590    -1.2231120
  C       -1.8201030     0.7715450    -0.4363210
  C        1.7216084     0.6649457     0.2978635
  C       -2.6746040     1.7890640     0.2877210
  C        2.6862580     1.7776730    -0.2896530
  H       -1.0739810     1.2667980    -1.0678550
  H       -2.4287840     0.1238470    -1.0755890
  H        1.0642060     1.2858700     1.0522800
  H        2.4084330     0.1312990     1.0903160
  H       -3.2148500     2.4129370    -0.4309050
  H       -3.4044660     1.2870150     0.9274370
  H       -2.0509410     2.4359130     0.9094240
  H        3.2222650     2.4062160     0.4280610
  H        3.4201870     1.2611760    -0.9129680
  H        2.0763540     2.4215040    -0.9279010
units angstrom
no_reorient  #important for SAPT in psi4, default
symmetry c1  #important for SAPT in psi4, default
}

set PROPERTIES_ORIGIN ["COM"]
properties('MP2/aug-cc-pvtz', properties = ['dipole'])
--------------------------------------------------------------------------

    Molecular point group: c1
  Charge       = -1
  Multiplicity = 1
  Basis Set: AUG-CC-PVTZ
    Blend: AUG-CC-PVTZ
  Basis Set: (AUG-CC-PVTZ AUX)
    Blend: AUG-CC-PVTZ-JKFIT

    Orbital Energies [Eh]
    ---------------------

    Doubly Occupied:

       1A    -79.892688     2A    -20.424457     3A    -20.412136
       4A    -20.313378     5A    -20.312571     6A    -11.152026
       7A    -11.149990     8A    -11.107334     9A    -11.097470
      10A     -7.408379    11A     -5.307337    12A     -5.306280
      13A     -5.304740    14A     -1.308911    15A     -1.215675
      16A     -1.112298    17A     -1.068441    18A     -0.896486
      19A     -0.866939    20A     -0.719739    21A     -0.713034
      22A     -0.623977    23A     -0.561344    24A     -0.537621
      25A     -0.509382    26A     -0.496217    27A     -0.455528
      28A     -0.449271    29A     -0.429515    30A     -0.425936
      31A     -0.410805    32A     -0.405044    33A     -0.368533
      34A     -0.349050    35A     -0.324569    36A     -0.302861
      37A     -0.292625    38A     -0.277184    39A     -0.266587
      40A     -0.260503    41A     -0.245445

  @DF-RHF Final Energy:  -797.80245546274796

   => Energetics <=

    Nuclear Repulsion Energy =            617.2463863190650954
    One-Electron Energy =               -2339.9330738823509819
    Two-Electron Energy =                 924.8842321005379290
    Total Energy =                       -797.8024554627479574
  Basis Set: (AUG-CC-PVTZ AUX)
    Blend: AUG-CC-PVTZ-RI
    Molecular point group: c1

    Geometry (in Angstrom), charge = -1, multiplicity = 1:

       Center              X                  Y                   Z               Mass
    ------------   -----------------  -----------------  -----------------  -----------------
         P            0.006250783913    -0.976056961817     0.011228240664    30.973761998420
         O           -1.145081216087     0.084860038183     0.570170240664    15.994914619570
         O            1.158001783913     0.084499038183    -0.547794759336    15.994914619570
         O            0.510748783913    -1.695257961817     1.234931240664    15.994914619570
         O           -0.498438216087    -1.695224961817    -1.212342759336    15.994914619570
         C           -1.812762216087     0.884579038183    -0.425551759336    12.000000000000
         C            1.728949183913     0.777979738183     0.308632740664    12.000000000000
         C           -2.667263216087     1.902098038183     0.298490240664    12.000000000000
         C            2.693598783913     1.890707038183    -0.278883759336    12.000000000000
         H           -1.066640216087     1.379832038183    -1.057085759336     1.007825032230
         H           -2.421443216087     0.236881038183    -1.064819759336     1.007825032230
         H            1.071546783913     1.398904038183     1.063049240664     1.007825032230
         H            2.415773783913     0.244333038183     1.101085240664     1.007825032230
         H           -3.207509216087     2.525971038183    -0.420135759336     1.007825032230
         H           -3.397125216087     1.400049038183     0.938206240664     1.007825032230
         H           -2.043600216087     2.548947038183     0.920193240664     1.007825032230
         H            3.229605783913     2.519250038183     0.438830240664     1.007825032230
         H            3.427527783913     1.374210038183    -0.902198759336     1.007825032230
         H            2.083694783913     2.534538038183    -0.917131759336     1.007825032230

  Basis Set: AUG-CC-PVTZ
    Blend: AUG-CC-PVTZ
  Basis Set: (AUG-CC-PVTZ AUX)
    Blend: AUG-CC-PVTZ-JKFIT
	 Reference Energy          =    -797.8024554627479574 [Eh]
	 Singles Energy            =      -0.0000000000000000 [Eh]
	 Same-Spin Energy          =      -0.4987894385375964 [Eh]
	 Opposite-Spin Energy      =      -1.5447516524241443 [Eh]
	 Correlation Energy        =      -2.0435410909617406 [Eh]
	 Total Energy              =    -799.8459965537097105 [Eh]

	 ================> DF-SCS-MP2 Energies <==================
	-----------------------------------------------------------
	 SCS Same-Spin Scale       =       0.3333333333333333 [-]
	 SCS Opposite-Spin Scale   =       1.2000000000000000 [-]
	 SCS Same-Spin Energy      =      -0.1662631461791988 [Eh]
	 SCS Opposite-Spin Energy  =      -1.8537019829089729 [Eh]
	 SCS Correlation Energy    =      -2.0199651290881717 [Eh]
	 SCS Total Energy          =    -799.8224205918361349 [Eh]
	-----------------------------------------------------------

  Dipole Moment: [D]
     X:    -0.7749      Y:     6.7753      Z:    -0.4586     Total:     6.8348

*** Psi4 exiting successfully. Buy a developer a beer!
