                               Psi4 1.3.2 release

  ==> Input File <==

--------------------------------------------------------------------------
#psi4
#
memory 32 gb

molecule  {
-1 1
  P       -0.0010900    -1.0890910     0.0004590
  O       -1.1524220    -0.0281740     0.5594010
  O        1.1506610    -0.0285350    -0.5585640
  O        0.5057831    -1.7967140     1.2299169
  O       -0.5081506    -1.7966814    -1.2288680
  C       -1.8201030     0.7715450    -0.4363210
  C        1.8136140     0.7766970     0.4358730
  C       -2.6746040     1.7890640     0.2877210
  C        2.6862580     1.7776730    -0.2896530
  H       -1.0739810     1.2667980    -1.0678550
  H       -2.4287840     0.1238470    -1.0755890
  H        1.0642060     1.2858700     1.0522800
  H        2.4084330     0.1312990     1.0903160
  H       -3.2148500     2.4129370    -0.4309050
  H       -3.4044660     1.2870150     0.9274370
  H       -2.0509410     2.4359130     0.9094240
  H        3.2222650     2.4062160     0.4280610
  H        3.4201870     1.2611760    -0.9129680
  H        2.0763540     2.4215040    -0.9279010
units angstrom
no_reorient  #important for SAPT in psi4, default
symmetry c1  #important for SAPT in psi4, default
}

set PROPERTIES_ORIGIN ["COM"]
properties('MP2/aug-cc-pvtz', properties = ['dipole'])
--------------------------------------------------------------------------

    Molecular point group: c1
  Charge       = -1
  Multiplicity = 1
  Basis Set: AUG-CC-PVTZ
    Blend: AUG-CC-PVTZ
  Basis Set: (AUG-CC-PVTZ AUX)
    Blend: AUG-CC-PVTZ-JKFIT

    Orbital Energies [Eh]
    ---------------------

    Doubly Occupied:

       1A    -79.879476     2A    -20.403853     3A    -20.403836
       4A    -20.304553     5A    -20.304517     6A    -11.144333
       7A    -11.144294     8A    -11.104552     9A    -11.104515
      10A     -7.394984    11A     -5.293846    12A     -5.292995
      13A     -5.291560    14A     -1.234748    15A     -1.187109
      16A     -1.099305    17A     -1.060726    18A     -0.894116
      19A     -0.890174    20A     -0.713604    21A     -0.712468
      22A     -0.599322    23A     -0.538630    24A     -0.528807
      25A     -0.506521    26A     -0.457925    27A     -0.449036
      28A     -0.442376    29A     -0.423136    30A     -0.422497
      31A     -0.400684    32A     -0.398614    33A     -0.367269
      34A     -0.360342    35A     -0.330676    36A     -0.307135
      37A     -0.305078    38A     -0.284627    39A     -0.266703
      40A     -0.251807    41A     -0.237718

  @DF-RHF Final Energy:  -797.83876911115829

   => Energetics <=

    Nuclear Repulsion Energy =            613.2721859562187774
    One-Electron Energy =               -2332.7449715041625495
    Two-Electron Energy =                 921.6340164367853731
    Total Energy =                       -797.8387691111582853
  Basis Set: (AUG-CC-PVTZ AUX)
    Blend: AUG-CC-PVTZ-RI
    Molecular point group: c1

    Geometry (in Angstrom), charge = -1, multiplicity = 1:

       Center              X                  Y                   Z               Mass
    ------------   -----------------  -----------------  -----------------  -----------------
         P           -0.000964213979    -0.987240185761     0.000406321274    30.973761998420
         O           -1.152296213979     0.073676814239     0.559348321274    15.994914619570
         O            1.150786786021     0.073315814239    -0.558616678726    15.994914619570
         O            0.505908886021    -1.694863185761     1.229864221274    15.994914619570
         O           -0.508024813979    -1.694830585761    -1.228920678726    15.994914619570
         C           -1.819977213979     0.873395814239    -0.436373678726    12.000000000000
         C            1.813739786021     0.878547814239     0.435820321274    12.000000000000
         C           -2.674478213979     1.890914814239     0.287668321274    12.000000000000
         C            2.686383786021     1.879523814239    -0.289705678726    12.000000000000
         H           -1.073855213979     1.368648814239    -1.067907678726     1.007825032230
         H           -2.428658213979     0.225697814239    -1.075641678726     1.007825032230
         H            1.064331786021     1.387720814239     1.052227321274     1.007825032230
         H            2.408558786021     0.233149814239     1.090263321274     1.007825032230
         H           -3.214724213979     2.514787814239    -0.430957678726     1.007825032230
         H           -3.404340213979     1.388865814239     0.927384321274     1.007825032230
         H           -2.050815213979     2.537763814239     0.909371321274     1.007825032230
         H            3.222390786021     2.508066814239     0.428008321274     1.007825032230
         H            3.420312786021     1.363026814239    -0.913020678726     1.007825032230
         H            2.076479786021     2.523354814239    -0.927953678726     1.007825032230

  Basis Set: AUG-CC-PVTZ
    Blend: AUG-CC-PVTZ
  Basis Set: (AUG-CC-PVTZ AUX)
    Blend: AUG-CC-PVTZ-JKFIT
	 Reference Energy          =    -797.8387691111582853 [Eh]
	 Singles Energy            =      -0.0000000000000000 [Eh]
	 Same-Spin Energy          =      -0.4979649598821165 [Eh]
	 Opposite-Spin Energy      =      -1.5452070126710624 [Eh]
	 Correlation Energy        =      -2.0431719725531789 [Eh]
	 Total Energy              =    -799.8819410837114674 [Eh]

	 ================> DF-SCS-MP2 Energies <==================
	-----------------------------------------------------------
	 SCS Same-Spin Scale       =       0.3333333333333333 [-]
	 SCS Opposite-Spin Scale   =       1.2000000000000000 [-]
	 SCS Same-Spin Energy      =      -0.1659883199607055 [Eh]
	 SCS Opposite-Spin Energy  =      -1.8542484152052747 [Eh]
	 SCS Correlation Energy    =      -2.0202367351659802 [Eh]
	 SCS Total Energy          =    -799.8590058463242940 [Eh]
	-----------------------------------------------------------

  Dipole Moment: [D]
     X:    -0.0007      Y:     7.4210      Z:    -0.0034     Total:     7.4210

*** Psi4 exiting successfully. Buy a developer a beer!
