                               Psi4 1.3.2 release

  ==> Input File <==

--------------------------------------------------------------------------
#psi4
#
memory 32 gb

molecule  {
-1 1
  P       -0.0010900    -1.0890910     0.0004590
  O       -1.2041135    -0.0534360     0.4940982
  O        1.1506610    -0.0285350    -0.5585640
  O        0.5034080    -1.8082920     1.2241620
  O       -0.5730089    -1.7675237    -1.2167828
  C       -1.8201030     0.7715450    -0.4363210
  C        1.8136140     0.7766970     0.4358730
  C       -2.6746040     1.7890640     0.2877210
  C        2.6862580     1.7776730    -0.2896530
  H       -1.0739810     1.2667980    -1.0678550
  H       -2.4287840     0.1238470    -1.0755890
  H        1.0642060     1.2858700     1.0522800
  H        2.4084330     0.1312990     1.0903160
  H       -3.2148500     2.4129370    -0.4309050
  H       -3.4044660     1.2870150     0.9274370
  H       -2.0509410     2.4359130     0.9094240
  H        3.2222650     2.4062160     0.4280610
  H        3.4201870     1.2611760    -0.9129680
  H        2.0763540     2.4215040    -0.9279010
units angstrom
no_reorient  #important for SAPT in psi4, default
symmetry c1  #important for SAPT in psi4, default
}

set PROPERTIES_ORIGIN ["COM"]
properties('MP2/aug-cc-pvtz', properties = ['dipole'])
--------------------------------------------------------------------------

    Molecular point group: c1
  Charge       = -1
  Multiplicity = 1
  Basis Set: AUG-CC-PVTZ
    Blend: AUG-CC-PVTZ
  Basis Set: (AUG-CC-PVTZ AUX)
    Blend: AUG-CC-PVTZ-JKFIT

    Orbital Energies [Eh]
    ---------------------

    Doubly Occupied:

       1A    -79.882320     2A    -20.409049     3A    -20.396487
       4A    -20.311589     5A    -20.300413     6A    -11.148210
       7A    -11.136074     8A    -11.106855     9A    -11.100494
      10A     -7.397616    11A     -5.296530    12A     -5.295681
      13A     -5.294116    14A     -1.241726    15A     -1.196566
      16A     -1.102164    17A     -1.062017    18A     -0.895550
      19A     -0.886439    20A     -0.716620    21A     -0.711312
      22A     -0.603071    23A     -0.543827    24A     -0.530593
      25A     -0.508882    26A     -0.462071    27A     -0.449018
      28A     -0.445582    29A     -0.425101    30A     -0.423451
      31A     -0.402540    32A     -0.400797    33A     -0.368571
      34A     -0.358378    35A     -0.328611    36A     -0.308876
      37A     -0.297804    38A     -0.285279    39A     -0.269467
      40A     -0.250568    41A     -0.238920

  @DF-RHF Final Energy:  -797.83811843829494

   => Energetics <=

    Nuclear Repulsion Energy =            614.0887848453147626
    One-Electron Energy =               -2334.2753351301917064
    Two-Electron Energy =                 922.3484318465818887
    Total Energy =                       -797.8381184382949414
  Basis Set: (AUG-CC-PVTZ AUX)
    Blend: AUG-CC-PVTZ-RI
    Molecular point group: c1

    Geometry (in Angstrom), charge = -1, multiplicity = 1:

       Center              X                  Y                   Z               Mass
    ------------   -----------------  -----------------  -----------------  -----------------
         P            0.011465851064    -0.986437229537     0.006570144079    30.973761998420
         O           -1.191557648936     0.049217770463     0.500209344079    15.994914619570
         O            1.163216851064     0.074118770463    -0.552452855921    15.994914619570
         O            0.515963851064    -1.705638229537     1.230273144079    15.994914619570
         O           -0.560453048936    -1.664869929537    -1.210671655921    15.994914619570
         C           -1.807547148936     0.874198770463    -0.430209855921    12.000000000000
         C            1.826169851064     0.879350770463     0.441984144079    12.000000000000
         C           -2.662048148936     1.891717770463     0.293832144079    12.000000000000
         C            2.698813851064     1.880326770463    -0.283541855921    12.000000000000
         H           -1.061425148936     1.369451770463    -1.061743855921     1.007825032230
         H           -2.416228148936     0.226500770463    -1.069477855921     1.007825032230
         H            1.076761851064     1.388523770463     1.058391144079     1.007825032230
         H            2.420988851064     0.233952770463     1.096427144079     1.007825032230
         H           -3.202294148936     2.515590770463    -0.424793855921     1.007825032230
         H           -3.391910148936     1.389668770463     0.933548144079     1.007825032230
         H           -2.038385148936     2.538566770463     0.915535144079     1.007825032230
         H            3.234820851064     2.508869770463     0.434172144079     1.007825032230
         H            3.432742851064     1.363829770463    -0.906856855921     1.007825032230
         H            2.088909851064     2.524157770463    -0.921789855921     1.007825032230

  Basis Set: AUG-CC-PVTZ
    Blend: AUG-CC-PVTZ
  Basis Set: (AUG-CC-PVTZ AUX)
    Blend: AUG-CC-PVTZ-JKFIT
	 Reference Energy          =    -797.8381184382949414 [Eh]
	 Singles Energy            =      -0.0000000000000000 [Eh]
	 Same-Spin Energy          =      -0.4977149164605581 [Eh]
	 Opposite-Spin Energy      =      -1.5438604350442442 [Eh]
	 Correlation Energy        =      -2.0415753515048021 [Eh]
	 Total Energy              =    -799.8796937897997168 [Eh]

	 ================> DF-SCS-MP2 Energies <==================
	-----------------------------------------------------------
	 SCS Same-Spin Scale       =       0.3333333333333333 [-]
	 SCS Opposite-Spin Scale   =       1.2000000000000000 [-]
	 SCS Same-Spin Energy      =      -0.1659049721535193 [Eh]
	 SCS Opposite-Spin Energy  =      -1.8526325220530930 [Eh]
	 SCS Correlation Energy    =      -2.0185374942066123 [Eh]
	 SCS Total Energy          =    -799.8566559325015533 [Eh]
	-----------------------------------------------------------

  Dipole Moment: [D]
     X:     0.4671      Y:     7.3087      Z:     0.1856     Total:     7.3260

*** Psi4 exiting successfully. Buy a developer a beer!
