                               Psi4 1.4a3.dev225

  ==> Input File <==

--------------------------------------------------------------------------
#psi4
#
memory 32 gb

molecule  {
-1 1
  P        0.0000000     1.0872980     0.0000000
  O       -1.1564220     0.0305830    -0.5476420
  O        1.1912649    -0.0012558     0.5641424
  O        0.4924450     1.8091740    -1.2276720
  O       -0.4924450     1.8091740     1.2276720
  C       -1.7989910    -0.7944120     0.4410350
  C        1.7989910    -0.7944120    -0.4410350
  C       -2.7063440    -1.7646140    -0.2844450
  C        2.7063440    -1.7646150     0.2844450
  H       -1.0386670    -1.3302830     1.0205350
  H       -2.3670280    -0.1617970     1.1311080
  H        1.0386660    -1.3302840    -1.0205350
  H        2.3670280    -0.1617970    -1.1311080
  H       -3.2237520    -2.4090830     0.4325060
  H       -3.4553630    -1.2226600    -0.8671100
  H       -2.1260300    -2.3948090    -0.9629160
  H        3.2237520    -2.4090830    -0.4325060
  H        3.4553630    -1.2226600     0.8671100
  H        2.1260300    -2.3948090     0.9629160
units angstrom
no_reorient  #important for SAPT in psi4, default
symmetry c1  #important for SAPT in psi4, default
}

set PROPERTIES_ORIGIN ["COM"]
properties('MP2/aug-cc-pvtz', properties = ['dipole'])
--------------------------------------------------------------------------

    Molecular point group: c1
  Charge       = -1
  Multiplicity = 1
  Basis Set: AUG-CC-PVTZ
    Blend: AUG-CC-PVTZ
  Basis Set: (AUG-CC-PVTZ AUX)
    Blend: AUG-CC-PVTZ-JKFIT

    Orbital Energies [Eh]
    ---------------------

    Doubly Occupied:

       1A    -79.885143     2A    -20.408838     3A    -20.403624
       4A    -20.307930     5A    -20.307637     6A    -11.147150
       7A    -11.139598     8A    -11.106347     9A    -11.100684
      10A     -7.400076    11A     -5.298872    12A     -5.298002
      13A     -5.296641    14A     -1.234555    15A     -1.190206
      16A     -1.103417    17A     -1.062363    18A     -0.894948
      19A     -0.885914    20A     -0.715918    21A     -0.708491
      22A     -0.601373    23A     -0.539817    24A     -0.529801
      25A     -0.507164    26A     -0.457885    27A     -0.449596
      28A     -0.443543    29A     -0.422541    30A     -0.420910
      31A     -0.402279    32A     -0.398828    33A     -0.367179
      34A     -0.359823    35A     -0.333290    36A     -0.307666
      37A     -0.302585    38A     -0.286183    39A     -0.269090
      40A     -0.254106    41A     -0.239908

  @DF-RHF Final Energy:  -797.83588508149285

   => Energetics <=

    Nuclear Repulsion Energy =            611.8009879634528261
    One-Electron Energy =               -2329.6939032112031782
    Two-Electron Energy =                 920.0570301662575048
    Total Energy =                       -797.8358850814928473
  Basis Set: (AUG-CC-PVTZ AUX)
    Blend: AUG-CC-PVTZ-RI
    Molecular point group: c1

    Geometry (in Angstrom), charge = -1, multiplicity = 1:

       Center              X                  Y                   Z               Mass
    ------------   -----------------  -----------------  -----------------  -----------------
         P           -0.003641783429     0.986335926637    -0.001724626594    30.973761998420
         O           -1.160063783429    -0.070379073363    -0.549366626594    15.994914619570
         O            1.187623116571    -0.102217873363     0.562417773406    15.994914619570
         O            0.488803216571     1.708211926637    -1.229396626594    15.994914619570
         O           -0.496086783429     1.708211926637     1.225947373406    15.994914619570
         C           -1.802632783429    -0.895374073363     0.439310373406    12.000000000000
         C            1.795349216571    -0.895374073363    -0.442759626594    12.000000000000
         C           -2.709985783429    -1.865576073363    -0.286169626594    12.000000000000
         C            2.702702216571    -1.865577073363     0.282720373406    12.000000000000
         H           -1.042308783429    -1.431245073363     1.018810373406     1.007825032230
         H           -2.370669783429    -0.262759073363     1.129383373406     1.007825032230
         H            1.035024216571    -1.431246073363    -1.022259626594     1.007825032230
         H            2.363386216571    -0.262759073363    -1.132832626594     1.007825032230
         H           -3.227393783429    -2.510045073363     0.430781373406     1.007825032230
         H           -3.459004783429    -1.323622073363    -0.868834626594     1.007825032230
         H           -2.129671783429    -2.495771073363    -0.964640626594     1.007825032230
         H            3.220110216571    -2.510045073363    -0.434230626594     1.007825032230
         H            3.451721216571    -1.323622073363     0.865385373406     1.007825032230
         H            2.122388216571    -2.495771073363     0.961191373406     1.007825032230

  Basis Set: AUG-CC-PVTZ
    Blend: AUG-CC-PVTZ
  Basis Set: (AUG-CC-PVTZ AUX)
    Blend: AUG-CC-PVTZ-JKFIT
	 Reference Energy          =    -797.8358850814928473 [Eh]
	 Singles Energy            =      -0.0000000000000000 [Eh]
	 Same-Spin Energy          =      -0.4984511303757987 [Eh]
	 Opposite-Spin Energy      =      -1.5462721015706093 [Eh]
	 Correlation Energy        =      -2.0447232319464081 [Eh]
	 Total Energy              =    -799.8806083134392111 [Eh]

	 ================> DF-SCS-MP2 Energies <==================
	-----------------------------------------------------------
	 SCS Same-Spin Scale       =       0.3333333333333333 [-]
	 SCS Opposite-Spin Scale   =       1.2000000000000000 [-]
	 SCS Same-Spin Energy      =      -0.1661503767919329 [Eh]
	 SCS Opposite-Spin Energy  =      -1.8555265218847312 [Eh]
	 SCS Correlation Energy    =      -2.0216768986766640 [Eh]
	 SCS Total Energy          =    -799.8575619801695211 [Eh]
	-----------------------------------------------------------

  Dipole Moment: [D]
     X:    -0.2929      Y:    -7.3263      Z:    -0.0271     Total:     7.3322

*** Psi4 exiting successfully. Buy a developer a beer!
