                               Psi4 1.3.2 release

  ==> Input File <==

--------------------------------------------------------------------------
#psi4
#
memory 32 gb

molecule  {
-1 1
  P       -0.0010900    -1.0890910     0.0004590
  O       -1.1524220    -0.0281740     0.5594010
  O        1.1594981    -0.0325472    -0.5477805
  O        0.5147164    -1.8016398     1.2233389
  O       -0.5057790    -1.8082590    -1.2231120
  C       -1.8201030     0.7715450    -0.4363210
  C        1.8136140     0.7766970     0.4358730
  C       -2.6746040     1.7890640     0.2877210
  C        2.6862580     1.7776730    -0.2896530
  H       -1.0739810     1.2667980    -1.0678550
  H       -2.4287840     0.1238470    -1.0755890
  H        1.0642060     1.2858700     1.0522800
  H        2.4084330     0.1312990     1.0903160
  H       -3.2148500     2.4129370    -0.4309050
  H       -3.4044660     1.2870150     0.9274370
  H       -2.0509410     2.4359130     0.9094240
  H        3.2222650     2.4062160     0.4280610
  H        3.4201870     1.2611760    -0.9129680
  H        2.0763540     2.4215040    -0.9279010
units angstrom
no_reorient  #important for SAPT in psi4, default
symmetry c1  #important for SAPT in psi4, default
}

set PROPERTIES_ORIGIN ["COM"]
properties('MP2/aug-cc-pvtz', properties = ['dipole'])
--------------------------------------------------------------------------

    Molecular point group: c1
  Charge       = -1
  Multiplicity = 1
  Basis Set: AUG-CC-PVTZ
    Blend: AUG-CC-PVTZ
  Basis Set: (AUG-CC-PVTZ AUX)
    Blend: AUG-CC-PVTZ-JKFIT

    Orbital Energies [Eh]
    ---------------------

    Doubly Occupied:

       1A    -79.879745     2A    -20.405361     3A    -20.403348
       4A    -20.305022     5A    -20.303141     6A    -11.145488
       7A    -11.143410     8A    -11.105278     9A    -11.104174
      10A     -7.395230    11A     -5.294095    12A     -5.293217
      13A     -5.291814    14A     -1.236159    15A     -1.189269
      16A     -1.099638    17A     -1.059940    18A     -0.894470
      19A     -0.890230    20A     -0.714386    21A     -0.712783
      22A     -0.600486    23A     -0.539830    24A     -0.529539
      25A     -0.507329    26A     -0.458903    27A     -0.449097
      28A     -0.443067    29A     -0.423597    30A     -0.423252
      31A     -0.401168    32A     -0.399348    33A     -0.367262
      34A     -0.360345    35A     -0.330305    36A     -0.307547
      37A     -0.304949    38A     -0.284520    39A     -0.266920
      40A     -0.251166    41A     -0.236982

  @DF-RHF Final Energy:  -797.83923332623283

   => Energetics <=

    Nuclear Repulsion Energy =            613.2526255528066486
    One-Electron Energy =               -2332.6801026146413278
    Two-Electron Energy =                 921.5882437356018499
    Total Energy =                       -797.8392333262328293
  Basis Set: (AUG-CC-PVTZ AUX)
    Blend: AUG-CC-PVTZ-RI
    Molecular point group: c1

    Geometry (in Angstrom), charge = -1, multiplicity = 1:

       Center              X                  Y                   Z               Mass
    ------------   -----------------  -----------------  -----------------  -----------------
         P           -0.003069461661    -0.985095889298    -0.000634857596    30.973761998420
         O           -1.154401461661     0.075821110702     0.558307142404    15.994914619570
         O            1.157518638339     0.071447910702    -0.548874357596    15.994914619570
         O            0.512736938339    -1.697644689298     1.222245042404    15.994914619570
         O           -0.507758461661    -1.704263889298    -1.224205857596    15.994914619570
         C           -1.822082461661     0.875540110702    -0.437414857596    12.000000000000
         C            1.811634538339     0.880692110702     0.434779142404    12.000000000000
         C           -2.676583461661     1.893059110702     0.286627142404    12.000000000000
         C            2.684278538339     1.881668110702    -0.290746857596    12.000000000000
         H           -1.075960461661     1.370793110702    -1.068948857596     1.007825032230
         H           -2.430763461661     0.227842110702    -1.076682857596     1.007825032230
         H            1.062226538339     1.389865110702     1.051186142404     1.007825032230
         H            2.406453538339     0.235294110702     1.089222142404     1.007825032230
         H           -3.216829461661     2.516932110702    -0.431998857596     1.007825032230
         H           -3.406445461661     1.391010110702     0.926343142404     1.007825032230
         H           -2.052920461661     2.539908110702     0.908330142404     1.007825032230
         H            3.220285538339     2.510211110702     0.426967142404     1.007825032230
         H            3.418207538339     1.365171110702    -0.914061857596     1.007825032230
         H            2.074374538339     2.525499110702    -0.928994857596     1.007825032230

  Basis Set: AUG-CC-PVTZ
    Blend: AUG-CC-PVTZ
  Basis Set: (AUG-CC-PVTZ AUX)
    Blend: AUG-CC-PVTZ-JKFIT
	 Reference Energy          =    -797.8392333262328293 [Eh]
	 Singles Energy            =      -0.0000000000000000 [Eh]
	 Same-Spin Energy          =      -0.4978511503236109 [Eh]
	 Opposite-Spin Energy      =      -1.5448541876217652 [Eh]
	 Correlation Energy        =      -2.0427053379453759 [Eh]
	 Total Energy              =    -799.8819386641781648 [Eh]

	 ================> DF-SCS-MP2 Energies <==================
	-----------------------------------------------------------
	 SCS Same-Spin Scale       =       0.3333333333333333 [-]
	 SCS Opposite-Spin Scale   =       1.2000000000000000 [-]
	 SCS Same-Spin Energy      =      -0.1659503834412036 [Eh]
	 SCS Opposite-Spin Energy  =      -1.8538250251461181 [Eh]
	 SCS Correlation Energy    =      -2.0197754085873219 [Eh]
	 SCS Total Energy          =    -799.8590087348201223 [Eh]
	-----------------------------------------------------------

  Dipole Moment: [D]
     X:    -0.0776      Y:     7.4690      Z:    -0.0344     Total:     7.4695

*** Psi4 exiting successfully. Buy a developer a beer!
