                               Psi4 1.4a3.dev225

  ==> Input File <==

--------------------------------------------------------------------------
#psi4
#
memory 32 gb

molecule  {
-1 1
  P        0.0000000     1.0872980     0.0000000
  O       -1.1564220     0.0305830    -0.5476420
  O        1.1564220     0.0305830     0.5476420
  O        0.4924450     1.8091740    -1.2276720
  O       -0.4924450     1.8091740     1.2276720
  C       -1.7989910    -0.7944120     0.4410350
  C        1.8213165    -0.8230757    -0.4753857
  C       -2.7063440    -1.7646140    -0.2844450
  C        2.7063440    -1.7646150     0.2844450
  H       -1.0386670    -1.3302830     1.0205350
  H       -2.3670280    -0.1617970     1.1311080
  H        1.0386660    -1.3302840    -1.0205350
  H        2.3670280    -0.1617970    -1.1311080
  H       -3.2237520    -2.4090830     0.4325060
  H       -3.4553630    -1.2226600    -0.8671100
  H       -2.1260300    -2.3948090    -0.9629160
  H        3.2237520    -2.4090830    -0.4325060
  H        3.4553630    -1.2226600     0.8671100
  H        2.1260300    -2.3948090     0.9629160
units angstrom
no_reorient  #important for SAPT in psi4, default
symmetry c1  #important for SAPT in psi4, default
}

set PROPERTIES_ORIGIN ["COM"]
properties('MP2/aug-cc-pvtz', properties = ['dipole'])
--------------------------------------------------------------------------

    Molecular point group: c1
  Charge       = -1
  Multiplicity = 1
  Basis Set: AUG-CC-PVTZ
    Blend: AUG-CC-PVTZ
  Basis Set: (AUG-CC-PVTZ AUX)
    Blend: AUG-CC-PVTZ-JKFIT

    Orbital Energies [Eh]
    ---------------------

    Doubly Occupied:

       1A    -79.876104     2A    -20.403442     3A    -20.400397
       4A    -20.301142     5A    -20.300946     6A    -11.146169
       7A    -11.144513     8A    -11.107249     9A    -11.104796
      10A     -7.391631    11A     -5.290507    12A     -5.289601
      13A     -5.288253    14A     -1.229535    15A     -1.178566
      16A     -1.095371    17A     -1.056577    18A     -0.899950
      19A     -0.891828    20A     -0.717342    21A     -0.713290
      22A     -0.595738    23A     -0.534981    24A     -0.530852
      25A     -0.508930    26A     -0.456178    27A     -0.449293
      28A     -0.442243    29A     -0.422833    30A     -0.419353
      31A     -0.400107    32A     -0.396856    33A     -0.370276
      34A     -0.363289    35A     -0.327870    36A     -0.311198
      37A     -0.305092    38A     -0.281727    39A     -0.264291
      40A     -0.247717    41A     -0.233500

  @DF-RHF Final Energy:  -797.83511187495719

   => Energetics <=

    Nuclear Repulsion Energy =            612.1612787161626557
    One-Electron Energy =               -2330.6137099273078093
    Two-Electron Energy =                 920.6173193361880749
    Total Energy =                       -797.8351118749571924
  Basis Set: (AUG-CC-PVTZ AUX)
    Blend: AUG-CC-PVTZ-RI
    Molecular point group: c1

    Geometry (in Angstrom), charge = -1, multiplicity = 1:

       Center              X                  Y                   Z               Mass
    ------------   -----------------  -----------------  -----------------  -----------------
         P           -0.001750650638     0.985255794095     0.002693614974    30.973761998420
         O           -1.158172650638    -0.071459205905    -0.544948385026    15.994914619570
         O            1.154671349362    -0.071459205905     0.550335614974    15.994914619570
         O            0.490694349362     1.707131794095    -1.224978385026    15.994914619570
         O           -0.494195650638     1.707131794095     1.230365614974    15.994914619570
         C           -1.800741650638    -0.896454205905     0.443728614974    12.000000000000
         C            1.819565849362    -0.925117905905    -0.472692085026    12.000000000000
         C           -2.708094650638    -1.866656205905    -0.281751385026    12.000000000000
         C            2.704593349362    -1.866657205905     0.287138614974    12.000000000000
         H           -1.040417650638    -1.432325205905     1.023228614974     1.007825032230
         H           -2.368778650638    -0.263839205905     1.133801614974     1.007825032230
         H            1.036915349362    -1.432326205905    -1.017841385026     1.007825032230
         H            2.365277349362    -0.263839205905    -1.128414385026     1.007825032230
         H           -3.225502650638    -2.511125205905     0.435199614974     1.007825032230
         H           -3.457113650638    -1.324702205905    -0.864416385026     1.007825032230
         H           -2.127780650638    -2.496851205905    -0.960222385026     1.007825032230
         H            3.222001349362    -2.511125205905    -0.429812385026     1.007825032230
         H            3.453612349362    -1.324702205905     0.869803614974     1.007825032230
         H            2.124279349362    -2.496851205905     0.965609614974     1.007825032230

  Basis Set: AUG-CC-PVTZ
    Blend: AUG-CC-PVTZ
  Basis Set: (AUG-CC-PVTZ AUX)
    Blend: AUG-CC-PVTZ-JKFIT
	 Reference Energy          =    -797.8351118749571924 [Eh]
	 Singles Energy            =      -0.0000000000000000 [Eh]
	 Same-Spin Energy          =      -0.4980367970328009 [Eh]
	 Opposite-Spin Energy      =      -1.5456836609529401 [Eh]
	 Correlation Energy        =      -2.0437204579857409 [Eh]
	 Total Energy              =    -799.8788323329429204 [Eh]

	 ================> DF-SCS-MP2 Energies <==================
	-----------------------------------------------------------
	 SCS Same-Spin Scale       =       0.3333333333333333 [-]
	 SCS Opposite-Spin Scale   =       1.2000000000000000 [-]
	 SCS Same-Spin Energy      =      -0.1660122656776003 [Eh]
	 SCS Opposite-Spin Energy  =      -1.8548203931435281 [Eh]
	 SCS Correlation Energy    =      -2.0208326588211283 [Eh]
	 SCS Total Energy          =    -799.8559445337783700 [Eh]
	-----------------------------------------------------------

  Dipole Moment: [D]
     X:     0.1458      Y:    -7.7172      Z:    -0.0796     Total:     7.7190

*** Psi4 exiting successfully. Buy a developer a beer!
