                               Psi4 1.3.2 release

  ==> Input File <==

--------------------------------------------------------------------------
#psi4
#
memory 32 gb

molecule  {
-1 1
  P       -0.0010900    -1.0890910     0.0004590
  O       -1.1635917    -0.0317034     0.5639768
  O        1.1506610    -0.0285350    -0.5585640
  O        0.5034080    -1.8082920     1.2241620
  O       -0.5057790    -1.8082590    -1.2231120
  C       -1.8201030     0.7715450    -0.4363210
  C        1.8136140     0.7766970     0.4358730
  C       -2.6746040     1.7890640     0.2877210
  C        2.6862580     1.7776730    -0.2896530
  H       -1.0810126     1.2708790    -1.0728897
  H       -2.4287840     0.1238470    -1.0755890
  H        1.0642060     1.2858700     1.0522800
  H        2.4084330     0.1312990     1.0903160
  H       -3.2148500     2.4129370    -0.4309050
  H       -3.4044660     1.2870150     0.9274370
  H       -2.0509410     2.4359130     0.9094240
  H        3.2222650     2.4062160     0.4280610
  H        3.4201870     1.2611760    -0.9129680
  H        2.0763540     2.4215040    -0.9279010
units angstrom
no_reorient  #important for SAPT in psi4, default
symmetry c1  #important for SAPT in psi4, default
}

set PROPERTIES_ORIGIN ["COM"]
properties('MP2/aug-cc-pvtz', properties = ['dipole'])
--------------------------------------------------------------------------

    Molecular point group: c1
  Charge       = -1
  Multiplicity = 1
  Basis Set: AUG-CC-PVTZ
    Blend: AUG-CC-PVTZ
  Basis Set: (AUG-CC-PVTZ AUX)
    Blend: AUG-CC-PVTZ-JKFIT

    Orbital Energies [Eh]
    ---------------------

    Doubly Occupied:

       1A    -79.880046     2A    -20.405564     3A    -20.404878
       4A    -20.304052     5A    -20.304032     6A    -11.145350
       7A    -11.144410     8A    -11.105221     9A    -11.104379
      10A     -7.395475    11A     -5.294311    12A     -5.293450
      13A     -5.292066    14A     -1.234406    15A     -1.187715
      16A     -1.099526    17A     -1.059735    18A     -0.894463
      19A     -0.890465    20A     -0.714108    21A     -0.712534
      22A     -0.599899    23A     -0.538936    24A     -0.528901
      25A     -0.507130    26A     -0.457969    27A     -0.449404
      28A     -0.442296    29A     -0.423246    30A     -0.422694
      31A     -0.400928    32A     -0.398948    33A     -0.367057
      34A     -0.360936    35A     -0.331060    36A     -0.307759
      37A     -0.305938    38A     -0.284381    39A     -0.266850
      40A     -0.251162    41A     -0.236786

  @DF-RHF Final Energy:  -797.83816514922921

   => Energetics <=

    Nuclear Repulsion Energy =            612.7633447803773379
    One-Electron Energy =               -2331.7060805480227828
    Two-Electron Energy =                 921.1045706184162327
    Total Energy =                       -797.8381651492292121
  Basis Set: (AUG-CC-PVTZ AUX)
    Blend: AUG-CC-PVTZ-RI
    Molecular point group: c1

    Geometry (in Angstrom), charge = -1, multiplicity = 1:

       Center              X                  Y                   Z               Mass
    ------------   -----------------  -----------------  -----------------  -----------------
         P            0.000249920335    -0.984477938179    -0.000038900475    30.973761998420
         O           -1.162251779665     0.072909661821     0.563478899525    15.994914619570
         O            1.152000920335     0.076078061821    -0.559061900475    15.994914619570
         O            0.504747920335    -1.703678938179     1.223664099525    15.994914619570
         O           -0.504439079665    -1.703645938179    -1.223609900475    15.994914619570
         C           -1.818763079665     0.876158061821    -0.436818900475    12.000000000000
         C            1.814953920335     0.881310061821     0.435375099525    12.000000000000
         C           -2.673264079665     1.893677061821     0.287223099525    12.000000000000
         C            2.687597920335     1.882286061821    -0.290150900475    12.000000000000
         H           -1.079672679665     1.375492061821    -1.073387600475     1.007825032230
         H           -2.427444079665     0.228460061821    -1.076086900475     1.007825032230
         H            1.065545920335     1.390483061821     1.051782099525     1.007825032230
         H            2.409772920335     0.235912061821     1.089818099525     1.007825032230
         H           -3.213510079665     2.517550061821    -0.431402900475     1.007825032230
         H           -3.403126079665     1.391628061821     0.926939099525     1.007825032230
         H           -2.049601079665     2.540526061821     0.908926099525     1.007825032230
         H            3.223604920335     2.510829061821     0.427563099525     1.007825032230
         H            3.421526920335     1.365789061821    -0.913465900475     1.007825032230
         H            2.077693920335     2.526117061821    -0.928398900475     1.007825032230

  Basis Set: AUG-CC-PVTZ
    Blend: AUG-CC-PVTZ
  Basis Set: (AUG-CC-PVTZ AUX)
    Blend: AUG-CC-PVTZ-JKFIT
	 Reference Energy          =    -797.8381651492292121 [Eh]
	 Singles Energy            =      -0.0000000000000000 [Eh]
	 Same-Spin Energy          =      -0.4979979648294153 [Eh]
	 Opposite-Spin Energy      =      -1.5453834023463759 [Eh]
	 Correlation Energy        =      -2.0433813671757912 [Eh]
	 Total Energy              =    -799.8815465164050238 [Eh]

	 ================> DF-SCS-MP2 Energies <==================
	-----------------------------------------------------------
	 SCS Same-Spin Scale       =       0.3333333333333333 [-]
	 SCS Opposite-Spin Scale   =       1.2000000000000000 [-]
	 SCS Same-Spin Energy      =      -0.1659993216098051 [Eh]
	 SCS Opposite-Spin Energy  =      -1.8544600828156510 [Eh]
	 SCS Correlation Energy    =      -2.0204594044254560 [Eh]
	 SCS Total Energy          =    -799.8586245536546357 [Eh]
	-----------------------------------------------------------

  Dipole Moment: [D]
     X:     0.0493      Y:     7.4870      Z:    -0.0142     Total:     7.4872

*** Psi4 exiting successfully. Buy a developer a beer!
