                               Psi4 1.3.2 release

  ==> Input File <==

--------------------------------------------------------------------------
#psi4
#
memory 32 gb

molecule  {
-1 1
  P       -0.0010900    -1.0890910     0.0004590
  O       -1.1524220    -0.0281740     0.5594010
  O        1.1506610    -0.0285350    -0.5585640
  O        0.5034080    -1.8082920     1.2241620
  O       -0.4722745    -1.7605160    -1.1418836
  C       -1.8201030     0.7715450    -0.4363210
  C        1.8136140     0.7766970     0.4358730
  C       -2.6746040     1.7890640     0.2877210
  C        2.6862580     1.7776730    -0.2896530
  H       -1.0739810     1.2667980    -1.0678550
  H       -2.4287840     0.1238470    -1.0755890
  H        1.0642060     1.2858700     1.0522800
  H        2.4084330     0.1312990     1.0903160
  H       -3.2148500     2.4129370    -0.4309050
  H       -3.4044660     1.2870150     0.9274370
  H       -2.0509410     2.4359130     0.9094240
  H        3.2222650     2.4062160     0.4280610
  H        3.4201870     1.2611760    -0.9129680
  H        2.0763540     2.4215040    -0.9279010
units angstrom
no_reorient  #important for SAPT in psi4, default
symmetry c1  #important for SAPT in psi4, default
}

set PROPERTIES_ORIGIN ["COM"]
properties('MP2/aug-cc-pvtz', properties = ['dipole'])
--------------------------------------------------------------------------

    Molecular point group: c1
  Charge       = -1
  Multiplicity = 1
  Basis Set: AUG-CC-PVTZ
    Blend: AUG-CC-PVTZ
  Basis Set: (AUG-CC-PVTZ AUX)
    Blend: AUG-CC-PVTZ-JKFIT

    Orbital Energies [Eh]
    ---------------------

    Doubly Occupied:

       1A    -79.857899     2A    -20.397894     3A    -20.397534
       4A    -20.299459     5A    -20.294588     6A    -11.142844
       7A    -11.140464     8A    -11.103267     9A    -11.102084
      10A     -7.378571    11A     -5.276831    12A     -5.276708
      13A     -5.275224    14A     -1.235200    15A     -1.182169
      16A     -1.127690    17A     -1.063606    18A     -0.891711
      19A     -0.887756    20A     -0.711135    21A     -0.709442
      22A     -0.593540    23A     -0.536911    24A     -0.525676
      25A     -0.504020    26A     -0.455153    27A     -0.448140
      28A     -0.441301    29A     -0.422545    30A     -0.420033
      31A     -0.402554    32A     -0.396372    33A     -0.370656
      34A     -0.360371    35A     -0.335264    36A     -0.305025
      37A     -0.301522    38A     -0.293156    39A     -0.277051
      40A     -0.249575    41A     -0.238304

  @DF-RHF Final Energy:  -797.83605062182426

   => Energetics <=

    Nuclear Repulsion Energy =            617.9114845123480109
    One-Electron Energy =               -2342.2365791182978683
    Two-Electron Energy =                 926.4890439841254874
    Total Energy =                       -797.8360506218242563
  Basis Set: (AUG-CC-PVTZ AUX)
    Blend: AUG-CC-PVTZ-RI
    Molecular point group: c1

    Geometry (in Angstrom), charge = -1, multiplicity = 1:

       Center              X                  Y                   Z               Mass
    ------------   -----------------  -----------------  -----------------  -----------------
         P           -0.004465748216    -0.989810067941    -0.008083809627    30.973761998420
         O           -1.155797748216     0.071106932059     0.550858190373    15.994914619570
         O            1.147285251784     0.070745932059    -0.567106809627    15.994914619570
         O            0.500032251784    -1.709011067941     1.215619190373    15.994914619570
         O           -0.475650248216    -1.661235067941    -1.150426409627    15.994914619570
         C           -1.823478748216     0.870825932059    -0.444863809627    12.000000000000
         C            1.810238251784     0.875977932059     0.427330190373    12.000000000000
         C           -2.677979748216     1.888344932059     0.279178190373    12.000000000000
         C            2.682882251784     1.876953932059    -0.298195809627    12.000000000000
         H           -1.077356748216     1.366078932059    -1.076397809627     1.007825032230
         H           -2.432159748216     0.223127932059    -1.084131809627     1.007825032230
         H            1.060830251784     1.385150932059     1.043737190373     1.007825032230
         H            2.405057251784     0.230579932059     1.081773190373     1.007825032230
         H           -3.218225748216     2.512217932059    -0.439447809627     1.007825032230
         H           -3.407841748216     1.386295932059     0.918894190373     1.007825032230
         H           -2.054316748216     2.535193932059     0.900881190373     1.007825032230
         H            3.218889251784     2.505496932059     0.419518190373     1.007825032230
         H            3.416811251784     1.360456932059    -0.921510809627     1.007825032230
         H            2.072978251784     2.520784932059    -0.936443809627     1.007825032230

  Basis Set: AUG-CC-PVTZ
    Blend: AUG-CC-PVTZ
  Basis Set: (AUG-CC-PVTZ AUX)
    Blend: AUG-CC-PVTZ-JKFIT
	 Reference Energy          =    -797.8360506218242563 [Eh]
	 Singles Energy            =      -0.0000000000000000 [Eh]
	 Same-Spin Energy          =      -0.4959178509129947 [Eh]
	 Opposite-Spin Energy      =      -1.5401671824156704 [Eh]
	 Correlation Energy        =      -2.0360850333286651 [Eh]
	 Total Energy              =    -799.8721356551528743 [Eh]

	 ================> DF-SCS-MP2 Energies <==================
	-----------------------------------------------------------
	 SCS Same-Spin Scale       =       0.3333333333333333 [-]
	 SCS Opposite-Spin Scale   =       1.2000000000000000 [-]
	 SCS Same-Spin Energy      =      -0.1653059503043315 [Eh]
	 SCS Opposite-Spin Energy  =      -1.8482006188988045 [Eh]
	 SCS Correlation Energy    =      -2.0135065692031362 [Eh]
	 SCS Total Energy          =    -799.8495571910274293 [Eh]
	-----------------------------------------------------------

  Dipole Moment: [D]
     X:    -0.2053      Y:     7.1412      Z:    -0.4637     Total:     7.1592

*** Psi4 exiting successfully. Buy a developer a beer!
