                               Psi4 1.3.2 release

  ==> Input File <==

--------------------------------------------------------------------------
#psi4
#
memory 32 gb

molecule  {
-1 1
  P        0.0095162    -1.0705774     0.0544223
  O       -1.1524220    -0.0281740     0.5594010
  O        1.1506610    -0.0285350    -0.5585640
  O        0.5034080    -1.8082920     1.2241620
  O       -0.5057790    -1.8082590    -1.2231120
  C       -1.8201030     0.7715450    -0.4363210
  C        1.7857789     0.7543071     0.4712873
  C       -2.6746040     1.7890640     0.2877210
  C        2.6862580     1.7776730    -0.2896530
  H       -1.0739810     1.2667980    -1.0678550
  H       -2.4287840     0.1238470    -1.0755890
  H        1.0642060     1.2858700     1.0522800
  H        2.4084330     0.1312990     1.0903160
  H       -3.2148500     2.4129370    -0.4309050
  H       -3.4044660     1.2870150     0.9274370
  H       -2.0509410     2.4359130     0.9094240
  H        3.2222650     2.4062160     0.4280610
  H        3.4201870     1.2611760    -0.9129680
  H        2.0763540     2.4215040    -0.9279010
units angstrom
no_reorient  #important for SAPT in psi4, default
symmetry c1  #important for SAPT in psi4, default
}

set PROPERTIES_ORIGIN ["COM"]
properties('MP2/aug-cc-pvtz', properties = ['dipole'])
--------------------------------------------------------------------------

    Molecular point group: c1
  Charge       = -1
  Multiplicity = 1
  Basis Set: AUG-CC-PVTZ
    Blend: AUG-CC-PVTZ
  Basis Set: (AUG-CC-PVTZ AUX)
    Blend: AUG-CC-PVTZ-JKFIT

    Orbital Energies [Eh]
    ---------------------

    Doubly Occupied:

       1A    -79.878720     2A    -20.408742     3A    -20.407889
       4A    -20.311238     5A    -20.291197     6A    -11.147533
       7A    -11.144985     8A    -11.106589     9A    -11.106028
      10A     -7.394647    11A     -5.293446    12A     -5.292687
      13A     -5.291127    14A     -1.241063    15A     -1.193081
      16A     -1.108973    17A     -1.039438    18A     -0.896035
      19A     -0.882965    20A     -0.719658    21A     -0.717228
      22A     -0.603647    23A     -0.541216    24A     -0.533492
      25A     -0.510270    26A     -0.460171    27A     -0.449771
      28A     -0.440666    29A     -0.425770    30A     -0.421358
      31A     -0.404182    32A     -0.403252    33A     -0.368344
      34A     -0.355805    35A     -0.330958    36A     -0.315601
      37A     -0.308623    38A     -0.281923    39A     -0.275101
      40A     -0.235891    41A     -0.227297

  @DF-RHF Final Energy:  -797.83017205124816

   => Energetics <=

    Nuclear Repulsion Energy =            613.6551503740118960
    One-Electron Energy =               -2333.4374313786865969
    Two-Electron Energy =                 921.9521089534264320
    Total Energy =                       -797.8301720512481552
  Basis Set: (AUG-CC-PVTZ AUX)
    Blend: AUG-CC-PVTZ-RI
    Molecular point group: c1

    Geometry (in Angstrom), charge = -1, multiplicity = 1:

       Center              X                  Y                   Z               Mass
    ------------   -----------------  -----------------  -----------------  -----------------
         P            0.009678339723    -0.968297819581     0.040670263524    30.973761998420
         O           -1.152259860277     0.074105580419     0.545648963524    15.994914619570
         O            1.150823139723     0.073744580419    -0.572316036476    15.994914619570
         O            0.503570139723    -1.706012419581     1.210409963524    15.994914619570
         O           -0.505616860277    -1.705979419581    -1.236864036476    15.994914619570
         C           -1.819940860277     0.873824580419    -0.450073036476    12.000000000000
         C            1.785941039723     0.856586680419     0.457535263524    12.000000000000
         C           -2.674441860277     1.891343580419     0.273968963524    12.000000000000
         C            2.686420139723     1.879952580419    -0.303405036476    12.000000000000
         H           -1.073818860277     1.369077580419    -1.081607036476     1.007825032230
         H           -2.428621860277     0.226126580419    -1.089341036476     1.007825032230
         H            1.064368139723     1.388149580419     1.038527963524     1.007825032230
         H            2.408595139723     0.233578580419     1.076563963524     1.007825032230
         H           -3.214687860277     2.515216580419    -0.444657036476     1.007825032230
         H           -3.404303860277     1.389294580419     0.913684963524     1.007825032230
         H           -2.050778860277     2.538192580419     0.895671963524     1.007825032230
         H            3.222427139723     2.508495580419     0.414308963524     1.007825032230
         H            3.420349139723     1.363455580419    -0.926720036476     1.007825032230
         H            2.076516139723     2.523783580419    -0.941653036476     1.007825032230

  Basis Set: AUG-CC-PVTZ
    Blend: AUG-CC-PVTZ
  Basis Set: (AUG-CC-PVTZ AUX)
    Blend: AUG-CC-PVTZ-JKFIT
	 Reference Energy          =    -797.8301720512481552 [Eh]
	 Singles Energy            =      -0.0000000000000000 [Eh]
	 Same-Spin Energy          =      -0.4979190971216307 [Eh]
	 Opposite-Spin Energy      =      -1.5454518762993541 [Eh]
	 Correlation Energy        =      -2.0433709734209846 [Eh]
	 Total Energy              =    -799.8735430246691749 [Eh]

	 ================> DF-SCS-MP2 Energies <==================
	-----------------------------------------------------------
	 SCS Same-Spin Scale       =       0.3333333333333333 [-]
	 SCS Opposite-Spin Scale   =       1.2000000000000000 [-]
	 SCS Same-Spin Energy      =      -0.1659730323738769 [Eh]
	 SCS Opposite-Spin Energy  =      -1.8545422515592249 [Eh]
	 SCS Correlation Energy    =      -2.0205152839331020 [Eh]
	 SCS Total Energy          =    -799.8506873351813056 [Eh]
	-----------------------------------------------------------

  Dipole Moment: [D]
     X:     0.0505      Y:     7.6851      Z:     0.6217     Total:     7.7104

*** Psi4 exiting successfully. Buy a developer a beer!
