                               Psi4 1.3.2 release

  ==> Input File <==

--------------------------------------------------------------------------
#psi4
#
memory 32 gb

molecule  {
-1 1
  P       -0.0010900    -1.0890910     0.0004590
  O       -1.1872425    -0.0446963     0.5160250
  O        1.1506610    -0.0285350    -0.5585640
  O        0.5034080    -1.8082920     1.2241620
  O       -0.5507641    -1.7813143    -1.2192643
  C       -1.8201030     0.7715450    -0.4363210
  C        1.8136140     0.7766970     0.4358730
  C       -2.6746040     1.7890640     0.2877210
  C        2.6862580     1.7776730    -0.2896530
  H       -1.0739810     1.2667980    -1.0678550
  H       -2.4287840     0.1238470    -1.0755890
  H        1.0642060     1.2858700     1.0522800
  H        2.4084330     0.1312990     1.0903160
  H       -3.2148500     2.4129370    -0.4309050
  H       -3.4044660     1.2870150     0.9274370
  H       -2.0509410     2.4359130     0.9094240
  H        3.2222650     2.4062160     0.4280610
  H        3.4201870     1.2611760    -0.9129680
  H        2.0763540     2.4215040    -0.9279010
units angstrom
no_reorient  #important for SAPT in psi4, default
symmetry c1  #important for SAPT in psi4, default
}

set PROPERTIES_ORIGIN ["COM"]
properties('MP2/aug-cc-pvtz', properties = ['dipole'])
--------------------------------------------------------------------------

    Molecular point group: c1
  Charge       = -1
  Multiplicity = 1
  Basis Set: AUG-CC-PVTZ
    Blend: AUG-CC-PVTZ
  Basis Set: (AUG-CC-PVTZ AUX)
    Blend: AUG-CC-PVTZ-JKFIT

    Orbital Energies [Eh]
    ---------------------

    Doubly Occupied:

       1A    -79.881260     2A    -20.407571     3A    -20.399328
       4A    -20.308963     5A    -20.301550     6A    -11.147111
       7A    -11.139002     8A    -11.106213     9A    -11.101983
      10A     -7.396633    11A     -5.295524    12A     -5.294669
      13A     -5.293170    14A     -1.239419    15A     -1.193708
      16A     -1.101093    17A     -1.061283    18A     -0.894926
      19A     -0.888151    20A     -0.715687    21A     -0.711864
      22A     -0.602125    23A     -0.542252    24A     -0.530175
      25A     -0.508249    26A     -0.460744    27A     -0.448844
      28A     -0.444719    29A     -0.424569    30A     -0.423464
      31A     -0.401954    32A     -0.400233    33A     -0.368030
      34A     -0.359023    35A     -0.329304    36A     -0.308361
      37A     -0.300856    38A     -0.285064    39A     -0.268161
      40A     -0.251267    41A     -0.238312

  @DF-RHF Final Energy:  -797.83936201591519

   => Energetics <=

    Nuclear Repulsion Energy =            613.7469174347909302
    One-Electron Energy =               -2333.6229305421184108
    Two-Electron Energy =                 922.0366510914122955
    Total Energy =                       -797.8393620159151851
  Basis Set: (AUG-CC-PVTZ AUX)
    Blend: AUG-CC-PVTZ-RI
    Molecular point group: c1

    Geometry (in Angstrom), charge = -1, multiplicity = 1:

       Center              X                  Y                   Z               Mass
    ------------   -----------------  -----------------  -----------------  -----------------
         P            0.007377456302    -0.985909308003     0.004537715683    30.973761998420
         O           -1.178775043698     0.058485391997     0.520103715683    15.994914619570
         O            1.159128456302     0.074646691997    -0.554485284317    15.994914619570
         O            0.511875456302    -1.705110308003     1.228240715683    15.994914619570
         O           -0.542296643698    -1.678132608003    -1.215185584317    15.994914619570
         C           -1.811635543698     0.874726691997    -0.432242284317    12.000000000000
         C            1.822081456302     0.879878691997     0.439951715683    12.000000000000
         C           -2.666136543698     1.892245691997     0.291799715683    12.000000000000
         C            2.694725456302     1.880854691997    -0.285574284317    12.000000000000
         H           -1.065513543698     1.369979691997    -1.063776284317     1.007825032230
         H           -2.420316543698     0.227028691997    -1.071510284317     1.007825032230
         H            1.072673456302     1.389051691997     1.056358715683     1.007825032230
         H            2.416900456302     0.234480691997     1.094394715683     1.007825032230
         H           -3.206382543698     2.516118691997    -0.426826284317     1.007825032230
         H           -3.395998543698     1.390196691997     0.931515715683     1.007825032230
         H           -2.042473543698     2.539094691997     0.913502715683     1.007825032230
         H            3.230732456302     2.509397691997     0.432139715683     1.007825032230
         H            3.428654456302     1.364357691997    -0.908889284317     1.007825032230
         H            2.084821456302     2.524685691997    -0.923822284317     1.007825032230

  Basis Set: AUG-CC-PVTZ
    Blend: AUG-CC-PVTZ
  Basis Set: (AUG-CC-PVTZ AUX)
    Blend: AUG-CC-PVTZ-JKFIT
	 Reference Energy          =    -797.8393620159151851 [Eh]
	 Singles Energy            =      -0.0000000000000000 [Eh]
	 Same-Spin Energy          =      -0.4977345392495098 [Eh]
	 Opposite-Spin Energy      =      -1.5441871971698931 [Eh]
	 Correlation Energy        =      -2.0419217364194027 [Eh]
	 Total Energy              =    -799.8812837523346388 [Eh]

	 ================> DF-SCS-MP2 Energies <==================
	-----------------------------------------------------------
	 SCS Same-Spin Scale       =       0.3333333333333333 [-]
	 SCS Opposite-Spin Scale   =       1.2000000000000000 [-]
	 SCS Same-Spin Energy      =      -0.1659115130831699 [Eh]
	 SCS Opposite-Spin Energy  =      -1.8530246366038716 [Eh]
	 SCS Correlation Energy    =      -2.0189361496870415 [Eh]
	 SCS Total Energy          =    -799.8582981656022639 [Eh]
	-----------------------------------------------------------

  Dipole Moment: [D]
     X:     0.3099      Y:     7.3742      Z:     0.1219     Total:     7.3817

*** Psi4 exiting successfully. Buy a developer a beer!
