                               Psi4 1.3.2 release

  ==> Input File <==

--------------------------------------------------------------------------
#psi4
#
memory 32 gb

molecule  {
-1 1
  P       -0.0010900    -1.0890910     0.0004590
  O       -1.1850302    -0.0734859     0.5752271
  O        1.1832556    -0.0738611    -0.5743887
  O        0.5034080    -1.8082920     1.2241620
  O       -0.5057790    -1.8082590    -1.2231120
  C       -1.8201030     0.7715450    -0.4363210
  C        1.8136140     0.7766970     0.4358730
  C       -2.6746040     1.7890640     0.2877210
  C        2.6862580     1.7776730    -0.2896530
  H       -1.0739810     1.2667980    -1.0678550
  H       -2.4287840     0.1238470    -1.0755890
  H        1.0642060     1.2858700     1.0522800
  H        2.4084330     0.1312990     1.0903160
  H       -3.2148500     2.4129370    -0.4309050
  H       -3.4044660     1.2870150     0.9274370
  H       -2.0509410     2.4359130     0.9094240
  H        3.2222650     2.4062160     0.4280610
  H        3.4201870     1.2611760    -0.9129680
  H        2.0763540     2.4215040    -0.9279010
units angstrom
no_reorient  #important for SAPT in psi4, default
symmetry c1  #important for SAPT in psi4, default
}

set PROPERTIES_ORIGIN ["COM"]
properties('MP2/aug-cc-pvtz', properties = ['dipole'])
--------------------------------------------------------------------------

    Molecular point group: c1
  Charge       = -1
  Multiplicity = 1
  Basis Set: AUG-CC-PVTZ
    Blend: AUG-CC-PVTZ
  Basis Set: (AUG-CC-PVTZ AUX)
    Blend: AUG-CC-PVTZ-JKFIT

    Orbital Energies [Eh]
    ---------------------

    Doubly Occupied:

       1A    -79.877017     2A    -20.407655     3A    -20.407637
       4A    -20.299544     5A    -20.299512     6A    -11.148164
       7A    -11.148161     8A    -11.106915     9A    -11.106869
      10A     -7.392637    11A     -5.291367    12A     -5.290734
      13A     -5.289172    14A     -1.229703    15A     -1.184040
      16A     -1.094501    17A     -1.056147    18A     -0.896333
      19A     -0.893332    20A     -0.714479    21A     -0.714211
      22A     -0.596996    23A     -0.536785    24A     -0.527178
      25A     -0.508600    26A     -0.455690    27A     -0.450861
      28A     -0.440305    29A     -0.423801    30A     -0.422896
      31A     -0.400138    32A     -0.397776    33A     -0.367907
      34A     -0.364017    35A     -0.330115    36A     -0.310939
      37A     -0.310478    38A     -0.280366    39A     -0.263110
      40A     -0.247193    41A     -0.232692

  @DF-RHF Final Energy:  -797.83367953318225

   => Energetics <=

    Nuclear Repulsion Energy =            611.7007477837385068
    One-Electron Energy =               -2329.6369122801320373
    Two-Electron Energy =                 920.1024849632112819
    Total Energy =                       -797.8336795331822486
  Basis Set: (AUG-CC-PVTZ AUX)
    Blend: AUG-CC-PVTZ-RI
    Molecular point group: c1

    Geometry (in Angstrom), charge = -1, multiplicity = 1:

       Center              X                  Y                   Z               Mass
    ------------   -----------------  -----------------  -----------------  -----------------
         P           -0.000962426682    -0.975346445682     0.000406059973    30.973761998420
         O           -1.184902626682     0.040258654318     0.575174159973    15.994914619570
         O            1.183383173318     0.039883454318    -0.574441640027    15.994914619570
         O            0.503535573318    -1.694547445682     1.224109059973    15.994914619570
         O           -0.505651426682    -1.694514445682    -1.223164940027    15.994914619570
         C           -1.819975426682     0.885289554318    -0.436373940027    12.000000000000
         C            1.813741573318     0.890441554318     0.435820059973    12.000000000000
         C           -2.674476426682     1.902808554318     0.287668059973    12.000000000000
         C            2.686385573318     1.891417554318    -0.289705940027    12.000000000000
         H           -1.073853426682     1.380542554318    -1.067907940027     1.007825032230
         H           -2.428656426682     0.237591554318    -1.075641940027     1.007825032230
         H            1.064333573318     1.399614554318     1.052227059973     1.007825032230
         H            2.408560573318     0.245043554318     1.090263059973     1.007825032230
         H           -3.214722426682     2.526681554318    -0.430957940027     1.007825032230
         H           -3.404338426682     1.400759554318     0.927384059973     1.007825032230
         H           -2.050813426682     2.549657554318     0.909371059973     1.007825032230
         H            3.222392573318     2.519960554318     0.428008059973     1.007825032230
         H            3.420314573318     1.374920554318    -0.913020940027     1.007825032230
         H            2.076481573318     2.535248554318    -0.927953940027     1.007825032230

  Basis Set: AUG-CC-PVTZ
    Blend: AUG-CC-PVTZ
  Basis Set: (AUG-CC-PVTZ AUX)
    Blend: AUG-CC-PVTZ-JKFIT
	 Reference Energy          =    -797.8336795331822486 [Eh]
	 Singles Energy            =      -0.0000000000000000 [Eh]
	 Same-Spin Energy          =      -0.4981509961661216 [Eh]
	 Opposite-Spin Energy      =      -1.5463666102512126 [Eh]
	 Correlation Energy        =      -2.0445176064173340 [Eh]
	 Total Energy              =    -799.8781971395995924 [Eh]

	 ================> DF-SCS-MP2 Energies <==================
	-----------------------------------------------------------
	 SCS Same-Spin Scale       =       0.3333333333333333 [-]
	 SCS Opposite-Spin Scale   =       1.2000000000000000 [-]
	 SCS Same-Spin Energy      =      -0.1660503320553739 [Eh]
	 SCS Opposite-Spin Energy  =      -1.8556399323014550 [Eh]
	 SCS Correlation Energy    =      -2.0216902643568289 [Eh]
	 SCS Total Energy          =    -799.8553697975390833 [Eh]
	-----------------------------------------------------------

  Dipole Moment: [D]
     X:    -0.0004      Y:     7.7731      Z:    -0.0033     Total:     7.7731

*** Psi4 exiting successfully. Buy a developer a beer!
