                               Psi4 1.3.2 release

  ==> Input File <==

--------------------------------------------------------------------------
#psi4
#
memory 32 gb

molecule  {
-1 1
  P       -0.0010900    -1.0890910     0.0004590
  O       -1.1524220    -0.0281740     0.5594010
  O        1.1682468    -0.0366398    -0.5369552
  O        0.5259855    -1.7949333     1.2224227
  O       -0.5057790    -1.8082590    -1.2231120
  C       -1.8201030     0.7715450    -0.4363210
  C        1.8136140     0.7766970     0.4358730
  C       -2.6746040     1.7890640     0.2877210
  C        2.6862580     1.7776730    -0.2896530
  H       -1.0739810     1.2667980    -1.0678550
  H       -2.4287840     0.1238470    -1.0755890
  H        1.0642060     1.2858700     1.0522800
  H        2.4084330     0.1312990     1.0903160
  H       -3.2148500     2.4129370    -0.4309050
  H       -3.4044660     1.2870150     0.9274370
  H       -2.0509410     2.4359130     0.9094240
  H        3.2222650     2.4062160     0.4280610
  H        3.4201870     1.2611760    -0.9129680
  H        2.0763540     2.4215040    -0.9279010
units angstrom
no_reorient  #important for SAPT in psi4, default
symmetry c1  #important for SAPT in psi4, default
}

set PROPERTIES_ORIGIN ["COM"]
properties('MP2/aug-cc-pvtz', properties = ['dipole'])
--------------------------------------------------------------------------

    Molecular point group: c1
  Charge       = -1
  Multiplicity = 1
  Basis Set: AUG-CC-PVTZ
    Blend: AUG-CC-PVTZ
  Basis Set: (AUG-CC-PVTZ AUX)
    Blend: AUG-CC-PVTZ-JKFIT

    Orbital Energies [Eh]
    ---------------------

    Doubly Occupied:

       1A    -79.880236     2A    -20.406098     3A    -20.402043
       4A    -20.306347     5A    -20.302610     6A    -11.146043
       7A    -11.141932     8A    -11.105601     9A    -11.103431
      10A     -7.395684    11A     -5.294557    12A     -5.293688
      13A     -5.292254    14A     -1.237206    15A     -1.190756
      16A     -1.100101    17A     -1.060416    18A     -0.894526
      19A     -0.889635    20A     -0.714794    21A     -0.712472
      22A     -0.601058    23A     -0.540632    24A     -0.529751
      25A     -0.507638    26A     -0.459487    27A     -0.448970
      28A     -0.443629    29A     -0.423861    30A     -0.423421
      31A     -0.401425    32A     -0.399635    33A     -0.367503
      34A     -0.359864    35A     -0.330010    36A     -0.307722
      37A     -0.303756    38A     -0.284715    39A     -0.267247
      40A     -0.251345    41A     -0.237469

  @DF-RHF Final Energy:  -797.83953168722462

   => Energetics <=

    Nuclear Repulsion Energy =            613.4139933301938754
    One-Electron Energy =               -2332.9879209764153529
    Two-Electron Energy =                 921.7343959589967426
    Total Energy =                       -797.8395316872246212
  Basis Set: (AUG-CC-PVTZ AUX)
    Blend: AUG-CC-PVTZ-RI
    Molecular point group: c1

    Geometry (in Angstrom), charge = -1, multiplicity = 1:

       Center              X                  Y                   Z               Mass
    ------------   -----------------  -----------------  -----------------  -----------------
         P           -0.005161727923    -0.985369094884    -0.001670559602    30.973761998420
         O           -1.156493727923     0.075547905116     0.557271440398    15.994914619570
         O            1.164175072077     0.067082105116    -0.539084759602    15.994914619570
         O            0.521913772077    -1.691211394884     1.220293140398    15.994914619570
         O           -0.509850727923    -1.704537094884    -1.225241559602    15.994914619570
         C           -1.824174727923     0.875266905116    -0.438450559602    12.000000000000
         C            1.809542272077     0.880418905116     0.433743440398    12.000000000000
         C           -2.678675727923     1.892785905116     0.285591440398    12.000000000000
         C            2.682186272077     1.881394905116    -0.291782559602    12.000000000000
         H           -1.078052727923     1.370519905116    -1.069984559602     1.007825032230
         H           -2.432855727923     0.227568905116    -1.077718559602     1.007825032230
         H            1.060134272077     1.389591905116     1.050150440398     1.007825032230
         H            2.404361272077     0.235020905116     1.088186440398     1.007825032230
         H           -3.218921727923     2.516658905116    -0.433034559602     1.007825032230
         H           -3.408537727923     1.390736905116     0.925307440398     1.007825032230
         H           -2.055012727923     2.539634905116     0.907294440398     1.007825032230
         H            3.218193272077     2.509937905116     0.425931440398     1.007825032230
         H            3.416115272077     1.364897905116    -0.915097559602     1.007825032230
         H            2.072282272077     2.525225905116    -0.930030559602     1.007825032230

  Basis Set: AUG-CC-PVTZ
    Blend: AUG-CC-PVTZ
  Basis Set: (AUG-CC-PVTZ AUX)
    Blend: AUG-CC-PVTZ-JKFIT
	 Reference Energy          =    -797.8395316872246212 [Eh]
	 Singles Energy            =      -0.0000000000000000 [Eh]
	 Same-Spin Energy          =      -0.4978018867569611 [Eh]
	 Opposite-Spin Energy      =      -1.5446114947458107 [Eh]
	 Correlation Energy        =      -2.0424133815027719 [Eh]
	 Total Energy              =    -799.8819450687274184 [Eh]

	 ================> DF-SCS-MP2 Energies <==================
	-----------------------------------------------------------
	 SCS Same-Spin Scale       =       0.3333333333333333 [-]
	 SCS Opposite-Spin Scale   =       1.2000000000000000 [-]
	 SCS Same-Spin Energy      =      -0.1659339622523204 [Eh]
	 SCS Opposite-Spin Energy  =      -1.8535337936949727 [Eh]
	 SCS Correlation Energy    =      -2.0194677559472929 [Eh]
	 SCS Total Energy          =    -799.8589994431719106 [Eh]
	-----------------------------------------------------------

  Dipole Moment: [D]
     X:    -0.1550      Y:     7.4379      Z:    -0.0656     Total:     7.4398

*** Psi4 exiting successfully. Buy a developer a beer!
