                               Psi4 1.3.2 release

  ==> Input File <==

--------------------------------------------------------------------------
#psi4
#
memory 32 gb

molecule  {
-1 1
  P       -0.0010900    -1.0890910     0.0004590
  O       -1.1524220    -0.0281740     0.5594010
  O        1.1392299    -0.0413909    -0.5402154
  O        0.5034080    -1.8082920     1.2241620
  O       -0.5057790    -1.8082590    -1.2231120
  C       -1.8201030     0.7715450    -0.4363210
  C        1.8136140     0.7766970     0.4358730
  C       -2.6746040     1.7890640     0.2877210
  C        2.6940172     1.7874348    -0.2663718
  H       -1.0739810     1.2667980    -1.0678550
  H       -2.4287840     0.1238470    -1.0755890
  H        1.0642060     1.2858700     1.0522800
  H        2.4084330     0.1312990     1.0903160
  H       -3.2148500     2.4129370    -0.4309050
  H       -3.4044660     1.2870150     0.9274370
  H       -2.0509410     2.4359130     0.9094240
  H        3.2222650     2.4062160     0.4280610
  H        3.4201870     1.2611760    -0.9129680
  H        2.0763540     2.4215040    -0.9279010
units angstrom
no_reorient  #important for SAPT in psi4, default
symmetry c1  #important for SAPT in psi4, default
}

set PROPERTIES_ORIGIN ["COM"]
properties('MP2/aug-cc-pvtz', properties = ['dipole'])
--------------------------------------------------------------------------

    Molecular point group: c1
  Charge       = -1
  Multiplicity = 1
  Basis Set: AUG-CC-PVTZ
    Blend: AUG-CC-PVTZ
  Basis Set: (AUG-CC-PVTZ AUX)
    Blend: AUG-CC-PVTZ-JKFIT

    Orbital Energies [Eh]
    ---------------------

    Doubly Occupied:

       1A    -79.876981     2A    -20.405159     3A    -20.403042
       4A    -20.302640     5A    -20.301155     6A    -11.146692
       7A    -11.144384     8A    -11.106720     9A    -11.104554
      10A     -7.392796    11A     -5.291717    12A     -5.290781
      13A     -5.289382    14A     -1.237939    15A     -1.188824
      16A     -1.097635    17A     -1.057999    18A     -0.896521
      19A     -0.891190    20A     -0.716490    21A     -0.712773
      22A     -0.600582    23A     -0.540819    24A     -0.529163
      25A     -0.506285    26A     -0.459741    27A     -0.452036
      28A     -0.443591    29A     -0.428499    30A     -0.421906
      31A     -0.400955    32A     -0.397219    33A     -0.366893
      34A     -0.360192    35A     -0.328556    36A     -0.308221
      37A     -0.305781    38A     -0.283537    39A     -0.265836
      40A     -0.249221    41A     -0.234823

  @DF-RHF Final Energy:  -797.83885954792606

   => Energetics <=

    Nuclear Repulsion Energy =            613.7123083414909388
    One-Electron Energy =               -2333.6238784152251355
    Two-Electron Energy =                 922.0727105258082474
    Total Energy =                       -797.8388595479260630
  Basis Set: (AUG-CC-PVTZ AUX)
    Blend: AUG-CC-PVTZ-RI
    Molecular point group: c1

    Geometry (in Angstrom), charge = -1, multiplicity = 1:

       Center              X                  Y                   Z               Mass
    ------------   -----------------  -----------------  -----------------  -----------------
         P           -0.000377505030    -0.984241726256    -0.003337193267    30.973761998420
         O           -1.151709505030     0.076675273744     0.555604806733    15.994914619570
         O            1.139942394970     0.063458373744    -0.544011593267    15.994914619570
         O            0.504120494970    -1.703442726256     1.220365806733    15.994914619570
         O           -0.505066505030    -1.703409726256    -1.226908193267    15.994914619570
         C           -1.819390505030     0.876394273744    -0.440117193267    12.000000000000
         C            1.814326494970     0.881546273744     0.432076806733    12.000000000000
         C           -2.673891505030     1.893913273744     0.283924806733    12.000000000000
         C            2.694729694970     1.892284073744    -0.270167993267    12.000000000000
         H           -1.073268505030     1.371647273744    -1.071651193267     1.007825032230
         H           -2.428071505030     0.228696273744    -1.079385193267     1.007825032230
         H            1.064918494970     1.390719273744     1.048483806733     1.007825032230
         H            2.409145494970     0.236148273744     1.086519806733     1.007825032230
         H           -3.214137505030     2.517786273744    -0.434701193267     1.007825032230
         H           -3.403753505030     1.391864273744     0.923640806733     1.007825032230
         H           -2.050228505030     2.540762273744     0.905627806733     1.007825032230
         H            3.222977494970     2.511065273744     0.424264806733     1.007825032230
         H            3.420899494970     1.366025273744    -0.916764193267     1.007825032230
         H            2.077066494970     2.526353273744    -0.931697193267     1.007825032230

  Basis Set: AUG-CC-PVTZ
    Blend: AUG-CC-PVTZ
  Basis Set: (AUG-CC-PVTZ AUX)
    Blend: AUG-CC-PVTZ-JKFIT
	 Reference Energy          =    -797.8388595479260630 [Eh]
	 Singles Energy            =      -0.0000000000000000 [Eh]
	 Same-Spin Energy          =      -0.4975971922116363 [Eh]
	 Opposite-Spin Energy      =      -1.5442549116180935 [Eh]
	 Correlation Energy        =      -2.0418521038297297 [Eh]
	 Total Energy              =    -799.8807116517557461 [Eh]

	 ================> DF-SCS-MP2 Energies <==================
	-----------------------------------------------------------
	 SCS Same-Spin Scale       =       0.3333333333333333 [-]
	 SCS Opposite-Spin Scale   =       1.2000000000000000 [-]
	 SCS Same-Spin Energy      =      -0.1658657307372121 [Eh]
	 SCS Opposite-Spin Energy  =      -1.8531058939417120 [Eh]
	 SCS Correlation Energy    =      -2.0189716246789242 [Eh]
	 SCS Total Energy          =    -799.8578311726049606 [Eh]
	-----------------------------------------------------------

  Dipole Moment: [D]
     X:     0.1084      Y:     7.5999      Z:    -0.0234     Total:     7.6007

*** Psi4 exiting successfully. Buy a developer a beer!
