                               Psi4 1.3.2 release

  ==> Input File <==

--------------------------------------------------------------------------
#psi4
#
memory 32 gb

molecule  {
-1 1
  P       -0.0010900    -1.0890910     0.0004590
  O       -1.1524220    -0.0281740     0.5594010
  O        1.1506610    -0.0285350    -0.5585640
  O        0.5034080    -1.8082920     1.2241620
  O       -0.5057790    -1.8082590    -1.2231120
  C       -1.9127648     0.8825312    -0.5745088
  C        1.8136140     0.7766970     0.4358730
  C       -2.6746040     1.7890640     0.2877210
  C        2.6862580     1.7776730    -0.2896530
  H       -1.0739810     1.2667980    -1.0678550
  H       -2.4287840     0.1238470    -1.0755890
  H        1.0642060     1.2858700     1.0522800
  H        2.4084330     0.1312990     1.0903160
  H       -3.2148500     2.4129370    -0.4309050
  H       -3.4044660     1.2870150     0.9274370
  H       -2.0509410     2.4359130     0.9094240
  H        3.2222650     2.4062160     0.4280610
  H        3.4201870     1.2611760    -0.9129680
  H        2.0763540     2.4215040    -0.9279010
units angstrom
no_reorient  #important for SAPT in psi4, default
symmetry c1  #important for SAPT in psi4, default
}

set PROPERTIES_ORIGIN ["COM"]
properties('MP2/aug-cc-pvtz', properties = ['dipole'])
--------------------------------------------------------------------------

    Molecular point group: c1
  Charge       = -1
  Multiplicity = 1
  Basis Set: AUG-CC-PVTZ
    Blend: AUG-CC-PVTZ
  Basis Set: (AUG-CC-PVTZ AUX)
    Blend: AUG-CC-PVTZ-JKFIT

    Orbital Energies [Eh]
    ---------------------

    Doubly Occupied:

       1A    -79.868367     2A    -20.398676     3A    -20.385336
       4A    -20.296659     5A    -20.295559     6A    -11.153264
       7A    -11.140773     8A    -11.113956     9A    -11.102831
      10A     -7.383822    11A     -5.282662    12A     -5.281764
      13A     -5.280557    14A     -1.216907    15A     -1.147951
      16A     -1.084974    17A     -1.051976    18A     -0.917681
      19A     -0.889445    20A     -0.727520    21A     -0.709744
      22A     -0.583218    23A     -0.539009    24A     -0.520640
      25A     -0.508752    26A     -0.463353    27A     -0.448778
      28A     -0.441310    29A     -0.421065    30A     -0.413984
      31A     -0.404898    32A     -0.377286    33A     -0.374132
      34A     -0.357942    35A     -0.317280    36A     -0.311562
      37A     -0.298370    38A     -0.276092    39A     -0.256689
      40A     -0.241712    41A     -0.227800

  @DF-RHF Final Energy:  -797.80503767783409

   => Energetics <=

    Nuclear Repulsion Energy =            609.4499744084981785
    One-Electron Energy =               -2325.4814299117042538
    Two-Electron Energy =                 918.2264178253718683
    Total Energy =                       -797.8050376778340933
  Basis Set: (AUG-CC-PVTZ AUX)
    Blend: AUG-CC-PVTZ-RI
    Molecular point group: c1

    Geometry (in Angstrom), charge = -1, multiplicity = 1:

       Center              X                  Y                   Z               Mass
    ------------   -----------------  -----------------  -----------------  -----------------
         P            0.006302239929    -0.993522954223     0.011242222084    30.973761998420
         O           -1.145029760071     0.067394045777     0.570184222084    15.994914619570
         O            1.158053239929     0.067033045777    -0.547780777916    15.994914619570
         O            0.510800239929    -1.712723954223     1.234945222084    15.994914619570
         O           -0.498386760071    -1.712690954223    -1.212328777916    15.994914619570
         C           -1.905372560071     0.978099245777    -0.563725577916    12.000000000000
         C            1.821006239929     0.872265045777     0.446656222084    12.000000000000
         C           -2.667211760071     1.884632045777     0.298504222084    12.000000000000
         C            2.693650239929     1.873241045777    -0.278869777916    12.000000000000
         H           -1.066588760071     1.362366045777    -1.057071777916     1.007825032230
         H           -2.421391760071     0.219415045777    -1.064805777916     1.007825032230
         H            1.071598239929     1.381438045777     1.063063222084     1.007825032230
         H            2.415825239929     0.226867045777     1.101099222084     1.007825032230
         H           -3.207457760071     2.508505045777    -0.420121777916     1.007825032230
         H           -3.397073760071     1.382583045777     0.938220222084     1.007825032230
         H           -2.043548760071     2.531481045777     0.920207222084     1.007825032230
         H            3.229657239929     2.501784045777     0.438844222084     1.007825032230
         H            3.427579239929     1.356744045777    -0.902184777916     1.007825032230
         H            2.083746239929     2.517072045777    -0.917117777916     1.007825032230

  Basis Set: AUG-CC-PVTZ
    Blend: AUG-CC-PVTZ
  Basis Set: (AUG-CC-PVTZ AUX)
    Blend: AUG-CC-PVTZ-JKFIT
	 Reference Energy          =    -797.8050376778340933 [Eh]
	 Singles Energy            =      -0.0000000000000000 [Eh]
	 Same-Spin Energy          =      -0.4995520965254056 [Eh]
	 Opposite-Spin Energy      =      -1.5497778419179280 [Eh]
	 Correlation Energy        =      -2.0493299384433334 [Eh]
	 Total Energy              =    -799.8543676162773863 [Eh]

	 ================> DF-SCS-MP2 Energies <==================
	-----------------------------------------------------------
	 SCS Same-Spin Scale       =       0.3333333333333333 [-]
	 SCS Opposite-Spin Scale   =       1.2000000000000000 [-]
	 SCS Same-Spin Energy      =      -0.1665173655084685 [Eh]
	 SCS Opposite-Spin Energy  =      -1.8597334103015135 [Eh]
	 SCS Correlation Energy    =      -2.0262507758099821 [Eh]
	 SCS Total Energy          =    -799.8312884536441061 [Eh]
	-----------------------------------------------------------

  Dipole Moment: [D]
     X:    -0.5144      Y:     7.9850      Z:    -0.2613     Total:     8.0058

*** Psi4 exiting successfully. Buy a developer a beer!
