                               Psi4 1.3.2 release

  ==> Input File <==

--------------------------------------------------------------------------
#psi4
#
memory 32 gb

molecule  {
-1 1
  P       -0.0010900    -1.0890910     0.0004590
  O       -1.1868886     0.0127965     0.6125598
  O        1.1506610    -0.0285350    -0.5585640
  O        0.5034080    -1.8082920     1.2241620
  O       -0.5057790    -1.8082590    -1.2231120
  C       -1.8201030     0.7715450    -0.4363210
  C        1.8136140     0.7766970     0.4358730
  C       -2.6491962     1.7585402     0.3562688
  C        2.6862580     1.7776730    -0.2896530
  H       -1.0739810     1.2667980    -1.0678550
  H       -2.4287840     0.1238470    -1.0755890
  H        1.0642060     1.2858700     1.0522800
  H        2.4084330     0.1312990     1.0903160
  H       -3.2148500     2.4129370    -0.4309050
  H       -3.4044660     1.2870150     0.9274370
  H       -2.0509410     2.4359130     0.9094240
  H        3.2222650     2.4062160     0.4280610
  H        3.4201870     1.2611760    -0.9129680
  H        2.0763540     2.4215040    -0.9279010
units angstrom
no_reorient  #important for SAPT in psi4, default
symmetry c1  #important for SAPT in psi4, default
}

set PROPERTIES_ORIGIN ["COM"]
properties('MP2/aug-cc-pvtz', properties = ['dipole'])
--------------------------------------------------------------------------

    Molecular point group: c1
  Charge       = -1
  Multiplicity = 1
  Basis Set: AUG-CC-PVTZ
    Blend: AUG-CC-PVTZ
  Basis Set: (AUG-CC-PVTZ AUX)
    Blend: AUG-CC-PVTZ-JKFIT

    Orbital Energies [Eh]
    ---------------------

    Doubly Occupied:

       1A    -79.886007     2A    -20.409428     3A    -20.403074
       4A    -20.311284     5A    -20.307134     6A    -11.146667
       7A    -11.140737     8A    -11.106212     9A    -11.101512
      10A     -7.400857    11A     -5.299571    12A     -5.298765
      13A     -5.297425    14A     -1.230187    15A     -1.183306
      16A     -1.104204    17A     -1.063835    18A     -0.894643
      19A     -0.884048    20A     -0.715405    21A     -0.708400
      22A     -0.598471    23A     -0.535086    24A     -0.529598
      25A     -0.510001    26A     -0.457036    27A     -0.446186
      28A     -0.441949    29A     -0.426602    30A     -0.412819
      31A     -0.404219    32A     -0.388777    33A     -0.367185
      34A     -0.360713    35A     -0.336511    36A     -0.307009
      37A     -0.304347    38A     -0.286357    39A     -0.268237
      40A     -0.255351    41A     -0.241349

  @DF-RHF Final Energy:  -797.82432160329370

   => Energetics <=

    Nuclear Repulsion Energy =            611.3578466730351693
    One-Electron Energy =               -2328.8233275287898323
    Two-Electron Energy =                 919.6411592524610796
    Total Energy =                       -797.8243216032936971
  Basis Set: (AUG-CC-PVTZ AUX)
    Blend: AUG-CC-PVTZ-RI
    Molecular point group: c1

    Geometry (in Angstrom), charge = -1, multiplicity = 1:

       Center              X                  Y                   Z               Mass
    ------------   -----------------  -----------------  -----------------  -----------------
         P            0.000646254659    -0.986708676204    -0.010525152276    30.973761998420
         O           -1.185152345341     0.115178823796     0.601575647724    15.994914619570
         O            1.152397254659     0.073847323796    -0.569548152276    15.994914619570
         O            0.505144254659    -1.705909676204     1.213177847724    15.994914619570
         O           -0.504042745341    -1.705876676204    -1.234096152276    15.994914619570
         C           -1.818366745341     0.873927323796    -0.447305152276    12.000000000000
         C            1.815350254659     0.879079323796     0.424888847724    12.000000000000
         C           -2.647459945341     1.860922523796     0.345284647724    12.000000000000
         C            2.687994254659     1.880055323796    -0.300637152276    12.000000000000
         H           -1.072244745341     1.369180323796    -1.078839152276     1.007825032230
         H           -2.427047745341     0.226229323796    -1.086573152276     1.007825032230
         H            1.065942254659     1.388252323796     1.041295847724     1.007825032230
         H            2.410169254659     0.233681323796     1.079331847724     1.007825032230
         H           -3.213113745341     2.515319323796    -0.441889152276     1.007825032230
         H           -3.402729745341     1.389397323796     0.916452847724     1.007825032230
         H           -2.049204745341     2.538295323796     0.898439847724     1.007825032230
         H            3.224001254659     2.508598323796     0.417076847724     1.007825032230
         H            3.421923254659     1.363558323796    -0.923952152276     1.007825032230
         H            2.078090254659     2.523886323796    -0.938885152276     1.007825032230

  Basis Set: AUG-CC-PVTZ
    Blend: AUG-CC-PVTZ
  Basis Set: (AUG-CC-PVTZ AUX)
    Blend: AUG-CC-PVTZ-JKFIT
	 Reference Energy          =    -797.8243216032936971 [Eh]
	 Singles Energy            =      -0.0000000000000000 [Eh]
	 Same-Spin Energy          =      -0.4991764909731536 [Eh]
	 Opposite-Spin Energy      =      -1.5484515629111448 [Eh]
	 Correlation Energy        =      -2.0476280538842984 [Eh]
	 Total Energy              =    -799.8719496571779928 [Eh]

	 ================> DF-SCS-MP2 Energies <==================
	-----------------------------------------------------------
	 SCS Same-Spin Scale       =       0.3333333333333333 [-]
	 SCS Opposite-Spin Scale   =       1.2000000000000000 [-]
	 SCS Same-Spin Energy      =      -0.1663921636577179 [Eh]
	 SCS Opposite-Spin Energy  =      -1.8581418754933736 [Eh]
	 SCS Correlation Energy    =      -2.0245340391510913 [Eh]
	 SCS Total Energy          =    -799.8488556424447324 [Eh]
	-----------------------------------------------------------

  Dipole Moment: [D]
     X:     0.3513      Y:     7.1683      Z:    -0.0485     Total:     7.1771

*** Psi4 exiting successfully. Buy a developer a beer!
