                               Psi4 1.3.2 release

  ==> Input File <==

--------------------------------------------------------------------------
#psi4
#
memory 32 gb

molecule  {
-1 1
  P       -0.0035228    -1.0935183    -0.0131408
  O       -1.1524220    -0.0281740     0.5594010
  O        1.1506610    -0.0285350    -0.5585640
  O        0.5034080    -1.8082920     1.2241620
  O       -0.5057790    -1.8082590    -1.2231120
  C       -1.8201030     0.7715450    -0.4363210
  C        1.8204479     0.7821422     0.4268284
  C       -2.6746040     1.7890640     0.2877210
  C        2.6862580     1.7776730    -0.2896530
  H       -1.0739810     1.2667980    -1.0678550
  H       -2.4287840     0.1238470    -1.0755890
  H        1.0642060     1.2858700     1.0522800
  H        2.4084330     0.1312990     1.0903160
  H       -3.2148500     2.4129370    -0.4309050
  H       -3.4044660     1.2870150     0.9274370
  H       -2.0509410     2.4359130     0.9094240
  H        3.2222650     2.4062160     0.4280610
  H        3.4201870     1.2611760    -0.9129680
  H        2.0763540     2.4215040    -0.9279010
units angstrom
no_reorient  #important for SAPT in psi4, default
symmetry c1  #important for SAPT in psi4, default
}

set PROPERTIES_ORIGIN ["COM"]
properties('MP2/aug-cc-pvtz', properties = ['dipole'])
--------------------------------------------------------------------------

    Molecular point group: c1
  Charge       = -1
  Multiplicity = 1
  Basis Set: AUG-CC-PVTZ
    Blend: AUG-CC-PVTZ
  Basis Set: (AUG-CC-PVTZ AUX)
    Blend: AUG-CC-PVTZ-JKFIT

    Orbital Energies [Eh]
    ---------------------

    Doubly Occupied:

       1A    -79.879279     2A    -20.403891     3A    -20.403562
       4A    -20.306779     5A    -20.301785     6A    -11.145034
       7A    -11.144270     8A    -11.104634     9A    -11.104533
      10A     -7.394851    11A     -5.293696    12A     -5.292819
      13A     -5.291465    14A     -1.233894    15A     -1.186433
      16A     -1.101718    17A     -1.059622    18A     -0.896092
      19A     -0.890916    20A     -0.713059    21A     -0.711674
      22A     -0.598954    23A     -0.538471    24A     -0.528435
      25A     -0.506335    26A     -0.458489    27A     -0.449397
      28A     -0.443179    29A     -0.423652    30A     -0.422458
      31A     -0.400712    32A     -0.397979    33A     -0.368102
      34A     -0.360547    35A     -0.330847    36A     -0.306482
      37A     -0.303879    38A     -0.285248    39A     -0.268464
      40A     -0.250539    41A     -0.237126

  @DF-RHF Final Energy:  -797.83824753351519

   => Energetics <=

    Nuclear Repulsion Energy =            612.9725513880136987
    One-Electron Energy =               -2332.1429926261193941
    Two-Electron Energy =                 921.3321937045905088
    Total Energy =                       -797.8382475335151867
  Basis Set: (AUG-CC-PVTZ AUX)
    Blend: AUG-CC-PVTZ-RI
    Molecular point group: c1

    Geometry (in Angstrom), charge = -1, multiplicity = 1:

       Center              X                  Y                   Z               Mass
    ------------   -----------------  -----------------  -----------------  -----------------
         P           -0.003440128254    -0.988778151944    -0.009731747104    30.973761998420
         O           -1.152339328254     0.076566148056     0.562810052896    15.994914619570
         O            1.150743671746     0.076205148056    -0.555154947104    15.994914619570
         O            0.503490671746    -1.703551851944     1.227571052896    15.994914619570
         O           -0.505696328254    -1.703518851944    -1.219702947104    15.994914619570
         C           -1.820020328254     0.876285148056    -0.432911947104    12.000000000000
         C            1.820530571746     0.886882348056     0.430237452896    12.000000000000
         C           -2.674521328254     1.893804148056     0.291130052896    12.000000000000
         C            2.686340671746     1.882413148056    -0.286243947104    12.000000000000
         H           -1.073898328254     1.371538148056    -1.064445947104     1.007825032230
         H           -2.428701328254     0.228587148056    -1.072179947104     1.007825032230
         H            1.064288671746     1.390610148056     1.055689052896     1.007825032230
         H            2.408515671746     0.236039148056     1.093725052896     1.007825032230
         H           -3.214767328254     2.517677148056    -0.427495947104     1.007825032230
         H           -3.404383328254     1.391755148056     0.930846052896     1.007825032230
         H           -2.050858328254     2.540653148056     0.912833052896     1.007825032230
         H            3.222347671746     2.510956148056     0.431470052896     1.007825032230
         H            3.420269671746     1.365916148056    -0.909558947104     1.007825032230
         H            2.076436671746     2.526244148056    -0.924491947104     1.007825032230

  Basis Set: AUG-CC-PVTZ
    Blend: AUG-CC-PVTZ
  Basis Set: (AUG-CC-PVTZ AUX)
    Blend: AUG-CC-PVTZ-JKFIT
	 Reference Energy          =    -797.8382475335151867 [Eh]
	 Singles Energy            =      -0.0000000000000000 [Eh]
	 Same-Spin Energy          =      -0.4979523179865273 [Eh]
	 Opposite-Spin Energy      =      -1.5451303915719217 [Eh]
	 Correlation Energy        =      -2.0430827095584490 [Eh]
	 Total Energy              =    -799.8813302430736485 [Eh]

	 ================> DF-SCS-MP2 Energies <==================
	-----------------------------------------------------------
	 SCS Same-Spin Scale       =       0.3333333333333333 [-]
	 SCS Opposite-Spin Scale   =       1.2000000000000000 [-]
	 SCS Same-Spin Energy      =      -0.1659841059955091 [Eh]
	 SCS Opposite-Spin Energy  =      -1.8541564698863060 [Eh]
	 SCS Correlation Energy    =      -2.0201405758818152 [Eh]
	 SCS Total Energy          =    -799.8583881093969694 [Eh]
	-----------------------------------------------------------

  Dipole Moment: [D]
     X:    -0.0106      Y:     7.4570      Z:    -0.1597     Total:     7.4587

*** Psi4 exiting successfully. Buy a developer a beer!
