                               Psi4 1.3.2 release

  ==> Input File <==

--------------------------------------------------------------------------
#psi4
#
memory 32 gb

molecule  {
-1 1
  P       -0.0010900    -1.0890910     0.0004590
  O       -1.1524220    -0.0281740     0.5594010
  O        1.1459000    -0.0379995    -0.5855759
  O        0.5034080    -1.8082920     1.2241620
  O       -0.4892281    -1.7941931    -1.2379238
  C       -1.8201030     0.7715450    -0.4363210
  C        1.8136140     0.7766970     0.4358730
  C       -2.6746040     1.7890640     0.2877210
  C        2.6862580     1.7776730    -0.2896530
  H       -1.0739810     1.2667980    -1.0678550
  H       -2.4287840     0.1238470    -1.0755890
  H        1.0642060     1.2858700     1.0522800
  H        2.4084330     0.1312990     1.0903160
  H       -3.2148500     2.4129370    -0.4309050
  H       -3.4044660     1.2870150     0.9274370
  H       -2.0509410     2.4359130     0.9094240
  H        3.2222650     2.4062160     0.4280610
  H        3.4201870     1.2611760    -0.9129680
  H        2.0763540     2.4215040    -0.9279010
units angstrom
no_reorient  #important for SAPT in psi4, default
symmetry c1  #important for SAPT in psi4, default
}

set PROPERTIES_ORIGIN ["COM"]
properties('MP2/aug-cc-pvtz', properties = ['dipole'])
--------------------------------------------------------------------------

    Molecular point group: c1
  Charge       = -1
  Multiplicity = 1
  Basis Set: AUG-CC-PVTZ
    Blend: AUG-CC-PVTZ
  Basis Set: (AUG-CC-PVTZ AUX)
    Blend: AUG-CC-PVTZ-JKFIT

    Orbital Energies [Eh]
    ---------------------

    Doubly Occupied:

       1A    -79.878218     2A    -20.405100     3A    -20.404534
       4A    -20.304999     5A    -20.301239     6A    -11.146659
       7A    -11.144762     8A    -11.105504     9A    -11.104953
      10A     -7.393809    11A     -5.292640    12A     -5.291816
      13A     -5.290391    14A     -1.232125    15A     -1.183310
      16A     -1.097616    17A     -1.059260    18A     -0.894870
      19A     -0.891129    20A     -0.713537    21A     -0.712660
      22A     -0.597613    23A     -0.536617    24A     -0.527949
      25A     -0.506214    26A     -0.456653    27A     -0.449590
      28A     -0.440774    29A     -0.423144    30A     -0.421354
      31A     -0.399704    32A     -0.398094    33A     -0.367079
      34A     -0.361824    35A     -0.330900    36A     -0.308944
      37A     -0.306414    38A     -0.283520    39A     -0.265878
      40A     -0.250276    41A     -0.236103

  @DF-RHF Final Energy:  -797.83630605647670

   => Energetics <=

    Nuclear Repulsion Energy =            612.7382782944702058
    One-Electron Energy =               -2331.7136138322407533
    Two-Electron Energy =                 921.1390294812939601
    Total Energy =                       -797.8363060564767011
  Basis Set: (AUG-CC-PVTZ AUX)
    Blend: AUG-CC-PVTZ-RI
    Molecular point group: c1

    Geometry (in Angstrom), charge = -1, multiplicity = 1:

       Center              X                  Y                   Z               Mass
    ------------   -----------------  -----------------  -----------------  -----------------
         P           -0.002196131925    -0.985300895395     0.004777631557    30.973761998420
         O           -1.153528131925     0.075616104605     0.563719631557    15.994914619570
         O            1.144793868075     0.065790604605    -0.581257268443    15.994914619570
         O            0.502301868075    -1.704501895395     1.228480631557    15.994914619570
         O           -0.490334231925    -1.690402995395    -1.233605168443    15.994914619570
         C           -1.821209131925     0.875335104605    -0.432002368443    12.000000000000
         C            1.812507868075     0.880487104605     0.440191631557    12.000000000000
         C           -2.675710131925     1.892854104605     0.292039631557    12.000000000000
         C            2.685151868075     1.881463104605    -0.285334368443    12.000000000000
         H           -1.075087131925     1.370588104605    -1.063536368443     1.007825032230
         H           -2.429890131925     0.227637104605    -1.071270368443     1.007825032230
         H            1.063099868075     1.389660104605     1.056598631557     1.007825032230
         H            2.407326868075     0.235089104605     1.094634631557     1.007825032230
         H           -3.215956131925     2.516727104605    -0.426586368443     1.007825032230
         H           -3.405572131925     1.390805104605     0.931755631557     1.007825032230
         H           -2.052047131925     2.539703104605     0.913742631557     1.007825032230
         H            3.221158868075     2.510006104605     0.432379631557     1.007825032230
         H            3.419080868075     1.364966104605    -0.908649368443     1.007825032230
         H            2.075247868075     2.525294104605    -0.923582368443     1.007825032230

  Basis Set: AUG-CC-PVTZ
    Blend: AUG-CC-PVTZ
  Basis Set: (AUG-CC-PVTZ AUX)
    Blend: AUG-CC-PVTZ-JKFIT
	 Reference Energy          =    -797.8363060564767011 [Eh]
	 Singles Energy            =      -0.0000000000000000 [Eh]
	 Same-Spin Energy          =      -0.4981552631255175 [Eh]
	 Opposite-Spin Energy      =      -1.5460108980030238 [Eh]
	 Correlation Energy        =      -2.0441661611285413 [Eh]
	 Total Energy              =    -799.8804722176051882 [Eh]

	 ================> DF-SCS-MP2 Energies <==================
	-----------------------------------------------------------
	 SCS Same-Spin Scale       =       0.3333333333333333 [-]
	 SCS Opposite-Spin Scale   =       1.2000000000000000 [-]
	 SCS Same-Spin Energy      =      -0.1660517543751725 [Eh]
	 SCS Opposite-Spin Energy  =      -1.8552130776036284 [Eh]
	 SCS Correlation Energy    =      -2.0212648319788009 [Eh]
	 SCS Total Energy          =    -799.8575708884554842 [Eh]
	-----------------------------------------------------------

  Dipole Moment: [D]
     X:     0.0056      Y:     7.5169      Z:     0.1069     Total:     7.5177

*** Psi4 exiting successfully. Buy a developer a beer!
