                               Psi4 1.3.2 release

  ==> Input File <==

--------------------------------------------------------------------------
#psi4
#
memory 32 gb

molecule  {
-1 1
  P        0.0014305    -1.0845829     0.0140163
  O       -1.1524220    -0.0281740     0.5594010
  O        1.1506610    -0.0285350    -0.5585640
  O        0.5034080    -1.8082920     1.2241620
  O       -0.5057790    -1.8082590    -1.2231120
  C       -1.8201030     0.7715450    -0.4363210
  C        1.8067296     0.7711905     0.4448419
  C       -2.6746040     1.7890640     0.2877210
  C        2.6862580     1.7776730    -0.2896530
  H       -1.0739810     1.2667980    -1.0678550
  H       -2.4287840     0.1238470    -1.0755890
  H        1.0642060     1.2858700     1.0522800
  H        2.4084330     0.1312990     1.0903160
  H       -3.2148500     2.4129370    -0.4309050
  H       -3.4044660     1.2870150     0.9274370
  H       -2.0509410     2.4359130     0.9094240
  H        3.2222650     2.4062160     0.4280610
  H        3.4201870     1.2611760    -0.9129680
  H        2.0763540     2.4215040    -0.9279010
units angstrom
no_reorient  #important for SAPT in psi4, default
symmetry c1  #important for SAPT in psi4, default
}

set PROPERTIES_ORIGIN ["COM"]
properties('MP2/aug-cc-pvtz', properties = ['dipole'])
--------------------------------------------------------------------------

    Molecular point group: c1
  Charge       = -1
  Multiplicity = 1
  Basis Set: AUG-CC-PVTZ
    Blend: AUG-CC-PVTZ
  Basis Set: (AUG-CC-PVTZ AUX)
    Blend: AUG-CC-PVTZ-JKFIT

    Orbital Energies [Eh]
    ---------------------

    Doubly Occupied:

       1A    -79.879197     2A    -20.405673     3A    -20.405383
       4A    -20.305548     5A    -20.300592     6A    -11.145587
       7A    -11.144814     8A    -11.105371     9A    -11.105196
      10A     -7.394732    11A     -5.293593    12A     -5.292712
      13A     -5.291307    14A     -1.236490    15A     -1.189099
      16A     -1.099188    17A     -1.056780    18A     -0.894350
      19A     -0.889203    20A     -0.715282    21A     -0.714217
      22A     -0.600827    23A     -0.539580    24A     -0.530271
      25A     -0.507766    26A     -0.458511    27A     -0.449231
      28A     -0.441837    29A     -0.423920    30A     -0.422660
      31A     -0.401409    32A     -0.400147    33A     -0.366550
      34A     -0.360490    35A     -0.330396    36A     -0.309524
      37A     -0.306844    38A     -0.283614    39A     -0.267165
      40A     -0.248792    41A     -0.235069

  @DF-RHF Final Energy:  -797.83806325046612

   => Energetics <=

    Nuclear Repulsion Energy =            613.2231554958181050
    One-Electron Energy =               -2332.6246111673349333
    Two-Electron Energy =                 921.5633924210508212
    Total Energy =                       -797.8380632504661207
  Basis Set: (AUG-CC-PVTZ AUX)
    Blend: AUG-CC-PVTZ-RI
    Molecular point group: c1

    Geometry (in Angstrom), charge = -1, multiplicity = 1:

       Center              X                  Y                   Z               Mass
    ------------   -----------------  -----------------  -----------------  -----------------
         P            0.001586341336    -0.980792506673     0.010516197775    30.973761998420
         O           -1.152266158664     0.075616393327     0.555900897775    15.994914619570
         O            1.150816841336     0.075255393327    -0.562064102225    15.994914619570
         O            0.503563841336    -1.704501606673     1.220661897775    15.994914619570
         O           -0.505623158664    -1.704468606673    -1.226612102225    15.994914619570
         C           -1.819947158664     0.875335393327    -0.439821102225    12.000000000000
         C            1.806885441336     0.874980893327     0.441341797775    12.000000000000
         C           -2.674448158664     1.892854393327     0.284220897775    12.000000000000
         C            2.686413841336     1.881463393327    -0.293153102225    12.000000000000
         H           -1.073825158664     1.370588393327    -1.071355102225     1.007825032230
         H           -2.428628158664     0.227637393327    -1.079089102225     1.007825032230
         H            1.064361841336     1.389660393327     1.048779897775     1.007825032230
         H            2.408588841336     0.235089393327     1.086815897775     1.007825032230
         H           -3.214694158664     2.516727393327    -0.434405102225     1.007825032230
         H           -3.404310158664     1.390805393327     0.923936897775     1.007825032230
         H           -2.050785158664     2.539703393327     0.905923897775     1.007825032230
         H            3.222420841336     2.510006393327     0.424560897775     1.007825032230
         H            3.420342841336     1.364966393327    -0.916468102225     1.007825032230
         H            2.076509841336     2.525294393327    -0.931401102225     1.007825032230

  Basis Set: AUG-CC-PVTZ
    Blend: AUG-CC-PVTZ
  Basis Set: (AUG-CC-PVTZ AUX)
    Blend: AUG-CC-PVTZ-JKFIT
	 Reference Energy          =    -797.8380632504661207 [Eh]
	 Singles Energy            =      -0.0000000000000000 [Eh]
	 Same-Spin Energy          =      -0.4978874604805769 [Eh]
	 Opposite-Spin Energy      =      -1.5451454915847016 [Eh]
	 Correlation Energy        =      -2.0430329520652784 [Eh]
	 Total Energy              =    -799.8810962025313529 [Eh]

	 ================> DF-SCS-MP2 Energies <==================
	-----------------------------------------------------------
	 SCS Same-Spin Scale       =       0.3333333333333333 [-]
	 SCS Opposite-Spin Scale   =       1.2000000000000000 [-]
	 SCS Same-Spin Energy      =      -0.1659624868268589 [Eh]
	 SCS Opposite-Spin Energy  =      -1.8541745899016417 [Eh]
	 SCS Correlation Energy    =      -2.0201370767285005 [Eh]
	 SCS Total Energy          =    -799.8582003271945950 [Eh]
	-----------------------------------------------------------

  Dipole Moment: [D]
     X:     0.0104      Y:     7.5437      Z:     0.1529     Total:     7.5453

*** Psi4 exiting successfully. Buy a developer a beer!
