                               Psi4 1.4a3.dev225

  ==> Input File <==

--------------------------------------------------------------------------
#psi4
#
memory 32 gb

molecule  {
-1 1
  P        0.0000000     1.0872980     0.0000000
  O       -1.1564220     0.0305830    -0.5476420
  O        1.1564220     0.0305830     0.5476420
  O        0.4924450     1.8091740    -1.2276720
  O       -0.4924450     1.8091740     1.2276720
  C       -1.7989910    -0.7944120     0.4410350
  C        1.7989910    -0.7944120    -0.4410350
  C       -2.7063440    -1.7646140    -0.2844450
  C        2.7063440    -1.7646150     0.2844450
  H       -1.0386670    -1.3302830     1.0205350
  H       -2.3670280    -0.1617970     1.1311080
  H        1.0039776    -1.3547322    -1.0469736
  H        2.3670280    -0.1617970    -1.1311080
  H       -3.2237520    -2.4090830     0.4325060
  H       -3.4553630    -1.2226600    -0.8671100
  H       -2.1260300    -2.3948090    -0.9629160
  H        3.2237520    -2.4090830    -0.4325060
  H        3.4553630    -1.2226600     0.8671100
  H        2.1260300    -2.3948090     0.9629160
units angstrom
no_reorient  #important for SAPT in psi4, default
symmetry c1  #important for SAPT in psi4, default
}

set PROPERTIES_ORIGIN ["COM"]
properties('MP2/aug-cc-pvtz', properties = ['dipole'])
--------------------------------------------------------------------------

    Molecular point group: c1
  Charge       = -1
  Multiplicity = 1
  Basis Set: AUG-CC-PVTZ
    Blend: AUG-CC-PVTZ
  Basis Set: (AUG-CC-PVTZ AUX)
    Blend: AUG-CC-PVTZ-JKFIT

    Orbital Energies [Eh]
    ---------------------

    Doubly Occupied:

       1A    -79.879187     2A    -20.406104     3A    -20.404901
       4A    -20.303223     5A    -20.303115     6A    -11.151681
       7A    -11.145479     8A    -11.105820     9A    -11.105201
      10A     -7.394734    11A     -5.293622    12A     -5.292706
      13A     -5.291313    14A     -1.236828    15A     -1.189524
      16A     -1.098832    17A     -1.058656    18A     -0.894631
      19A     -0.890484    20A     -0.714420    21A     -0.710123
      22A     -0.599762    23A     -0.540539    24A     -0.529142
      25A     -0.504646    26A     -0.458855    27A     -0.449510
      28A     -0.444054    29A     -0.424306    30A     -0.422745
      31A     -0.401295    32A     -0.398307    33A     -0.367029
      34A     -0.360023    35A     -0.329863    36A     -0.307482
      37A     -0.305026    38A     -0.283940    39A     -0.266838
      40A     -0.250101    41A     -0.235734

  @DF-RHF Final Energy:  -797.83683298007429

   => Energetics <=

    Nuclear Repulsion Energy =            612.8942508784137999
    One-Electron Energy =               -2331.9626077776038073
    Two-Electron Energy =                 921.2315239191156024
    Total Energy =                       -797.8368329800742913
  Basis Set: (AUG-CC-PVTZ AUX)
    Blend: AUG-CC-PVTZ-RI
    Molecular point group: c1

    Geometry (in Angstrom), charge = -1, multiplicity = 1:

       Center              X                  Y                   Z               Mass
    ------------   -----------------  -----------------  -----------------  -----------------
         P            0.000228454969     0.983169135233     0.000174117441    30.973761998420
         O           -1.156193545031    -0.073545864767    -0.547467882559    15.994914619570
         O            1.156650454969    -0.073545864767     0.547816117441    15.994914619570
         O            0.492673454969     1.705045135233    -1.227497882559    15.994914619570
         O           -0.492216545031     1.705045135233     1.227846117441    15.994914619570
         C           -1.798762545031    -0.898540864767     0.441209117441    12.000000000000
         C            1.799219454969    -0.898540864767    -0.440860882559    12.000000000000
         C           -2.706115545031    -1.868742864767    -0.284270882559    12.000000000000
         C            2.706572454969    -1.868743864767     0.284619117441    12.000000000000
         H           -1.038438545031    -1.434411864767     1.020709117441     1.007825032230
         H           -2.366799545031    -0.265925864767     1.131282117441     1.007825032230
         H            1.004206054969    -1.458861064767    -1.046799482559     1.007825032230
         H            2.367256454969    -0.265925864767    -1.130933882559     1.007825032230
         H           -3.223523545031    -2.513211864767     0.432680117441     1.007825032230
         H           -3.455134545031    -1.326788864767    -0.866935882559     1.007825032230
         H           -2.125801545031    -2.498937864767    -0.962741882559     1.007825032230
         H            3.223980454969    -2.513211864767    -0.432331882559     1.007825032230
         H            3.455591454969    -1.326788864767     0.867284117441     1.007825032230
         H            2.126258454969    -2.498937864767     0.963090117441     1.007825032230

  Basis Set: AUG-CC-PVTZ
    Blend: AUG-CC-PVTZ
  Basis Set: (AUG-CC-PVTZ AUX)
    Blend: AUG-CC-PVTZ-JKFIT
	 Reference Energy          =    -797.8368329800742913 [Eh]
	 Singles Energy            =      -0.0000000000000000 [Eh]
	 Same-Spin Energy          =      -0.4979377011952498 [Eh]
	 Opposite-Spin Energy      =      -1.5452933696820932 [Eh]
	 Correlation Energy        =      -2.0432310708773431 [Eh]
	 Total Energy              =    -799.8800640509516597 [Eh]

	 ================> DF-SCS-MP2 Energies <==================
	-----------------------------------------------------------
	 SCS Same-Spin Scale       =       0.3333333333333333 [-]
	 SCS Opposite-Spin Scale   =       1.2000000000000000 [-]
	 SCS Same-Spin Energy      =      -0.1659792337317499 [Eh]
	 SCS Opposite-Spin Energy  =      -1.8543520436185117 [Eh]
	 SCS Correlation Energy    =      -2.0203312773502615 [Eh]
	 SCS Total Energy          =    -799.8571642574245288 [Eh]
	-----------------------------------------------------------

  Dipole Moment: [D]
     X:     0.0110      Y:    -7.5463      Z:     0.0286     Total:     7.5464

*** Psi4 exiting successfully. Buy a developer a beer!
