                               Psi4 1.3.2 release

  ==> Input File <==

--------------------------------------------------------------------------
#psi4
#
memory 32 gb

molecule  {
-1 1
  P       -0.0010900    -1.0890910     0.0004590
  O       -1.1524220    -0.0281740     0.5594010
  O        1.1144424    -0.0132970    -0.6012642
  O        0.4577988    -1.8343482     1.2265219
  O       -0.5057790    -1.8082590    -1.2231120
  C       -1.8201030     0.7715450    -0.4363210
  C        1.8136140     0.7766970     0.4358730
  C       -2.6746040     1.7890640     0.2877210
  C        2.6862580     1.7776730    -0.2896530
  H       -1.0739810     1.2667980    -1.0678550
  H       -2.4287840     0.1238470    -1.0755890
  H        1.0642060     1.2858700     1.0522800
  H        2.4084330     0.1312990     1.0903160
  H       -3.2148500     2.4129370    -0.4309050
  H       -3.4044660     1.2870150     0.9274370
  H       -2.0509410     2.4359130     0.9094240
  H        3.2222650     2.4062160     0.4280610
  H        3.4201870     1.2611760    -0.9129680
  H        2.0763540     2.4215040    -0.9279010
units angstrom
no_reorient  #important for SAPT in psi4, default
symmetry c1  #important for SAPT in psi4, default
}

set PROPERTIES_ORIGIN ["COM"]
properties('MP2/aug-cc-pvtz', properties = ['dipole'])
--------------------------------------------------------------------------

    Molecular point group: c1
  Charge       = -1
  Multiplicity = 1
  Basis Set: AUG-CC-PVTZ
    Blend: AUG-CC-PVTZ
  Basis Set: (AUG-CC-PVTZ AUX)
    Blend: AUG-CC-PVTZ-JKFIT

    Orbital Energies [Eh]
    ---------------------

    Doubly Occupied:

       1A    -79.877457     2A    -20.409357     3A    -20.401687
       4A    -20.305643     5A    -20.298371     6A    -11.150831
       7A    -11.142686     8A    -11.107876     9A    -11.103650
      10A     -7.393122    11A     -5.291970    12A     -5.291019
      13A     -5.289756    14A     -1.231325    15A     -1.181672
      16A     -1.097641    17A     -1.057074    18A     -0.896974
      19A     -0.890398    20A     -0.715316    21A     -0.711739
      22A     -0.597282    23A     -0.535860    24A     -0.528415
      25A     -0.505832    26A     -0.456607    27A     -0.449810
      28A     -0.440388    29A     -0.423068    30A     -0.420757
      31A     -0.400038    32A     -0.397905    33A     -0.367278
      34A     -0.362236    35A     -0.331409    36A     -0.311655
      37A     -0.304642    38A     -0.283300    39A     -0.266517
      40A     -0.248239    41A     -0.233971

  @DF-RHF Final Energy:  -797.83407244351747

   => Energetics <=

    Nuclear Repulsion Energy =            612.4867176401178313
    One-Electron Energy =               -2331.2200326975739699
    Two-Electron Energy =                 920.8992426139386680
    Total Energy =                       -797.8340724435174707
  Basis Set: (AUG-CC-PVTZ AUX)
    Blend: AUG-CC-PVTZ-RI
    Molecular point group: c1

    Geometry (in Angstrom), charge = -1, multiplicity = 1:

       Center              X                  Y                   Z               Mass
    ------------   -----------------  -----------------  -----------------  -----------------
         P            0.007588817233    -0.983689234331     0.004622586158    30.973761998420
         O           -1.143743182767     0.077227765669     0.563564586158    15.994914619570
         O            1.123121217233     0.092104765669    -0.597100613842    15.994914619570
         O            0.466477617233    -1.728946434331     1.230685486158    15.994914619570
         O           -0.497100182767    -1.702857234331    -1.218948413842    15.994914619570
         C           -1.811424182767     0.876946765669    -0.432157413842    12.000000000000
         C            1.822292817233     0.882098765669     0.440036586158    12.000000000000
         C           -2.665925182767     1.894465765669     0.291884586158    12.000000000000
         C            2.694936817233     1.883074765669    -0.285489413842    12.000000000000
         H           -1.065302182767     1.372199765669    -1.063691413842     1.007825032230
         H           -2.420105182767     0.229248765669    -1.071425413842     1.007825032230
         H            1.072884817233     1.391271765669     1.056443586158     1.007825032230
         H            2.417111817233     0.236700765669     1.094479586158     1.007825032230
         H           -3.206171182767     2.518338765669    -0.426741413842     1.007825032230
         H           -3.395787182767     1.392416765669     0.931600586158     1.007825032230
         H           -2.042262182767     2.541314765669     0.913587586158     1.007825032230
         H            3.230943817233     2.511617765669     0.432224586158     1.007825032230
         H            3.428865817233     1.366577765669    -0.908804413842     1.007825032230
         H            2.085032817233     2.526905765669    -0.923737413842     1.007825032230

  Basis Set: AUG-CC-PVTZ
    Blend: AUG-CC-PVTZ
  Basis Set: (AUG-CC-PVTZ AUX)
    Blend: AUG-CC-PVTZ-JKFIT
	 Reference Energy          =    -797.8340724435174707 [Eh]
	 Singles Energy            =      -0.0000000000000000 [Eh]
	 Same-Spin Energy          =      -0.4982614067246024 [Eh]
	 Opposite-Spin Energy      =      -1.5464023514991134 [Eh]
	 Correlation Energy        =      -2.0446637582237157 [Eh]
	 Total Energy              =    -799.8787362017411624 [Eh]

	 ================> DF-SCS-MP2 Energies <==================
	-----------------------------------------------------------
	 SCS Same-Spin Scale       =       0.3333333333333333 [-]
	 SCS Opposite-Spin Scale   =       1.2000000000000000 [-]
	 SCS Same-Spin Energy      =      -0.1660871355748675 [Eh]
	 SCS Opposite-Spin Energy  =      -1.8556828217989361 [Eh]
	 SCS Correlation Energy    =      -2.0217699573738037 [Eh]
	 SCS Total Energy          =    -799.8558424008912198 [Eh]
	-----------------------------------------------------------

  Dipole Moment: [D]
     X:     0.3029      Y:     7.6170      Z:     0.1181     Total:     7.6239

*** Psi4 exiting successfully. Buy a developer a beer!
