                               Psi4 1.3.2 release

  ==> Input File <==

--------------------------------------------------------------------------
#psi4
#
memory 32 gb

molecule  {
-1 1
  P       -0.0010900    -1.0890910     0.0004590
  O       -1.1524220    -0.0281740     0.5594010
  O        1.1280042    -0.0539976    -0.5215694
  O        0.5034080    -1.8082920     1.2241620
  O       -0.5057790    -1.8082590    -1.2231120
  C       -1.8201030     0.7715450    -0.4363210
  C        1.8136140     0.7766970     0.4358730
  C       -2.6746040     1.7890640     0.2877210
  C        2.7015082     1.7968887    -0.2428768
  H       -1.0739810     1.2667980    -1.0678550
  H       -2.4287840     0.1238470    -1.0755890
  H        1.0642060     1.2858700     1.0522800
  H        2.4084330     0.1312990     1.0903160
  H       -3.2148500     2.4129370    -0.4309050
  H       -3.4044660     1.2870150     0.9274370
  H       -2.0509410     2.4359130     0.9094240
  H        3.2222650     2.4062160     0.4280610
  H        3.4201870     1.2611760    -0.9129680
  H        2.0763540     2.4215040    -0.9279010
units angstrom
no_reorient  #important for SAPT in psi4, default
symmetry c1  #important for SAPT in psi4, default
}

set PROPERTIES_ORIGIN ["COM"]
properties('MP2/aug-cc-pvtz', properties = ['dipole'])
--------------------------------------------------------------------------

    Molecular point group: c1
  Charge       = -1
  Multiplicity = 1
  Basis Set: AUG-CC-PVTZ
    Blend: AUG-CC-PVTZ
  Basis Set: (AUG-CC-PVTZ AUX)
    Blend: AUG-CC-PVTZ-JKFIT

    Orbital Energies [Eh]
    ---------------------

    Doubly Occupied:

       1A    -79.874671     2A    -20.405700     3A    -20.401477
       4A    -20.301625     5A    -20.298643     6A    -11.148697
       7A    -11.143865     8A    -11.108826     9A    -11.104171
      10A     -7.390816    11A     -5.289809    12A     -5.288809
      13A     -5.287380    14A     -1.241333    15A     -1.189605
      16A     -1.096116    17A     -1.056571    18A     -0.899282
      19A     -0.891056    20A     -0.719792    21A     -0.712241
      22A     -0.601336    23A     -0.542640    24A     -0.529059
      25A     -0.505716    26A     -0.463000    27A     -0.456430
      28A     -0.444579    29A     -0.431111    30A     -0.420913
      31A     -0.400531    32A     -0.395254    33A     -0.366629
      34A     -0.359401    35A     -0.326518    36A     -0.308714
      37A     -0.305749    38A     -0.282711    39A     -0.264891
      40A     -0.247573    41A     -0.233185

  @DF-RHF Final Energy:  -797.83646891690796

   => Energetics <=

    Nuclear Repulsion Energy =            614.3473159932951830
    One-Electron Energy =               -2334.8947175967919065
    Two-Electron Energy =                 922.7109326865888761
    Total Energy =                       -797.8364689169079611
  Basis Set: (AUG-CC-PVTZ AUX)
    Blend: AUG-CC-PVTZ-RI
    Molecular point group: c1

    Geometry (in Angstrom), charge = -1, multiplicity = 1:

       Center              X                  Y                   Z               Mass
    ------------   -----------------  -----------------  -----------------  -----------------
         P            0.000208400571    -0.983665399214    -0.007128442326    30.973761998420
         O           -1.151123599429     0.077251600786     0.551813557674    15.994914619570
         O            1.129302600571     0.051428000786    -0.529156842326    15.994914619570
         O            0.504706400571    -1.702866399214     1.216574557674    15.994914619570
         O           -0.504480599429    -1.702833399214    -1.230699442326    15.994914619570
         C           -1.818804599429     0.876970600786    -0.443908442326    12.000000000000
         C            1.814912400571     0.882122600786     0.428285557674    12.000000000000
         C           -2.673305599429     1.894489600786     0.280133557674    12.000000000000
         C            2.702806600571     1.902314300786    -0.250464242326    12.000000000000
         H           -1.072682599429     1.372223600786    -1.075442442326     1.007825032230
         H           -2.427485599429     0.229272600786    -1.083176442326     1.007825032230
         H            1.065504400571     1.391295600786     1.044692557674     1.007825032230
         H            2.409731400571     0.236724600786     1.082728557674     1.007825032230
         H           -3.213551599429     2.518362600786    -0.438492442326     1.007825032230
         H           -3.403167599429     1.392440600786     0.919849557674     1.007825032230
         H           -2.049642599429     2.541338600786     0.901836557674     1.007825032230
         H            3.223563400571     2.511641600786     0.420473557674     1.007825032230
         H            3.421485400571     1.366601600786    -0.920555442326     1.007825032230
         H            2.077652400571     2.526929600786    -0.935488442326     1.007825032230

  Basis Set: AUG-CC-PVTZ
    Blend: AUG-CC-PVTZ
  Basis Set: (AUG-CC-PVTZ AUX)
    Blend: AUG-CC-PVTZ-JKFIT
	 Reference Energy          =    -797.8364689169079611 [Eh]
	 Singles Energy            =      -0.0000000000000000 [Eh]
	 Same-Spin Energy          =      -0.4973355621842381 [Eh]
	 Opposite-Spin Energy      =      -1.5435172919967703 [Eh]
	 Correlation Energy        =      -2.0408528541810087 [Eh]
	 Total Energy              =    -799.8773217710889867 [Eh]

	 ================> DF-SCS-MP2 Energies <==================
	-----------------------------------------------------------
	 SCS Same-Spin Scale       =       0.3333333333333333 [-]
	 SCS Opposite-Spin Scale   =       1.2000000000000000 [-]
	 SCS Same-Spin Energy      =      -0.1657785207280794 [Eh]
	 SCS Opposite-Spin Energy  =      -1.8522207503961243 [Eh]
	 SCS Correlation Energy    =      -2.0179992711242036 [Eh]
	 SCS Total Energy          =    -799.8544681880321150 [Eh]
	-----------------------------------------------------------

  Dipole Moment: [D]
     X:     0.2135      Y:     7.6959      Z:    -0.0454     Total:     7.6990

*** Psi4 exiting successfully. Buy a developer a beer!
