                               Psi4 1.3.2 release

  ==> Input File <==

--------------------------------------------------------------------------
#psi4
#
memory 32 gb

molecule  {
-1 1
  P       -0.0010900    -1.0890910     0.0004590
  O       -1.1524220    -0.0281740     0.5594010
  O        1.1506610    -0.0285350    -0.5585640
  O        0.5034080    -1.8082920     1.2241620
  O       -0.5057790    -1.8082590    -1.2231120
  C       -1.8201030     0.7715450    -0.4363210
  C        1.7676112     0.7208213     0.3668683
  C       -2.6746040     1.7890640     0.2877210
  C        2.6862580     1.7776730    -0.2896530
  H       -1.0739810     1.2667980    -1.0678550
  H       -2.4287840     0.1238470    -1.0755890
  H        1.0642060     1.2858700     1.0522800
  H        2.4084330     0.1312990     1.0903160
  H       -3.2148500     2.4129370    -0.4309050
  H       -3.4044660     1.2870150     0.9274370
  H       -2.0509410     2.4359130     0.9094240
  H        3.2222650     2.4062160     0.4280610
  H        3.4201870     1.2611760    -0.9129680
  H        2.0763540     2.4215040    -0.9279010
units angstrom
no_reorient  #important for SAPT in psi4, default
symmetry c1  #important for SAPT in psi4, default
}

set PROPERTIES_ORIGIN ["COM"]
properties('MP2/aug-cc-pvtz', properties = ['dipole'])
--------------------------------------------------------------------------

    Molecular point group: c1
  Charge       = -1
  Multiplicity = 1
  Basis Set: AUG-CC-PVTZ
    Blend: AUG-CC-PVTZ
  Basis Set: (AUG-CC-PVTZ AUX)
    Blend: AUG-CC-PVTZ-JKFIT

    Orbital Energies [Eh]
    ---------------------

    Doubly Occupied:

       1A    -79.885370     2A    -20.413819     3A    -20.408008
       4A    -20.308079     5A    -20.307685     6A    -11.147227
       7A    -11.146567     8A    -11.106047     9A    -11.101300
      10A     -7.400955    11A     -5.299848    12A     -5.298911
      13A     -5.297455    14A     -1.261481    15A     -1.205105
      16A     -1.105614    17A     -1.063528    18A     -0.894614
      19A     -0.879495    20A     -0.716015    21A     -0.709819
      22A     -0.611934    23A     -0.550133    24A     -0.531243
      25A     -0.505377    26A     -0.471830    27A     -0.451899
      28A     -0.447153    29A     -0.428241    30A     -0.424807
      31A     -0.406034    32A     -0.401165    33A     -0.366073
      34A     -0.350920    35A     -0.329899    36A     -0.308418
      37A     -0.293764    38A     -0.288108    39A     -0.270685
      40A     -0.255353    41A     -0.240670

  @DF-RHF Final Energy:  -797.83303567318171

   => Energetics <=

    Nuclear Repulsion Energy =            615.0777949036640848
    One-Electron Energy =               -2336.0403655733589403
    Two-Electron Energy =                 923.1295349965130299
    Total Energy =                       -797.8330356731817119
  Basis Set: (AUG-CC-PVTZ AUX)
    Blend: AUG-CC-PVTZ-RI
    Molecular point group: c1

    Geometry (in Angstrom), charge = -1, multiplicity = 1:

       Center              X                  Y                   Z               Mass
    ------------   -----------------  -----------------  -----------------  -----------------
         P            0.002643467878    -0.980438454854     0.005817219562    30.973761998420
         O           -1.148688532122     0.080478545146     0.564759219562    15.994914619570
         O            1.154394467878     0.080117545146    -0.553205780438    15.994914619570
         O            0.507141467878    -1.699639454854     1.229520219562    15.994914619570
         O           -0.502045532122    -1.699606454854    -1.217753780438    15.994914619570
         C           -1.816369532122     0.880197545146    -0.430962780438    12.000000000000
         C            1.771344667878     0.829473845146     0.372226519562    12.000000000000
         C           -2.670870532122     1.897716545146     0.293079219562    12.000000000000
         C            2.689991467878     1.886325545146    -0.284294780438    12.000000000000
         H           -1.070247532122     1.375450545146    -1.062496780438     1.007825032230
         H           -2.425050532122     0.232499545146    -1.070230780438     1.007825032230
         H            1.067939467878     1.394522545146     1.057638219562     1.007825032230
         H            2.412166467878     0.239951545146     1.095674219562     1.007825032230
         H           -3.211116532122     2.521589545146    -0.425546780438     1.007825032230
         H           -3.400732532122     1.395667545146     0.932795219562     1.007825032230
         H           -2.047207532122     2.544565545146     0.914782219562     1.007825032230
         H            3.225998467878     2.514868545146     0.433419219562     1.007825032230
         H            3.423920467878     1.369828545146    -0.907609780438     1.007825032230
         H            2.080087467878     2.530156545146    -0.922542780438     1.007825032230

  Basis Set: AUG-CC-PVTZ
    Blend: AUG-CC-PVTZ
  Basis Set: (AUG-CC-PVTZ AUX)
    Blend: AUG-CC-PVTZ-JKFIT
	 Reference Energy          =    -797.8330356731817119 [Eh]
	 Singles Energy            =      -0.0000000000000000 [Eh]
	 Same-Spin Energy          =      -0.4979847948491393 [Eh]
	 Opposite-Spin Energy      =      -1.5442753730677152 [Eh]
	 Correlation Energy        =      -2.0422601679168544 [Eh]
	 Total Energy              =    -799.8752958410985912 [Eh]

	 ================> DF-SCS-MP2 Energies <==================
	-----------------------------------------------------------
	 SCS Same-Spin Scale       =       0.3333333333333333 [-]
	 SCS Opposite-Spin Scale   =       1.2000000000000000 [-]
	 SCS Same-Spin Energy      =      -0.1659949316163797 [Eh]
	 SCS Opposite-Spin Energy  =      -1.8531304476812582 [Eh]
	 SCS Correlation Energy    =      -2.0191253792976380 [Eh]
	 SCS Total Energy          =    -799.8521610524793459 [Eh]
	-----------------------------------------------------------

  Dipole Moment: [D]
     X:    -0.3434      Y:     7.1777      Z:    -0.1985     Total:     7.1886

*** Psi4 exiting successfully. Buy a developer a beer!
