                               Psi4 1.3.2 release

  ==> Input File <==

--------------------------------------------------------------------------
#psi4
#
memory 32 gb

molecule  {
-1 1
  P       -0.0010900    -1.0890910     0.0004590
  O       -1.1608866    -0.0102205     0.5048762
  O        1.1506610    -0.0285350    -0.5585640
  O        0.5360356    -1.8357779     1.1934268
  O       -0.5057790    -1.8082590    -1.2231120
  C       -1.8201030     0.7715450    -0.4363210
  C        1.8136140     0.7766970     0.4358730
  C       -2.6746040     1.7890640     0.2877210
  C        2.6862580     1.7776730    -0.2896530
  H       -1.0739810     1.2667980    -1.0678550
  H       -2.4287840     0.1238470    -1.0755890
  H        1.0642060     1.2858700     1.0522800
  H        2.4084330     0.1312990     1.0903160
  H       -3.2148500     2.4129370    -0.4309050
  H       -3.4044660     1.2870150     0.9274370
  H       -2.0509410     2.4359130     0.9094240
  H        3.2222650     2.4062160     0.4280610
  H        3.4201870     1.2611760    -0.9129680
  H        2.0763540     2.4215040    -0.9279010
units angstrom
no_reorient  #important for SAPT in psi4, default
symmetry c1  #important for SAPT in psi4, default
}

set PROPERTIES_ORIGIN ["COM"]
properties('MP2/aug-cc-pvtz', properties = ['dipole'])
--------------------------------------------------------------------------

    Molecular point group: c1
  Charge       = -1
  Multiplicity = 1
  Basis Set: AUG-CC-PVTZ
    Blend: AUG-CC-PVTZ
  Basis Set: (AUG-CC-PVTZ AUX)
    Blend: AUG-CC-PVTZ-JKFIT

    Orbital Energies [Eh]
    ---------------------

    Doubly Occupied:

       1A    -79.881722     2A    -20.404418     3A    -20.403798
       4A    -20.308625     5A    -20.301096     6A    -11.145317
       7A    -11.141130     8A    -11.104967     9A    -11.103592
      10A     -7.397085    11A     -5.296013    12A     -5.294983
      13A     -5.293693    14A     -1.243910    15A     -1.195592
      16A     -1.102338    17A     -1.059527    18A     -0.894279
      19A     -0.889383    20A     -0.716517    21A     -0.713220
      22A     -0.604723    23A     -0.543810    24A     -0.532390
      25A     -0.508672    26A     -0.463909    27A     -0.448873
      28A     -0.444981    29A     -0.425690    30A     -0.423823
      31A     -0.403573    32A     -0.400479    33A     -0.366978
      34A     -0.358762    35A     -0.329471    36A     -0.306896
      37A     -0.301738    38A     -0.285807    39A     -0.269015
      40A     -0.250717    41A     -0.236762

  @DF-RHF Final Energy:  -797.83929172310548

   => Energetics <=

    Nuclear Repulsion Energy =            613.8598951953531468
    One-Electron Energy =               -2333.8018220926574031
    Two-Electron Energy =                 922.1026351741987810
    Total Energy =                       -797.8392917231054753
  Basis Set: (AUG-CC-PVTZ AUX)
    Blend: AUG-CC-PVTZ-RI
    Molecular point group: c1

    Geometry (in Angstrom), charge = -1, multiplicity = 1:

       Center              X                  Y                   Z               Mass
    ------------   -----------------  -----------------  -----------------  -----------------
         P           -0.003489371926    -0.983823626519     0.009317606232    30.973761998420
         O           -1.163285971926     0.095046873481     0.513734806232    15.994914619570
         O            1.148261628074     0.076732373481    -0.549705393768    15.994914619570
         O            0.533636228074    -1.730510526519     1.202285406232    15.994914619570
         O           -0.508178371926    -1.702991626519    -1.214253393768    15.994914619570
         C           -1.822502371926     0.876812373481    -0.427462393768    12.000000000000
         C            1.811214628074     0.881964373481     0.444731606232    12.000000000000
         C           -2.677003371926     1.894331373481     0.296579606232    12.000000000000
         C            2.683858628074     1.882940373481    -0.280794393768    12.000000000000
         H           -1.076380371926     1.372065373481    -1.058996393768     1.007825032230
         H           -2.431183371926     0.229114373481    -1.066730393768     1.007825032230
         H            1.061806628074     1.391137373481     1.061138606232     1.007825032230
         H            2.406033628074     0.236566373481     1.099174606232     1.007825032230
         H           -3.217249371926     2.518204373481    -0.422046393768     1.007825032230
         H           -3.406865371926     1.392282373481     0.936295606232     1.007825032230
         H           -2.053340371926     2.541180373481     0.918282606232     1.007825032230
         H            3.219865628074     2.511483373481     0.436919606232     1.007825032230
         H            3.417787628074     1.366443373481    -0.904109393768     1.007825032230
         H            2.073954628074     2.526771373481    -0.919042393768     1.007825032230

  Basis Set: AUG-CC-PVTZ
    Blend: AUG-CC-PVTZ
  Basis Set: (AUG-CC-PVTZ AUX)
    Blend: AUG-CC-PVTZ-JKFIT
	 Reference Energy          =    -797.8392917231054753 [Eh]
	 Singles Energy            =      -0.0000000000000000 [Eh]
	 Same-Spin Energy          =      -0.4976025654578203 [Eh]
	 Opposite-Spin Energy      =      -1.5437069698849819 [Eh]
	 Correlation Energy        =      -2.0413095353428021 [Eh]
	 Total Energy              =    -799.8806012584482232 [Eh]

	 ================> DF-SCS-MP2 Energies <==================
	-----------------------------------------------------------
	 SCS Same-Spin Scale       =       0.3333333333333333 [-]
	 SCS Opposite-Spin Scale   =       1.2000000000000000 [-]
	 SCS Same-Spin Energy      =      -0.1658675218192734 [Eh]
	 SCS Opposite-Spin Energy  =      -1.8524483638619782 [Eh]
	 SCS Correlation Energy    =      -2.0183158856812518 [Eh]
	 SCS Total Energy          =    -799.8576076087866795 [Eh]
	-----------------------------------------------------------

  Dipole Moment: [D]
     X:     0.0309      Y:     7.4478      Z:     0.2308     Total:     7.4515

*** Psi4 exiting successfully. Buy a developer a beer!
