                               Psi4 1.3.2 release

  ==> Input File <==

--------------------------------------------------------------------------
#psi4
#
memory 32 gb

molecule  {
-1 1
  P       -0.0010900    -1.0890910     0.0004590
  O       -1.1748114    -0.0351716     0.5684764
  O        1.1506610    -0.0285350    -0.5585640
  O        0.5034080    -1.8082920     1.2241620
  O       -0.5057790    -1.8082590    -1.2231120
  C       -1.8201030     0.7715450    -0.4363210
  C        1.8136140     0.7766970     0.4358730
  C       -2.6746040     1.7890640     0.2877210
  C        2.6862580     1.7776730    -0.2896530
  H       -1.0881005     1.2749220    -1.0778759
  H       -2.4287840     0.1238470    -1.0755890
  H        1.0642060     1.2858700     1.0522800
  H        2.4084330     0.1312990     1.0903160
  H       -3.2148500     2.4129370    -0.4309050
  H       -3.4044660     1.2870150     0.9274370
  H       -2.0509410     2.4359130     0.9094240
  H        3.2222650     2.4062160     0.4280610
  H        3.4201870     1.2611760    -0.9129680
  H        2.0763540     2.4215040    -0.9279010
units angstrom
no_reorient  #important for SAPT in psi4, default
symmetry c1  #important for SAPT in psi4, default
}

set PROPERTIES_ORIGIN ["COM"]
properties('MP2/aug-cc-pvtz', properties = ['dipole'])
--------------------------------------------------------------------------

    Molecular point group: c1
  Charge       = -1
  Multiplicity = 1
  Basis Set: AUG-CC-PVTZ
    Blend: AUG-CC-PVTZ
  Basis Set: (AUG-CC-PVTZ AUX)
    Blend: AUG-CC-PVTZ-JKFIT

    Orbital Energies [Eh]
    ---------------------

    Doubly Occupied:

       1A    -79.880835     2A    -20.406505     3A    -20.405118
       4A    -20.304428     5A    -20.304406     6A    -11.145809
       7A    -11.143885     8A    -11.105525     9A    -11.103798
      10A     -7.396173    11A     -5.294985    12A     -5.294153
      13A     -5.292756    14A     -1.233736    15A     -1.187603
      16A     -1.099866    17A     -1.060048    18A     -0.894463
      19A     -0.890149    20A     -0.714421    21A     -0.711779
      22A     -0.599905    23A     -0.538893    24A     -0.528441
      25A     -0.507203    26A     -0.457664    27A     -0.449545
      28A     -0.442078    29A     -0.423057    30A     -0.422468
      31A     -0.400979    32A     -0.398737    33A     -0.367094
      34A     -0.360986    35A     -0.331580    36A     -0.307898
      37A     -0.306006    38A     -0.284448    39A     -0.266999
      40A     -0.251496    41A     -0.237128

  @DF-RHF Final Energy:  -797.83749177053346

   => Energetics <=

    Nuclear Repulsion Energy =            612.4321081154539570
    One-Electron Energy =               -2331.0331076596294224
    Two-Electron Energy =                 920.7635077736420044
    Total Energy =                       -797.8374917705334610
  Basis Set: (AUG-CC-PVTZ AUX)
    Blend: AUG-CC-PVTZ-RI
    Molecular point group: c1

    Geometry (in Angstrom), charge = -1, multiplicity = 1:

       Center              X                  Y                   Z               Mass
    ------------   -----------------  -----------------  -----------------  -----------------
         P            0.001469285618    -0.984142067009    -0.000476362212    30.973761998420
         O           -1.172252114382     0.069777332991     0.567541037788    15.994914619570
         O            1.153220285618     0.076413932991    -0.559499362212    15.994914619570
         O            0.505967285618    -1.703343067009     1.223226637788    15.994914619570
         O           -0.503219714382    -1.703310067009    -1.224047362212    15.994914619570
         C           -1.817543714382     0.876493932991    -0.437256362212    12.000000000000
         C            1.816173285618     0.881645932991     0.434937637788    12.000000000000
         C           -2.672044714382     1.894012932991     0.286785637788    12.000000000000
         C            2.688817285618     1.882621932991    -0.290588362212    12.000000000000
         H           -1.085541214382     1.379870932991    -1.078811262212     1.007825032230
         H           -2.426224714382     0.228795932991    -1.076524362212     1.007825032230
         H            1.066765285618     1.390818932991     1.051344637788     1.007825032230
         H            2.410992285618     0.236247932991     1.089380637788     1.007825032230
         H           -3.212290714382     2.517885932991    -0.431840362212     1.007825032230
         H           -3.401906714382     1.391963932991     0.926501637788     1.007825032230
         H           -2.048381714382     2.540861932991     0.908488637788     1.007825032230
         H            3.224824285618     2.511164932991     0.427125637788     1.007825032230
         H            3.422746285618     1.366124932991    -0.913903362212     1.007825032230
         H            2.078913285618     2.526452932991    -0.928836362212     1.007825032230

  Basis Set: AUG-CC-PVTZ
    Blend: AUG-CC-PVTZ
  Basis Set: (AUG-CC-PVTZ AUX)
    Blend: AUG-CC-PVTZ-JKFIT
	 Reference Energy          =    -797.8374917705334610 [Eh]
	 Singles Energy            =      -0.0000000000000000 [Eh]
	 Same-Spin Energy          =      -0.4980916668914879 [Eh]
	 Opposite-Spin Energy      =      -1.5456608970328309 [Eh]
	 Correlation Energy        =      -2.0437525639243188 [Eh]
	 Total Energy              =    -799.8812443344577332 [Eh]

	 ================> DF-SCS-MP2 Energies <==================
	-----------------------------------------------------------
	 SCS Same-Spin Scale       =       0.3333333333333333 [-]
	 SCS Opposite-Spin Scale   =       1.2000000000000000 [-]
	 SCS Same-Spin Energy      =      -0.1660305556304960 [Eh]
	 SCS Opposite-Spin Energy  =      -1.8547930764393969 [Eh]
	 SCS Correlation Energy    =      -2.0208236320698929 [Eh]
	 SCS Total Energy          =    -799.8583154026033526 [Eh]
	-----------------------------------------------------------

  Dipole Moment: [D]
     X:     0.0995      Y:     7.4738      Z:    -0.0247     Total:     7.4745

*** Psi4 exiting successfully. Buy a developer a beer!
