                               Psi4 1.3.2 release

  ==> Input File <==

--------------------------------------------------------------------------
#psi4
#
memory 32 gb

molecule  {
0 1
  C        0.0000070    -0.5370720     0.0000000
  O        0.0000070     0.6840270     0.0000000
  H       -0.0000556    -1.2313790     1.1038318
  H       -0.0000460    -1.1248930    -0.9345370
units angstrom
no_reorient  #important for SAPT in psi4, default
symmetry c1  #important for SAPT in psi4, default
}

set PROPERTIES_ORIGIN ["COM"]
properties('MP2/aug-cc-pvtz', properties = ['dipole'])
--------------------------------------------------------------------------

    Molecular point group: c1
  Charge       = 0
  Multiplicity = 1
  Basis Set: AUG-CC-PVTZ
    Blend: AUG-CC-PVTZ
  Basis Set: (AUG-CC-PVTZ AUX)
    Blend: AUG-CC-PVTZ-JKFIT

    Orbital Energies [Eh]
    ---------------------

    Doubly Occupied:

       1A    -20.587458     2A    -11.368669     3A     -1.402487
       4A     -0.852709     5A     -0.673328     6A     -0.641909
       7A     -0.536999     8A     -0.436143

  @DF-RHF Final Energy:  -113.89167838225961

   => Energetics <=

    Nuclear Repulsion Energy =             30.3654540737998495
    One-Electron Energy =                -215.5148618301510339
    Two-Electron Energy =                  71.2577293740915820
    Total Energy =                       -113.8916783822596130
  Basis Set: (AUG-CC-PVTZ AUX)
    Blend: AUG-CC-PVTZ-RI
    Molecular point group: c1

    Geometry (in Angstrom), charge = 0, multiplicity = 1:

       Center              X                  Y                   Z               Mass
    ------------   -----------------  -----------------  -----------------  -----------------
         C            0.000003882119    -0.607759758810    -0.005685315790    12.000000000000
         O            0.000003882119     0.613339241190    -0.005685315790    15.994914619570
         H           -0.000058717881    -1.302066758810     1.098146484210     1.007825032230
         H           -0.000049117881    -1.195580758810    -0.940222315790     1.007825032230

  Basis Set: AUG-CC-PVTZ
    Blend: AUG-CC-PVTZ
  Basis Set: (AUG-CC-PVTZ AUX)
    Blend: AUG-CC-PVTZ-JKFIT
	 Reference Energy          =    -113.8916783822596130 [Eh]
	 Singles Energy            =      -0.0000000000000000 [Eh]
	 Same-Spin Energy          =      -0.1027048591333113 [Eh]
	 Opposite-Spin Energy      =      -0.3363111132662880 [Eh]
	 Correlation Energy        =      -0.4390159723995993 [Eh]
	 Total Energy              =    -114.3306943546592152 [Eh]

	 ================> DF-SCS-MP2 Energies <==================
	-----------------------------------------------------------
	 SCS Same-Spin Scale       =       0.3333333333333333 [-]
	 SCS Opposite-Spin Scale   =       1.2000000000000000 [-]
	 SCS Same-Spin Energy      =      -0.0342349530444371 [Eh]
	 SCS Opposite-Spin Energy  =      -0.4035733359195456 [Eh]
	 SCS Correlation Energy    =      -0.4378082889639827 [Eh]
	 SCS Total Energy          =    -114.3294866712235915 [Eh]
	-----------------------------------------------------------

  Dipole Moment: [D]
     X:    -0.0000      Y:    -2.2342      Z:    -0.2188     Total:     2.2449

*** Psi4 exiting successfully. Buy a developer a beer!
