                               Psi4 1.3.2 release

  ==> Input File <==

--------------------------------------------------------------------------
#psi4
#
memory 32 gb

molecule  {
0 1
  C        0.0000070    -0.5370720     0.0000000
  O        0.0000070     0.6840270     0.0000000
  H       -0.0000545    -1.2193586     0.8679735
  H       -0.0000460    -1.1248930    -0.9345370
units angstrom
no_reorient  #important for SAPT in psi4, default
symmetry c1  #important for SAPT in psi4, default
}

set PROPERTIES_ORIGIN ["COM"]
properties('MP2/aug-cc-pvtz', properties = ['dipole'])
--------------------------------------------------------------------------

    Molecular point group: c1
  Charge       = 0
  Multiplicity = 1
  Basis Set: AUG-CC-PVTZ
    Blend: AUG-CC-PVTZ
  Basis Set: (AUG-CC-PVTZ AUX)
    Blend: AUG-CC-PVTZ-JKFIT

    Orbital Energies [Eh]
    ---------------------

    Doubly Occupied:

       1A    -20.583329     2A    -11.348392     3A     -1.398246
       4A     -0.879443     5A     -0.683885     6A     -0.654393
       7A     -0.533012     8A     -0.444735

  @DF-RHF Final Energy:  -113.90953241835294

   => Energetics <=

    Nuclear Repulsion Energy =             30.9491572717821306
    One-Electron Energy =                -216.6665071494036852
    Two-Electron Energy =                  71.8078174592686196
    Total Energy =                       -113.9095324183529385
  Basis Set: (AUG-CC-PVTZ AUX)
    Blend: AUG-CC-PVTZ-RI
    Molecular point group: c1

    Geometry (in Angstrom), charge = 0, multiplicity = 1:

       Center              X                  Y                   Z               Mass
    ------------   -----------------  -----------------  -----------------  -----------------
         C            0.000003845178    -0.608163431988     0.002235358189    12.000000000000
         O            0.000003845178     0.612935568012     0.002235358189    15.994914619570
         H           -0.000057654822    -1.290450031988     0.870208858189     1.007825032230
         H           -0.000049154822    -1.195984431988    -0.932301641811     1.007825032230

  Basis Set: AUG-CC-PVTZ
    Blend: AUG-CC-PVTZ
  Basis Set: (AUG-CC-PVTZ AUX)
    Blend: AUG-CC-PVTZ-JKFIT
	 Reference Energy          =    -113.9095324183529385 [Eh]
	 Singles Energy            =      -0.0000000000000000 [Eh]
	 Same-Spin Energy          =      -0.1020613285370834 [Eh]
	 Opposite-Spin Energy      =      -0.3343921683609637 [Eh]
	 Correlation Energy        =      -0.4364534968980471 [Eh]
	 Total Energy              =    -114.3459859152509921 [Eh]

	 ================> DF-SCS-MP2 Energies <==================
	-----------------------------------------------------------
	 SCS Same-Spin Scale       =       0.3333333333333333 [-]
	 SCS Opposite-Spin Scale   =       1.2000000000000000 [-]
	 SCS Same-Spin Energy      =      -0.0340204428456945 [Eh]
	 SCS Opposite-Spin Energy  =      -0.4012706020331564 [Eh]
	 SCS Correlation Energy    =      -0.4352910448788508 [Eh]
	 SCS Total Energy          =    -114.3448234632317906 [Eh]
	-----------------------------------------------------------

  Dipole Moment: [D]
     X:    -0.0001      Y:    -2.4346      Z:     0.0042     Total:     2.4346

*** Psi4 exiting successfully. Buy a developer a beer!
