                               Psi4 1.3.2 release

  ==> Input File <==

--------------------------------------------------------------------------
#psi4
#
memory 32 gb

molecule  {
0 1
  C        0.0000070    -0.5370720     0.0000000
  O        0.0000070     0.6840270     0.0000000
  H       -0.0000412    -1.0716500     0.8498896
  H       -0.0000460    -1.1248930    -0.9345370
units angstrom
no_reorient  #important for SAPT in psi4, default
symmetry c1  #important for SAPT in psi4, default
}

set PROPERTIES_ORIGIN ["COM"]
properties('MP2/aug-cc-pvtz', properties = ['dipole'])
--------------------------------------------------------------------------

    Molecular point group: c1
  Charge       = 0
  Multiplicity = 1
  Basis Set: AUG-CC-PVTZ
    Blend: AUG-CC-PVTZ
  Basis Set: (AUG-CC-PVTZ AUX)
    Blend: AUG-CC-PVTZ-JKFIT

    Orbital Energies [Eh]
    ---------------------

    Doubly Occupied:

       1A    -20.578391     2A    -11.334536     3A     -1.395970
       4A     -0.893820     5A     -0.703022     6A     -0.649850
       7A     -0.529511     8A     -0.449238

  @DF-RHF Final Energy:  -113.90665766151757

   => Energetics <=

    Nuclear Repulsion Energy =             31.3855155536655488
    One-Electron Energy =                -217.5156694141017226
    Two-Electron Energy =                  72.2234961989185962
    Total Energy =                       -113.9066576615175705
  Basis Set: (AUG-CC-PVTZ AUX)
    Blend: AUG-CC-PVTZ-RI
    Molecular point group: c1

    Geometry (in Angstrom), charge = 0, multiplicity = 1:

       Center              X                  Y                   Z               Mass
    ------------   -----------------  -----------------  -----------------  -----------------
         C            0.000003398533    -0.613123832638     0.002842657895    12.000000000000
         O            0.000003398533     0.607975167362     0.002842657895    15.994914619570
         H           -0.000044801467    -1.147701832638     0.852732257895     1.007825032230
         H           -0.000049601467    -1.200944832638    -0.931694342105     1.007825032230

  Basis Set: AUG-CC-PVTZ
    Blend: AUG-CC-PVTZ
  Basis Set: (AUG-CC-PVTZ AUX)
    Blend: AUG-CC-PVTZ-JKFIT
	 Reference Energy          =    -113.9066576615175705 [Eh]
	 Singles Energy            =      -0.0000000000000000 [Eh]
	 Same-Spin Energy          =      -0.1017767377183272 [Eh]
	 Opposite-Spin Energy      =      -0.3336959592111006 [Eh]
	 Correlation Energy        =      -0.4354726969294277 [Eh]
	 Total Energy              =    -114.3421303584469939 [Eh]

	 ================> DF-SCS-MP2 Energies <==================
	-----------------------------------------------------------
	 SCS Same-Spin Scale       =       0.3333333333333333 [-]
	 SCS Opposite-Spin Scale   =       1.2000000000000000 [-]
	 SCS Same-Spin Energy      =      -0.0339255792394424 [Eh]
	 SCS Opposite-Spin Energy  =      -0.4004351510533207 [Eh]
	 SCS Correlation Energy    =      -0.4343607302927631 [Eh]
	 SCS Total Energy          =    -114.3410183918103371 [Eh]
	-----------------------------------------------------------

  Dipole Moment: [D]
     X:    -0.0000      Y:    -2.4855      Z:     0.0684     Total:     2.4865

*** Psi4 exiting successfully. Buy a developer a beer!
