                               Psi4 1.3.2 release

  ==> Input File <==

--------------------------------------------------------------------------
#psi4
#
memory 32 gb

molecule  {
0 1
  C        0.0000070    -0.5370720     0.0000000
  O        0.0000070     0.6840270     0.0000000
  H       -0.0000369    -1.0239871     0.9908615
  H       -0.0000460    -1.1248930    -0.9345370
units angstrom
no_reorient  #important for SAPT in psi4, default
symmetry c1  #important for SAPT in psi4, default
}

set PROPERTIES_ORIGIN ["COM"]
properties('MP2/aug-cc-pvtz', properties = ['dipole'])
--------------------------------------------------------------------------

    Molecular point group: c1
  Charge       = 0
  Multiplicity = 1
  Basis Set: AUG-CC-PVTZ
    Blend: AUG-CC-PVTZ
  Basis Set: (AUG-CC-PVTZ AUX)
    Blend: AUG-CC-PVTZ-JKFIT

    Orbital Energies [Eh]
    ---------------------

    Doubly Occupied:

       1A    -20.577695     2A    -11.344700     3A     -1.396744
       4A     -0.868795     5A     -0.697875     6A     -0.643765
       7A     -0.529816     8A     -0.445152

  @DF-RHF Final Energy:  -113.91075725890505

   => Energetics <=

    Nuclear Repulsion Energy =             31.0506916626396077
    One-Electron Energy =                -216.9138134630921115
    Two-Electron Energy =                  71.9523645415474675
    Total Energy =                       -113.9107572589050505
  Basis Set: (AUG-CC-PVTZ AUX)
    Blend: AUG-CC-PVTZ-RI
    Molecular point group: c1

    Geometry (in Angstrom), charge = 0, multiplicity = 1:

       Center              X                  Y                   Z               Mass
    ------------   -----------------  -----------------  -----------------  -----------------
         C            0.000003254129    -0.614724464423    -0.001891508595    12.000000000000
         O            0.000003254129     0.606374535577    -0.001891508595    15.994914619570
         H           -0.000040645871    -1.101639564423     0.988969991405     1.007825032230
         H           -0.000049745871    -1.202545464423    -0.936428508595     1.007825032230

  Basis Set: AUG-CC-PVTZ
    Blend: AUG-CC-PVTZ
  Basis Set: (AUG-CC-PVTZ AUX)
    Blend: AUG-CC-PVTZ-JKFIT
	 Reference Energy          =    -113.9107572589050505 [Eh]
	 Singles Energy            =      -0.0000000000000000 [Eh]
	 Same-Spin Energy          =      -0.1019692194628674 [Eh]
	 Opposite-Spin Energy      =      -0.3340226899330146 [Eh]
	 Correlation Energy        =      -0.4359919093958820 [Eh]
	 Total Energy              =    -114.3467491683009314 [Eh]

	 ================> DF-SCS-MP2 Energies <==================
	-----------------------------------------------------------
	 SCS Same-Spin Scale       =       0.3333333333333333 [-]
	 SCS Opposite-Spin Scale   =       1.2000000000000000 [-]
	 SCS Same-Spin Energy      =      -0.0339897398209558 [Eh]
	 SCS Opposite-Spin Energy  =      -0.4008272279196176 [Eh]
	 SCS Correlation Energy    =      -0.4348169677405733 [Eh]
	 SCS Total Energy          =    -114.3455742266456241 [Eh]
	-----------------------------------------------------------

  Dipole Moment: [D]
     X:    -0.0000      Y:    -2.4114      Z:    -0.0071     Total:     2.4114

*** Psi4 exiting successfully. Buy a developer a beer!
