                               Psi4 1.3.2 release

  ==> Input File <==

--------------------------------------------------------------------------
#psi4
#
memory 32 gb

molecule  {
0 1
  C        0.0000070    -0.5370720     0.0000000
  O        0.0000070     0.4840270     0.0000000
  H       -0.0000460    -1.1248930     0.9345370
  H       -0.0000460    -1.1248930    -0.9345370
units angstrom
no_reorient  #important for SAPT in psi4, default
symmetry c1  #important for SAPT in psi4, default
}

set PROPERTIES_ORIGIN ["COM"]
properties('MP2/aug-cc-pvtz', properties = ['dipole'])
--------------------------------------------------------------------------

    Molecular point group: c1
  Charge       = 0
  Multiplicity = 1
  Basis Set: AUG-CC-PVTZ
    Blend: AUG-CC-PVTZ
  Basis Set: (AUG-CC-PVTZ AUX)
    Blend: AUG-CC-PVTZ-JKFIT

    Orbital Energies [Eh]
    ---------------------

    Doubly Occupied:

       1A    -20.565931     2A    -11.304468     3A     -1.543978
       4A     -0.836325     5A     -0.751738     6A     -0.701300
       7A     -0.633433     8A     -0.408560

  @DF-RHF Final Energy:  -113.84948525688850

   => Energetics <=

    Nuclear Repulsion Energy =             35.4610171166615871
    One-Electron Energy =                -225.1295380066563894
    Two-Electron Energy =                  75.8190356331062958
    Total Energy =                       -113.8494852568884994
  Basis Set: (AUG-CC-PVTZ AUX)
    Blend: AUG-CC-PVTZ-RI
    Molecular point group: c1

    Geometry (in Angstrom), charge = 0, multiplicity = 1:

       Center              X                  Y                   Z               Mass
    ------------   -----------------  -----------------  -----------------  -----------------
         C            0.000003559728    -0.504740582061     0.000000000000    12.000000000000
         O            0.000003559728     0.516358417939     0.000000000000    15.994914619570
         H           -0.000049440272    -1.092561582061     0.934537000000     1.007825032230
         H           -0.000049440272    -1.092561582061    -0.934537000000     1.007825032230

  Basis Set: AUG-CC-PVTZ
    Blend: AUG-CC-PVTZ
  Basis Set: (AUG-CC-PVTZ AUX)
    Blend: AUG-CC-PVTZ-JKFIT
	 Reference Energy          =    -113.8494852568884994 [Eh]
	 Singles Energy            =      -0.0000000000000000 [Eh]
	 Same-Spin Energy          =      -0.0972696609747920 [Eh]
	 Opposite-Spin Energy      =      -0.3206290083967105 [Eh]
	 Correlation Energy        =      -0.4178986693715025 [Eh]
	 Total Energy              =    -114.2673839262599955 [Eh]

	 ================> DF-SCS-MP2 Energies <==================
	-----------------------------------------------------------
	 SCS Same-Spin Scale       =       0.3333333333333333 [-]
	 SCS Opposite-Spin Scale   =       1.2000000000000000 [-]
	 SCS Same-Spin Energy      =      -0.0324232203249307 [Eh]
	 SCS Opposite-Spin Energy  =      -0.3847548100760527 [Eh]
	 SCS Correlation Energy    =      -0.4171780304009833 [Eh]
	 SCS Total Energy          =    -114.2666632872894894 [Eh]
	-----------------------------------------------------------

  Dipole Moment: [D]
     X:    -0.0000      Y:    -1.4587      Z:     0.0000     Total:     1.4587

*** Psi4 exiting successfully. Buy a developer a beer!
