                               Psi4 1.4a3.dev225

  ==> Input File <==

--------------------------------------------------------------------------
#psi4
#
memory 32 gb

molecule  {
0 1
  C        0.0000000    -0.5370380     0.0000000
  O        0.0000000     0.6840550     0.0000000
  H        0.0000000    -1.1144557     0.9175578
  H        0.0000000    -1.1251080    -0.9344850
units angstrom
no_reorient  #important for SAPT in psi4, default
symmetry c1  #important for SAPT in psi4, default
}

set PROPERTIES_ORIGIN ["COM"]
properties('MP2/aug-cc-pvtz', properties = ['dipole'])
--------------------------------------------------------------------------

    Molecular point group: c1
  Charge       = 0
  Multiplicity = 1
  Basis Set: AUG-CC-PVTZ
    Blend: AUG-CC-PVTZ
  Basis Set: (AUG-CC-PVTZ AUX)
    Blend: AUG-CC-PVTZ-JKFIT

    Orbital Energies [Eh]
    ---------------------

    Doubly Occupied:

       1A    -20.580040     2A    -11.344182     3A     -1.397011
       4A     -0.877387     5A     -0.693230     6A     -0.649473
       7A     -0.530937     8A     -0.446419

  @DF-RHF Final Energy:  -113.91196674898474

   => Energetics <=

    Nuclear Repulsion Energy =             31.0672675270956411
    One-Electron Energy =                -216.9211134631691777
    Two-Electron Energy =                  71.9418791870887873
    Total Energy =                       -113.9119667489847387
  Basis Set: (AUG-CC-PVTZ AUX)
    Blend: AUG-CC-PVTZ-RI
    Molecular point group: c1

    Geometry (in Angstrom), charge = 0, multiplicity = 1:

       Center              X                  Y                   Z               Mass
    ------------   -----------------  -----------------  -----------------  -----------------
         C            0.000000000000    -0.611673615342     0.000568455011    12.000000000000
         O            0.000000000000     0.609419384658     0.000568455011    15.994914619570
         H            0.000000000000    -1.189091315342     0.918126255011     1.007825032230
         H            0.000000000000    -1.199743615342    -0.933916544989     1.007825032230

  Basis Set: AUG-CC-PVTZ
    Blend: AUG-CC-PVTZ
  Basis Set: (AUG-CC-PVTZ AUX)
    Blend: AUG-CC-PVTZ-JKFIT
	 Reference Energy          =    -113.9119667489847387 [Eh]
	 Singles Energy            =      -0.0000000000000000 [Eh]
	 Same-Spin Energy          =      -0.1019220027539612 [Eh]
	 Opposite-Spin Energy      =      -0.3339931965432592 [Eh]
	 Correlation Energy        =      -0.4359151992972204 [Eh]
	 Total Energy              =    -114.3478819482819659 [Eh]

	 ================> DF-SCS-MP2 Energies <==================
	-----------------------------------------------------------
	 SCS Same-Spin Scale       =       0.3333333333333333 [-]
	 SCS Opposite-Spin Scale   =       1.2000000000000000 [-]
	 SCS Same-Spin Energy      =      -0.0339740009179871 [Eh]
	 SCS Opposite-Spin Energy  =      -0.4007918358519110 [Eh]
	 SCS Correlation Energy    =      -0.4347658367698981 [Eh]
	 SCS Total Energy          =    -114.3467325857546371 [Eh]
	-----------------------------------------------------------

  Dipole Moment: [D]
     X:    -0.0000      Y:    -2.4394      Z:     0.0159     Total:     2.4394

*** Psi4 exiting successfully. Buy a developer a beer!
