                               Psi4 1.4a3.dev225

  ==> Input File <==

--------------------------------------------------------------------------
#psi4
#
memory 32 gb

molecule  {
0 1
  C        0.0000000    -0.5370380     0.0000000
  O        0.0000000     0.6840550     0.0000000
  H        0.0000000    -1.1517386     0.9768030
  H        0.0000000    -1.1251080    -0.9344850
units angstrom
no_reorient  #important for SAPT in psi4, default
symmetry c1  #important for SAPT in psi4, default
}

set PROPERTIES_ORIGIN ["COM"]
properties('MP2/aug-cc-pvtz', properties = ['dipole'])
--------------------------------------------------------------------------

    Molecular point group: c1
  Charge       = 0
  Multiplicity = 1
  Basis Set: AUG-CC-PVTZ
    Blend: AUG-CC-PVTZ
  Basis Set: (AUG-CC-PVTZ AUX)
    Blend: AUG-CC-PVTZ-JKFIT

    Orbital Energies [Eh]
    ---------------------

    Doubly Occupied:

       1A    -20.581944     2A    -11.352354     3A     -1.398353
       4A     -0.866605     5A     -0.684983     6A     -0.648575
       7A     -0.532525     8A     -0.443616

  @DF-RHF Final Energy:  -113.90953388700116

   => Energetics <=

    Nuclear Repulsion Energy =             30.8198124742915560
    One-Electron Energy =                -216.4407814753079720
    Two-Electron Energy =                  71.7114351140152593
    Total Energy =                       -113.9095338870011602
  Basis Set: (AUG-CC-PVTZ AUX)
    Blend: AUG-CC-PVTZ-RI
    Molecular point group: c1

    Geometry (in Angstrom), charge = 0, multiplicity = 1:

       Center              X                  Y                   Z               Mass
    ------------   -----------------  -----------------  -----------------  -----------------
         C            0.000000000000    -0.610421568262    -0.001421137528    12.000000000000
         O            0.000000000000     0.610671431738    -0.001421137528    15.994914619570
         H            0.000000000000    -1.225122168262     0.975381862472     1.007825032230
         H            0.000000000000    -1.198491568262    -0.935906137528     1.007825032230

  Basis Set: AUG-CC-PVTZ
    Blend: AUG-CC-PVTZ
  Basis Set: (AUG-CC-PVTZ AUX)
    Blend: AUG-CC-PVTZ-JKFIT
	 Reference Energy          =    -113.9095338870011602 [Eh]
	 Singles Energy            =      -0.0000000000000000 [Eh]
	 Same-Spin Energy          =      -0.1021184602915200 [Eh]
	 Opposite-Spin Energy      =      -0.3345083330981149 [Eh]
	 Correlation Energy        =      -0.4366267933896348 [Eh]
	 Total Energy              =    -114.3461606803907955 [Eh]

	 ================> DF-SCS-MP2 Energies <==================
	-----------------------------------------------------------
	 SCS Same-Spin Scale       =       0.3333333333333333 [-]
	 SCS Opposite-Spin Scale   =       1.2000000000000000 [-]
	 SCS Same-Spin Energy      =      -0.0340394867638400 [Eh]
	 SCS Opposite-Spin Energy  =      -0.4014099997177379 [Eh]
	 SCS Correlation Energy    =      -0.4354494864815779 [Eh]
	 SCS Total Energy          =    -114.3449833734827337 [Eh]
	-----------------------------------------------------------

  Dipole Moment: [D]
     X:    -0.0000      Y:    -2.3867      Z:    -0.0445     Total:     2.3871

*** Psi4 exiting successfully. Buy a developer a beer!
