                               Psi4 1.3.2 release

  ==> Input File <==

--------------------------------------------------------------------------
#psi4
#
memory 32 gb

molecule  {
0 1
  C        0.0000070    -0.5370720     0.0000000
  O        0.0000070     0.7840270     0.0000000
  H       -0.0000460    -1.1248930     0.9345370
  H       -0.0000460    -1.1248930    -0.9345370
units angstrom
no_reorient  #important for SAPT in psi4, default
symmetry c1  #important for SAPT in psi4, default
}

set PROPERTIES_ORIGIN ["COM"]
properties('MP2/aug-cc-pvtz', properties = ['dipole'])
--------------------------------------------------------------------------

    Molecular point group: c1
  Charge       = 0
  Multiplicity = 1
  Basis Set: AUG-CC-PVTZ
    Blend: AUG-CC-PVTZ
  Basis Set: (AUG-CC-PVTZ AUX)
    Blend: AUG-CC-PVTZ-JKFIT

    Orbital Energies [Eh]
    ---------------------

    Doubly Occupied:

       1A    -20.587030     2A    -11.367267     3A     -1.339843
       4A     -0.891448     5A     -0.676414     6A     -0.622921
       7A     -0.494983     8A     -0.456550

  @DF-RHF Final Energy:  -113.88592788229738

   => Energetics <=

    Nuclear Repulsion Energy =             29.2453061561880290
    One-Electron Energy =                -213.3895571920235739
    Two-Electron Energy =                  70.2583231535381572
    Total Energy =                       -113.8859278822973806
  Basis Set: (AUG-CC-PVTZ AUX)
    Blend: AUG-CC-PVTZ-RI
    Molecular point group: c1

    Geometry (in Angstrom), charge = 0, multiplicity = 1:

       Center              X                  Y                   Z               Mass
    ------------   -----------------  -----------------  -----------------  -----------------
         C            0.000003559728    -0.664633421012     0.000000000000    12.000000000000
         O            0.000003559728     0.656465578988     0.000000000000    15.994914619570
         H           -0.000049440272    -1.252454421012     0.934537000000     1.007825032230
         H           -0.000049440272    -1.252454421012    -0.934537000000     1.007825032230

  Basis Set: AUG-CC-PVTZ
    Blend: AUG-CC-PVTZ
  Basis Set: (AUG-CC-PVTZ AUX)
    Blend: AUG-CC-PVTZ-JKFIT
	 Reference Energy          =    -113.8859278822973806 [Eh]
	 Singles Energy            =      -0.0000000000000000 [Eh]
	 Same-Spin Energy          =      -0.1049905212591787 [Eh]
	 Opposite-Spin Energy      =      -0.3423357720108639 [Eh]
	 Correlation Energy        =      -0.4473262932700426 [Eh]
	 Total Energy              =    -114.3332541755674185 [Eh]

	 ================> DF-SCS-MP2 Energies <==================
	-----------------------------------------------------------
	 SCS Same-Spin Scale       =       0.3333333333333333 [-]
	 SCS Opposite-Spin Scale   =       1.2000000000000000 [-]
	 SCS Same-Spin Energy      =      -0.0349968404197262 [Eh]
	 SCS Opposite-Spin Energy  =      -0.4108029264130367 [Eh]
	 SCS Correlation Energy    =      -0.4457997668327629 [Eh]
	 SCS Total Energy          =    -114.3317276491301442 [Eh]
	-----------------------------------------------------------

  Dipole Moment: [D]
     X:    -0.0001      Y:    -2.7110      Z:     0.0000     Total:     2.7110

*** Psi4 exiting successfully. Buy a developer a beer!
