                               Psi4 1.3.2 release

  ==> Input File <==

--------------------------------------------------------------------------
#psi4
#
memory 32 gb

molecule  {
0 1
  C        0.0000070    -0.5370720     0.0000000
  O       -0.0000002     0.6773377     0.1276396
  H       -0.0000460    -1.1248930     0.9345370
  H       -0.0000460    -1.1248930    -0.9345370
units angstrom
no_reorient  #important for SAPT in psi4, default
symmetry c1  #important for SAPT in psi4, default
}

set PROPERTIES_ORIGIN ["COM"]
properties('MP2/aug-cc-pvtz', properties = ['dipole'])
--------------------------------------------------------------------------

    Molecular point group: c1
  Charge       = 0
  Multiplicity = 1
  Basis Set: AUG-CC-PVTZ
    Blend: AUG-CC-PVTZ
  Basis Set: (AUG-CC-PVTZ AUX)
    Blend: AUG-CC-PVTZ-JKFIT

    Orbital Energies [Eh]
    ---------------------

    Doubly Occupied:

       1A    -20.580466     2A    -11.346545     3A     -1.397589
       4A     -0.873892     5A     -0.691365     6A     -0.648847
       7A     -0.531435     8A     -0.444420

  @DF-RHF Final Energy:  -113.90964861472571

   => Energetics <=

    Nuclear Repulsion Energy =             31.0038031077386940
    One-Electron Energy =                -216.7977861589386919
    Two-Electron Energy =                  71.8843344364742904
    Total Energy =                       -113.9096486147257110
  Basis Set: (AUG-CC-PVTZ AUX)
    Blend: AUG-CC-PVTZ-RI
    Molecular point group: c1

    Geometry (in Angstrom), charge = 0, multiplicity = 1:

       Center              X                  Y                   Z               Mass
    ------------   -----------------  -----------------  -----------------  -----------------
         C            0.000007397156    -0.607770570803    -0.068028860022    12.000000000000
         O            0.000000197156     0.606639129197     0.059610739978    15.994914619570
         H           -0.000045602844    -1.195591570803     0.866508139978     1.007825032230
         H           -0.000045602844    -1.195591570803    -1.002565860022     1.007825032230

  Basis Set: AUG-CC-PVTZ
    Blend: AUG-CC-PVTZ
  Basis Set: (AUG-CC-PVTZ AUX)
    Blend: AUG-CC-PVTZ-JKFIT
	 Reference Energy          =    -113.9096486147257110 [Eh]
	 Singles Energy            =      -0.0000000000000000 [Eh]
	 Same-Spin Energy          =      -0.1020278169781946 [Eh]
	 Opposite-Spin Energy      =      -0.3342478031148545 [Eh]
	 Correlation Energy        =      -0.4362756200930490 [Eh]
	 Total Energy              =    -114.3459242348187530 [Eh]

	 ================> DF-SCS-MP2 Energies <==================
	-----------------------------------------------------------
	 SCS Same-Spin Scale       =       0.3333333333333333 [-]
	 SCS Opposite-Spin Scale   =       1.2000000000000000 [-]
	 SCS Same-Spin Energy      =      -0.0340092723260649 [Eh]
	 SCS Opposite-Spin Energy  =      -0.4010973637378253 [Eh]
	 SCS Correlation Energy    =      -0.4351066360638902 [Eh]
	 SCS Total Energy          =    -114.3447552507896035 [Eh]
	-----------------------------------------------------------

  Dipole Moment: [D]
     X:    -0.0000      Y:    -2.4100      Z:    -0.2649     Total:     2.4245

*** Psi4 exiting successfully. Buy a developer a beer!
