                               Psi4 1.4a3.dev225

  ==> Input File <==

--------------------------------------------------------------------------
#psi4
#
memory 32 gb

molecule  {
0 1
  C        0.0000000    -0.5370380     0.0000000
  O        0.0000000     0.7040550     0.0000000
  H        0.0000000    -1.1251080     0.9344850
  H        0.0000000    -1.1251080    -0.9344850
units angstrom
no_reorient  #important for SAPT in psi4, default
symmetry c1  #important for SAPT in psi4, default
}

set PROPERTIES_ORIGIN ["COM"]
properties('MP2/aug-cc-pvtz', properties = ['dipole'])
--------------------------------------------------------------------------

    Molecular point group: c1
  Charge       = 0
  Multiplicity = 1
  Basis Set: AUG-CC-PVTZ
    Blend: AUG-CC-PVTZ
  Basis Set: (AUG-CC-PVTZ AUX)
    Blend: AUG-CC-PVTZ-JKFIT

    Orbital Energies [Eh]
    ---------------------

    Doubly Occupied:

       1A    -20.581960     2A    -11.350812     3A     -1.384964
       4A     -0.877566     5A     -0.687204     6A     -0.644086
       7A     -0.523417     8A     -0.448255

  @DF-RHF Final Energy:  -113.90839621112386

   => Energetics <=

    Nuclear Repulsion Energy =             30.6226915507968869
    One-Electron Energy =                -216.0656480044602290
    Two-Electron Energy =                  71.5345602425394702
    Total Energy =                       -113.9083962111238577
  Basis Set: (AUG-CC-PVTZ AUX)
    Blend: AUG-CC-PVTZ-RI
    Molecular point group: c1

    Geometry (in Angstrom), charge = 0, multiplicity = 1:

       Center              X                  Y                   Z               Mass
    ------------   -----------------  -----------------  -----------------  -----------------
         C            0.000000000000    -0.621975408762    -0.000000000000    12.000000000000
         O            0.000000000000     0.619117591238    -0.000000000000    15.994914619570
         H            0.000000000000    -1.210045408762     0.934485000000     1.007825032230
         H            0.000000000000    -1.210045408762    -0.934485000000     1.007825032230

  Basis Set: AUG-CC-PVTZ
    Blend: AUG-CC-PVTZ
  Basis Set: (AUG-CC-PVTZ AUX)
    Blend: AUG-CC-PVTZ-JKFIT
	 Reference Energy          =    -113.9083962111238577 [Eh]
	 Singles Energy            =      -0.0000000000000000 [Eh]
	 Same-Spin Energy          =      -0.1025454413093914 [Eh]
	 Opposite-Spin Energy      =      -0.3356894550592919 [Eh]
	 Correlation Energy        =      -0.4382348963686833 [Eh]
	 Total Energy              =    -114.3466311074925414 [Eh]

	 ================> DF-SCS-MP2 Energies <==================
	-----------------------------------------------------------
	 SCS Same-Spin Scale       =       0.3333333333333333 [-]
	 SCS Opposite-Spin Scale   =       1.2000000000000000 [-]
	 SCS Same-Spin Energy      =      -0.0341818137697971 [Eh]
	 SCS Opposite-Spin Energy  =      -0.4028273460711502 [Eh]
	 SCS Correlation Energy    =      -0.4370091598409473 [Eh]
	 SCS Total Energy          =    -114.3454053709648122 [Eh]
	-----------------------------------------------------------

  Dipole Moment: [D]
     X:    -0.0000      Y:    -2.4940      Z:     0.0000     Total:     2.4940

*** Psi4 exiting successfully. Buy a developer a beer!
