                               Psi4 1.3.2 release

  ==> Input File <==

--------------------------------------------------------------------------
#psi4
#
memory 32 gb

molecule  {
0 1
  C        0.0000070    -0.5370720     0.0000000
  O        0.0000070     0.6840270     0.0000000
  H       -0.0000517    -1.1886511     0.8912562
  H       -0.0000460    -1.1248930    -0.9345370
units angstrom
no_reorient  #important for SAPT in psi4, default
symmetry c1  #important for SAPT in psi4, default
}

set PROPERTIES_ORIGIN ["COM"]
properties('MP2/aug-cc-pvtz', properties = ['dipole'])
--------------------------------------------------------------------------

    Molecular point group: c1
  Charge       = 0
  Multiplicity = 1
  Basis Set: AUG-CC-PVTZ
    Blend: AUG-CC-PVTZ
  Basis Set: (AUG-CC-PVTZ AUX)
    Blend: AUG-CC-PVTZ-JKFIT

    Orbital Energies [Eh]
    ---------------------

    Doubly Occupied:

       1A    -20.582400     2A    -11.347764     3A     -1.397920
       4A     -0.877593     5A     -0.686190     6A     -0.652743
       7A     -0.532446     8A     -0.445205

  @DF-RHF Final Energy:  -113.91066880748097

   => Energetics <=

    Nuclear Repulsion Energy =             30.9632048299350480
    One-Electron Energy =                -216.7032249039203862
    Two-Electron Energy =                  71.8293512665043608
    Total Energy =                       -113.9106688074809739
  Basis Set: (AUG-CC-PVTZ AUX)
    Blend: AUG-CC-PVTZ-RI
    Molecular point group: c1

    Geometry (in Angstrom), charge = 0, multiplicity = 1:

       Center              X                  Y                   Z               Mass
    ------------   -----------------  -----------------  -----------------  -----------------
         C            0.000003751148    -0.609194661740     0.001453470607    12.000000000000
         O            0.000003751148     0.611904338260     0.001453470607    15.994914619570
         H           -0.000054948852    -1.260773761740     0.892709670607     1.007825032230
         H           -0.000049248852    -1.197015661740    -0.933083529393     1.007825032230

  Basis Set: AUG-CC-PVTZ
    Blend: AUG-CC-PVTZ
  Basis Set: (AUG-CC-PVTZ AUX)
    Blend: AUG-CC-PVTZ-JKFIT
	 Reference Energy          =    -113.9106688074809739 [Eh]
	 Singles Energy            =      -0.0000000000000000 [Eh]
	 Same-Spin Energy          =      -0.1020222460770874 [Eh]
	 Opposite-Spin Energy      =      -0.3342790797107110 [Eh]
	 Correlation Energy        =      -0.4363013257877984 [Eh]
	 Total Energy              =    -114.3469701332687691 [Eh]

	 ================> DF-SCS-MP2 Energies <==================
	-----------------------------------------------------------
	 SCS Same-Spin Scale       =       0.3333333333333333 [-]
	 SCS Opposite-Spin Scale   =       1.2000000000000000 [-]
	 SCS Same-Spin Energy      =      -0.0340074153590291 [Eh]
	 SCS Opposite-Spin Energy  =      -0.4011348956528532 [Eh]
	 SCS Correlation Energy    =      -0.4351423110118823 [Eh]
	 SCS Total Energy          =    -114.3458111184928612 [Eh]
	-----------------------------------------------------------

  Dipole Moment: [D]
     X:    -0.0001      Y:    -2.4320      Z:     0.0032     Total:     2.4320

*** Psi4 exiting successfully. Buy a developer a beer!
