                               Psi4 1.3.2 release

  ==> Input File <==

--------------------------------------------------------------------------
#psi4
#
memory 32 gb

molecule  {
0 1
  C        0.0000070    -0.5370720     0.0000000
  O        0.0000070     0.6840270     0.0000000
  H       -0.0000489    -1.1571498     0.9134530
  H       -0.0000460    -1.1248930    -0.9345370
units angstrom
no_reorient  #important for SAPT in psi4, default
symmetry c1  #important for SAPT in psi4, default
}

set PROPERTIES_ORIGIN ["COM"]
properties('MP2/aug-cc-pvtz', properties = ['dipole'])
--------------------------------------------------------------------------

    Molecular point group: c1
  Charge       = 0
  Multiplicity = 1
  Basis Set: AUG-CC-PVTZ
    Blend: AUG-CC-PVTZ
  Basis Set: (AUG-CC-PVTZ AUX)
    Blend: AUG-CC-PVTZ-JKFIT

    Orbital Energies [Eh]
    ---------------------

    Doubly Occupied:

       1A    -20.581464     2A    -11.347139     3A     -1.397618
       4A     -0.875776     5A     -0.688515     6A     -0.651033
       7A     -0.531889     8A     -0.445514

  @DF-RHF Final Energy:  -113.91143447460793

   => Energetics <=

    Nuclear Repulsion Energy =             30.9783599695109011
    One-Electron Energy =                -216.7416930205498318
    Two-Electron Energy =                  71.8518985764309974
    Total Energy =                       -113.9114344746079297
  Basis Set: (AUG-CC-PVTZ AUX)
    Blend: AUG-CC-PVTZ-RI
    Molecular point group: c1

    Geometry (in Angstrom), charge = 0, multiplicity = 1:

       Center              X                  Y                   Z               Mass
    ------------   -----------------  -----------------  -----------------  -----------------
         C            0.000003657117    -0.610252549155     0.000708050088    12.000000000000
         O            0.000003657117     0.610846450845     0.000708050088    15.994914619570
         H           -0.000052242883    -1.230330349155     0.914161050088     1.007825032230
         H           -0.000049342883    -1.198073549155    -0.933828949912     1.007825032230

  Basis Set: AUG-CC-PVTZ
    Blend: AUG-CC-PVTZ
  Basis Set: (AUG-CC-PVTZ AUX)
    Blend: AUG-CC-PVTZ-JKFIT
	 Reference Energy          =    -113.9114344746079297 [Eh]
	 Singles Energy            =      -0.0000000000000000 [Eh]
	 Same-Spin Energy          =      -0.1019922359425139 [Eh]
	 Opposite-Spin Energy      =      -0.3341868254981758 [Eh]
	 Correlation Energy        =      -0.4361790614406897 [Eh]
	 Total Energy              =    -114.3476135360486126 [Eh]

	 ================> DF-SCS-MP2 Energies <==================
	-----------------------------------------------------------
	 SCS Same-Spin Scale       =       0.3333333333333333 [-]
	 SCS Opposite-Spin Scale   =       1.2000000000000000 [-]
	 SCS Same-Spin Energy      =      -0.0339974119808380 [Eh]
	 SCS Opposite-Spin Energy  =      -0.4010241905978110 [Eh]
	 SCS Correlation Energy    =      -0.4350216025786490 [Eh]
	 SCS Total Energy          =    -114.3464560771865735 [Eh]
	-----------------------------------------------------------

  Dipole Moment: [D]
     X:    -0.0001      Y:    -2.4291      Z:     0.0018     Total:     2.4291

*** Psi4 exiting successfully. Buy a developer a beer!
