                               Psi4 1.3.2 release

  ==> Input File <==

--------------------------------------------------------------------------
#psi4
#
memory 32 gb

molecule  {
0 1
  C        0.0000070    -0.5370720     0.0000000
  O        0.0000070     0.5840270     0.0000000
  H       -0.0000460    -1.1248930     0.9345370
  H       -0.0000460    -1.1248930    -0.9345370
units angstrom
no_reorient  #important for SAPT in psi4, default
symmetry c1  #important for SAPT in psi4, default
}

set PROPERTIES_ORIGIN ["COM"]
properties('MP2/aug-cc-pvtz', properties = ['dipole'])
--------------------------------------------------------------------------

    Molecular point group: c1
  Charge       = 0
  Multiplicity = 1
  Basis Set: AUG-CC-PVTZ
    Blend: AUG-CC-PVTZ
  Basis Set: (AUG-CC-PVTZ AUX)
    Blend: AUG-CC-PVTZ-JKFIT

    Orbital Energies [Eh]
    ---------------------

    Doubly Occupied:

       1A    -20.572995     2A    -11.324858     3A     -1.465909
       4A     -0.855490     5A     -0.715098     6A     -0.675125
       7A     -0.576765     8A     -0.429538

  @DF-RHF Final Energy:  -113.90832747685859

   => Energetics <=

    Nuclear Repulsion Energy =             33.0386201337122642
    One-Electron Energy =                -220.6623370305714502
    Two-Electron Energy =                  73.7153894200005908
    Total Energy =                       -113.9083274768585881
  Basis Set: (AUG-CC-PVTZ AUX)
    Blend: AUG-CC-PVTZ-RI
    Molecular point group: c1

    Geometry (in Angstrom), charge = 0, multiplicity = 1:

       Center              X                  Y                   Z               Mass
    ------------   -----------------  -----------------  -----------------  -----------------
         C            0.000003559728    -0.558038195045     0.000000000000    12.000000000000
         O            0.000003559728     0.563060804955     0.000000000000    15.994914619570
         H           -0.000049440272    -1.145859195045     0.934537000000     1.007825032230
         H           -0.000049440272    -1.145859195045    -0.934537000000     1.007825032230

  Basis Set: AUG-CC-PVTZ
    Blend: AUG-CC-PVTZ
  Basis Set: (AUG-CC-PVTZ AUX)
    Blend: AUG-CC-PVTZ-JKFIT
	 Reference Energy          =    -113.9083274768585881 [Eh]
	 Singles Energy            =      -0.0000000000000000 [Eh]
	 Same-Spin Energy          =      -0.0993788009725091 [Eh]
	 Opposite-Spin Energy      =      -0.3268748835948080 [Eh]
	 Correlation Energy        =      -0.4262536845673170 [Eh]
	 Total Energy              =    -114.3345811614259020 [Eh]

	 ================> DF-SCS-MP2 Energies <==================
	-----------------------------------------------------------
	 SCS Same-Spin Scale       =       0.3333333333333333 [-]
	 SCS Opposite-Spin Scale   =       1.2000000000000000 [-]
	 SCS Same-Spin Energy      =      -0.0331262669908364 [Eh]
	 SCS Opposite-Spin Energy  =      -0.3922498603137696 [Eh]
	 SCS Correlation Energy    =      -0.4253761273046059 [Eh]
	 SCS Total Energy          =    -114.3337036041631904 [Eh]
	-----------------------------------------------------------

  Dipole Moment: [D]
     X:    -0.0000      Y:    -2.0041      Z:    -0.0000     Total:     2.0041

*** Psi4 exiting successfully. Buy a developer a beer!
