                               Psi4 1.4a3.dev225

  ==> Input File <==

--------------------------------------------------------------------------
#psi4
#
memory 32 gb

molecule  {
0 1
  C        0.0000000    -0.5370380     0.0000000
  O        0.0000000     0.7340550     0.0000000
  H        0.0000000    -1.1251080     0.9344850
  H        0.0000000    -1.1251080    -0.9344850
units angstrom
no_reorient  #important for SAPT in psi4, default
symmetry c1  #important for SAPT in psi4, default
}

set PROPERTIES_ORIGIN ["COM"]
properties('MP2/aug-cc-pvtz', properties = ['dipole'])
--------------------------------------------------------------------------

    Molecular point group: c1
  Charge       = 0
  Multiplicity = 1
  Basis Set: AUG-CC-PVTZ
    Blend: AUG-CC-PVTZ
  Basis Set: (AUG-CC-PVTZ AUX)
    Blend: AUG-CC-PVTZ-JKFIT

    Orbital Energies [Eh]
    ---------------------

    Doubly Occupied:

       1A    -20.583993     2A    -11.357113     3A     -1.367221
       4A     -0.882857     5A     -0.682501     6A     -0.636222
       7A     -0.512153     8A     -0.451758

  @DF-RHF Final Energy:  -113.90142340655868

   => Energetics <=

    Nuclear Repulsion Energy =             30.0866412277518585
    One-Electron Energy =                -215.0284947212701923
    Two-Electron Energy =                  71.0404300869596455
    Total Energy =                       -113.9014234065586777
  Basis Set: (AUG-CC-PVTZ AUX)
    Blend: AUG-CC-PVTZ-RI
    Molecular point group: c1

    Geometry (in Angstrom), charge = 0, multiplicity = 1:

       Center              X                  Y                   Z               Mass
    ------------   -----------------  -----------------  -----------------  -----------------
         C            0.000000000000    -0.637964692658    -0.000000000000    12.000000000000
         O            0.000000000000     0.633128307342    -0.000000000000    15.994914619570
         H            0.000000000000    -1.226034692658     0.934485000000     1.007825032230
         H            0.000000000000    -1.226034692658    -0.934485000000     1.007825032230

  Basis Set: AUG-CC-PVTZ
    Blend: AUG-CC-PVTZ
  Basis Set: (AUG-CC-PVTZ AUX)
    Blend: AUG-CC-PVTZ-JKFIT
	 Reference Energy          =    -113.9014234065586777 [Eh]
	 Singles Energy            =      -0.0000000000000000 [Eh]
	 Same-Spin Energy          =      -0.1034361478127656 [Eh]
	 Opposite-Spin Energy      =      -0.3381203223686439 [Eh]
	 Correlation Energy        =      -0.4415564701814095 [Eh]
	 Total Energy              =    -114.3429798767400882 [Eh]

	 ================> DF-SCS-MP2 Energies <==================
	-----------------------------------------------------------
	 SCS Same-Spin Scale       =       0.3333333333333333 [-]
	 SCS Opposite-Spin Scale   =       1.2000000000000000 [-]
	 SCS Same-Spin Energy      =      -0.0344787159375885 [Eh]
	 SCS Opposite-Spin Energy  =      -0.4057443868423727 [Eh]
	 SCS Correlation Energy    =      -0.4402231027799612 [Eh]
	 SCS Total Energy          =    -114.3416465093386449 [Eh]
	-----------------------------------------------------------

  Dipole Moment: [D]
     X:     0.0000      Y:    -2.5863      Z:     0.0000     Total:     2.5863

*** Psi4 exiting successfully. Buy a developer a beer!
