                               Psi4 1.4a3.dev225

  ==> Input File <==

--------------------------------------------------------------------------
#psi4
#
memory 32 gb

molecule  {
0 1
  C        0.0000000    -0.5370380     0.0000000
  O        0.0000000     0.6840550     0.0000000
  H        0.0000000    -1.0984774     0.8921670
  H        0.0000000    -1.1251080    -0.9344850
units angstrom
no_reorient  #important for SAPT in psi4, default
symmetry c1  #important for SAPT in psi4, default
}

set PROPERTIES_ORIGIN ["COM"]
properties('MP2/aug-cc-pvtz', properties = ['dipole'])
--------------------------------------------------------------------------

    Molecular point group: c1
  Charge       = 0
  Multiplicity = 1
  Basis Set: AUG-CC-PVTZ
    Blend: AUG-CC-PVTZ
  Basis Set: (AUG-CC-PVTZ AUX)
    Blend: AUG-CC-PVTZ-JKFIT

    Orbital Energies [Eh]
    ---------------------

    Doubly Occupied:

       1A    -20.579359     2A    -11.340598     3A     -1.396559
       4A     -0.883010     5A     -0.696906     6A     -0.649666
       7A     -0.530356     8A     -0.447516

  @DF-RHF Final Energy:  -113.91118470262577

   => Energetics <=

    Nuclear Repulsion Energy =             31.1816092516605998
    One-Electron Energy =                -217.1376474332770954
    Two-Electron Energy =                  72.0448534789907171
    Total Energy =                       -113.9111847026257749
  Basis Set: (AUG-CC-PVTZ AUX)
    Blend: AUG-CC-PVTZ-RI
    Molecular point group: c1

    Geometry (in Angstrom), charge = 0, multiplicity = 1:

       Center              X                  Y                   Z               Mass
    ------------   -----------------  -----------------  -----------------  -----------------
         C            0.000000000000    -0.612210204069     0.001421137528    12.000000000000
         O            0.000000000000     0.608882795931     0.001421137528    15.994914619570
         H            0.000000000000    -1.173649604069     0.893588137528     1.007825032230
         H            0.000000000000    -1.200280204069    -0.933063862472     1.007825032230

  Basis Set: AUG-CC-PVTZ
    Blend: AUG-CC-PVTZ
  Basis Set: (AUG-CC-PVTZ AUX)
    Blend: AUG-CC-PVTZ-JKFIT
	 Reference Energy          =    -113.9111847026257749 [Eh]
	 Singles Energy            =      -0.0000000000000000 [Eh]
	 Same-Spin Energy          =      -0.1018569090811930 [Eh]
	 Opposite-Spin Energy      =      -0.3338446636102278 [Eh]
	 Correlation Energy        =      -0.4357015726914207 [Eh]
	 Total Energy              =    -114.3468862753171891 [Eh]

	 ================> DF-SCS-MP2 Energies <==================
	-----------------------------------------------------------
	 SCS Same-Spin Scale       =       0.3333333333333333 [-]
	 SCS Opposite-Spin Scale   =       1.2000000000000000 [-]
	 SCS Same-Spin Energy      =      -0.0339523030270643 [Eh]
	 SCS Opposite-Spin Energy  =      -0.4006135963322733 [Eh]
	 SCS Correlation Energy    =      -0.4345658993593376 [Eh]
	 SCS Total Energy          =    -114.3457506019851166 [Eh]
	-----------------------------------------------------------

  Dipole Moment: [D]
     X:     0.0000      Y:    -2.4584      Z:     0.0376     Total:     2.4587

*** Psi4 exiting successfully. Buy a developer a beer!
