                               Psi4 1.3.2 release

  ==> Input File <==

--------------------------------------------------------------------------
#psi4
#
memory 32 gb

molecule  {
0 1
  C        0.0000070    -0.5370720     0.0000000
  O        0.0000070     0.6840270     0.0000000
  H       -0.0000430    -1.0919200     0.9544824
  H       -0.0000460    -1.1248930    -0.9345370
units angstrom
no_reorient  #important for SAPT in psi4, default
symmetry c1  #important for SAPT in psi4, default
}

set PROPERTIES_ORIGIN ["COM"]
properties('MP2/aug-cc-pvtz', properties = ['dipole'])
--------------------------------------------------------------------------

    Molecular point group: c1
  Charge       = 0
  Multiplicity = 1
  Basis Set: AUG-CC-PVTZ
    Blend: AUG-CC-PVTZ
  Basis Set: (AUG-CC-PVTZ AUX)
    Blend: AUG-CC-PVTZ-JKFIT

    Orbital Energies [Eh]
    ---------------------

    Doubly Occupied:

       1A    -20.579580     2A    -11.345905     3A     -1.397102
       4A     -0.872232     5A     -0.693192     6A     -0.647471
       7A     -0.530814     8A     -0.445654

  @DF-RHF Final Energy:  -113.91184775164864

   => Energetics <=

    Nuclear Repulsion Energy =             31.0121128915483730
    One-Electron Energy =                -216.8240204976702046
    Two-Electron Energy =                  71.9000598544731844
    Total Energy =                       -113.9118477516486365
  Basis Set: (AUG-CC-PVTZ AUX)
    Blend: AUG-CC-PVTZ-RI
    Molecular point group: c1

    Geometry (in Angstrom), charge = 0, multiplicity = 1:

       Center              X                  Y                   Z               Mass
    ------------   -----------------  -----------------  -----------------  -----------------
         C            0.000003458981    -0.612443118575    -0.000669813234    12.000000000000
         O            0.000003458981     0.608655881425    -0.000669813234    15.994914619570
         H           -0.000046541019    -1.167291118575     0.953812586766     1.007825032230
         H           -0.000049541019    -1.200264118575    -0.935206813234     1.007825032230

  Basis Set: AUG-CC-PVTZ
    Blend: AUG-CC-PVTZ
  Basis Set: (AUG-CC-PVTZ AUX)
    Blend: AUG-CC-PVTZ-JKFIT
	 Reference Energy          =    -113.9118477516486365 [Eh]
	 Singles Energy            =      -0.0000000000000000 [Eh]
	 Same-Spin Energy          =      -0.1019605563511898 [Eh]
	 Opposite-Spin Energy      =      -0.3340642319921207 [Eh]
	 Correlation Energy        =      -0.4360247883433105 [Eh]
	 Total Energy              =    -114.3478725399919540 [Eh]

	 ================> DF-SCS-MP2 Energies <==================
	-----------------------------------------------------------
	 SCS Same-Spin Scale       =       0.3333333333333333 [-]
	 SCS Opposite-Spin Scale   =       1.2000000000000000 [-]
	 SCS Same-Spin Energy      =      -0.0339868521170633 [Eh]
	 SCS Opposite-Spin Energy  =      -0.4008770783905448 [Eh]
	 SCS Correlation Energy    =      -0.4348639305076081 [Eh]
	 SCS Total Energy          =    -114.3467116821562399 [Eh]
	-----------------------------------------------------------

  Dipole Moment: [D]
     X:    -0.0000      Y:    -2.4216      Z:    -0.0021     Total:     2.4216

*** Psi4 exiting successfully. Buy a developer a beer!
