                               Psi4 1.3.2 release

  ==> Input File <==

--------------------------------------------------------------------------
#psi4
#
memory 32 gb

molecule  {
0 1
  C        0.0000070    -0.5370720     0.0000000
  O        0.0000118     0.6810525    -0.0851796
  H       -0.0000460    -1.1248930     0.9345370
  H       -0.0000460    -1.1248930    -0.9345370
units angstrom
no_reorient  #important for SAPT in psi4, default
symmetry c1  #important for SAPT in psi4, default
}

set PROPERTIES_ORIGIN ["COM"]
properties('MP2/aug-cc-pvtz', properties = ['dipole'])
--------------------------------------------------------------------------

    Molecular point group: c1
  Charge       = 0
  Multiplicity = 1
  Basis Set: AUG-CC-PVTZ
    Blend: AUG-CC-PVTZ
  Basis Set: (AUG-CC-PVTZ AUX)
    Blend: AUG-CC-PVTZ-JKFIT

    Orbital Energies [Eh]
    ---------------------

    Doubly Occupied:

       1A    -20.580497     2A    -11.346531     3A     -1.397452
       4A     -0.873946     5A     -0.691081     6A     -0.649081
       7A     -0.531384     8A     -0.445112

  @DF-RHF Final Energy:  -113.91086035231119

   => Energetics <=

    Nuclear Repulsion Energy =             30.9987133243901418
    One-Electron Energy =                -216.7889784414519454
    Two-Electron Energy =                  71.8794047647506176
    Total Energy =                       -113.9108603523111896
  Basis Set: (AUG-CC-PVTZ AUX)
    Blend: AUG-CC-PVTZ-RI
    Molecular point group: c1

    Geometry (in Angstrom), charge = 0, multiplicity = 1:

       Center              X                  Y                   Z               Mass
    ------------   -----------------  -----------------  -----------------  -----------------
         C            0.000001001443    -0.609750470530     0.045398693549    12.000000000000
         O            0.000005801443     0.608374029470    -0.039780906451    15.994914619570
         H           -0.000051998557    -1.197571470530     0.979935693549     1.007825032230
         H           -0.000051998557    -1.197571470530    -0.889138306451     1.007825032230

  Basis Set: AUG-CC-PVTZ
    Blend: AUG-CC-PVTZ
  Basis Set: (AUG-CC-PVTZ AUX)
    Blend: AUG-CC-PVTZ-JKFIT
	 Reference Energy          =    -113.9108603523111896 [Eh]
	 Singles Energy            =      -0.0000000000000000 [Eh]
	 Same-Spin Energy          =      -0.1019965149661250 [Eh]
	 Opposite-Spin Energy      =      -0.3341744737538438 [Eh]
	 Correlation Energy        =      -0.4361709887199688 [Eh]
	 Total Energy              =    -114.3470313410311547 [Eh]

	 ================> DF-SCS-MP2 Energies <==================
	-----------------------------------------------------------
	 SCS Same-Spin Scale       =       0.3333333333333333 [-]
	 SCS Opposite-Spin Scale   =       1.2000000000000000 [-]
	 SCS Same-Spin Energy      =      -0.0339988383220417 [Eh]
	 SCS Opposite-Spin Energy  =      -0.4010093685046126 [Eh]
	 SCS Correlation Energy    =      -0.4350082068266542 [Eh]
	 SCS Total Energy          =    -114.3458685591378412 [Eh]
	-----------------------------------------------------------

  Dipole Moment: [D]
     X:    -0.0001      Y:    -2.4187      Z:     0.1769     Total:     2.4251

*** Psi4 exiting successfully. Buy a developer a beer!
