                               Psi4 1.4a3.dev225

  ==> Input File <==

--------------------------------------------------------------------------
#psi4
#
memory 32 gb

molecule  {
0 1
  C        0.0000000    -0.5370380     0.0000000
  O        0.0000000     0.6340550     0.0000000
  H        0.0000000    -1.1251080     0.9344850
  H        0.0000000    -1.1251080    -0.9344850
units angstrom
no_reorient  #important for SAPT in psi4, default
symmetry c1  #important for SAPT in psi4, default
}

set PROPERTIES_ORIGIN ["COM"]
properties('MP2/aug-cc-pvtz', properties = ['dipole'])
--------------------------------------------------------------------------

    Molecular point group: c1
  Charge       = 0
  Multiplicity = 1
  Basis Set: AUG-CC-PVTZ
    Blend: AUG-CC-PVTZ
  Basis Set: (AUG-CC-PVTZ AUX)
    Blend: AUG-CC-PVTZ-JKFIT

    Orbital Energies [Eh]
    ---------------------

    Doubly Occupied:

       1A    -20.576825     2A    -11.335733     3A     -1.430285
       4A     -0.864843     5A     -0.701551     6A     -0.662238
       7A     -0.552816     8A     -0.438236

  @DF-RHF Final Energy:  -113.91503657526978

   => Energetics <=

    Nuclear Repulsion Energy =             31.9744920477161081
    One-Electron Energy =                -218.6540036171240615
    Two-Electron Energy =                  72.7644749941381832
    Total Energy =                       -113.9150365752697809
  Basis Set: (AUG-CC-PVTZ AUX)
    Blend: AUG-CC-PVTZ-RI
    Molecular point group: c1

    Geometry (in Angstrom), charge = 0, multiplicity = 1:

       Center              X                  Y                   Z               Mass
    ------------   -----------------  -----------------  -----------------  -----------------
         C            0.000000000000    -0.584667079674    -0.000000000000    12.000000000000
         O            0.000000000000     0.586425920326    -0.000000000000    15.994914619570
         H            0.000000000000    -1.172737079674     0.934485000000     1.007825032230
         H            0.000000000000    -1.172737079674    -0.934485000000     1.007825032230

  Basis Set: AUG-CC-PVTZ
    Blend: AUG-CC-PVTZ
  Basis Set: (AUG-CC-PVTZ AUX)
    Blend: AUG-CC-PVTZ-JKFIT
	 Reference Energy          =    -113.9150365752697809 [Eh]
	 Singles Energy            =      -0.0000000000000000 [Eh]
	 Same-Spin Energy          =      -0.1006165297676630 [Eh]
	 Opposite-Spin Energy      =      -0.3303649526461371 [Eh]
	 Correlation Energy        =      -0.4309814824138001 [Eh]
	 Total Energy              =    -114.3460180576835796 [Eh]

	 ================> DF-SCS-MP2 Energies <==================
	-----------------------------------------------------------
	 SCS Same-Spin Scale       =       0.3333333333333333 [-]
	 SCS Opposite-Spin Scale   =       1.2000000000000000 [-]
	 SCS Same-Spin Energy      =      -0.0335388432558877 [Eh]
	 SCS Opposite-Spin Energy  =      -0.3964379431753645 [Eh]
	 SCS Correlation Energy    =      -0.4299767864312521 [Eh]
	 SCS Total Energy          =    -114.3450133617010351 [Eh]
	-----------------------------------------------------------

  Dipole Moment: [D]
     X:    -0.0000      Y:    -2.2309      Z:     0.0000     Total:     2.2309

*** Psi4 exiting successfully. Buy a developer a beer!
