                               Psi4 1.3.2 release

  ==> Input File <==

--------------------------------------------------------------------------
#psi4
#
memory 32 gb

molecule  {
0 1
  C        0.0000070    -0.5370720     0.0000000
  O        0.0000070     0.6840270     0.0000000
  H       -0.0000508    -1.1781360     1.0191844
  H       -0.0000460    -1.1248930    -0.9345370
units angstrom
no_reorient  #important for SAPT in psi4, default
symmetry c1  #important for SAPT in psi4, default
}

set PROPERTIES_ORIGIN ["COM"]
properties('MP2/aug-cc-pvtz', properties = ['dipole'])
--------------------------------------------------------------------------

    Molecular point group: c1
  Charge       = 0
  Multiplicity = 1
  Basis Set: AUG-CC-PVTZ
    Blend: AUG-CC-PVTZ
  Basis Set: (AUG-CC-PVTZ AUX)
    Blend: AUG-CC-PVTZ-JKFIT

    Orbital Energies [Eh]
    ---------------------

    Doubly Occupied:

       1A    -20.583555     2A    -11.357963     3A     -1.399539
       4A     -0.860726     5A     -0.679909     6A     -0.647235
       7A     -0.533845     8A     -0.441377

  @DF-RHF Final Energy:  -113.90506470128810

   => Energetics <=

    Nuclear Repulsion Energy =             30.6584511007743714
    One-Electron Energy =                -216.1187310890340996
    Two-Electron Energy =                  71.5552152869716451
    Total Energy =                       -113.9050647012880972
  Basis Set: (AUG-CC-PVTZ AUX)
    Blend: AUG-CC-PVTZ-RI
    Molecular point group: c1

    Geometry (in Angstrom), charge = 0, multiplicity = 1:

       Center              X                  Y                   Z               Mass
    ------------   -----------------  -----------------  -----------------  -----------------
         C            0.000003720923    -0.609547783419    -0.002842657895    12.000000000000
         O            0.000003720923     0.611551216581    -0.002842657895    15.994914619570
         H           -0.000054079077    -1.250611783419     1.016341742105     1.007825032230
         H           -0.000049279077    -1.197368783419    -0.937379657895     1.007825032230

  Basis Set: AUG-CC-PVTZ
    Blend: AUG-CC-PVTZ
  Basis Set: (AUG-CC-PVTZ AUX)
    Blend: AUG-CC-PVTZ-JKFIT
	 Reference Energy          =    -113.9050647012880972 [Eh]
	 Singles Energy            =      -0.0000000000000000 [Eh]
	 Same-Spin Energy          =      -0.1022912263128746 [Eh]
	 Opposite-Spin Energy      =      -0.3350091462111091 [Eh]
	 Correlation Energy        =      -0.4373003725239837 [Eh]
	 Total Energy              =    -114.3423650738120756 [Eh]

	 ================> DF-SCS-MP2 Energies <==================
	-----------------------------------------------------------
	 SCS Same-Spin Scale       =       0.3333333333333333 [-]
	 SCS Opposite-Spin Scale   =       1.2000000000000000 [-]
	 SCS Same-Spin Energy      =      -0.0340970754376249 [Eh]
	 SCS Opposite-Spin Energy  =      -0.4020109754533309 [Eh]
	 SCS Correlation Energy    =      -0.4361080508909558 [Eh]
	 SCS Total Energy          =    -114.3411727521790482 [Eh]
	-----------------------------------------------------------

  Dipole Moment: [D]
     X:    -0.0001      Y:    -2.3420      Z:    -0.0958     Total:     2.3439

*** Psi4 exiting successfully. Buy a developer a beer!
