                               Psi4 1.4a3.dev225

  ==> Input File <==

--------------------------------------------------------------------------
#psi4
#
memory 32 gb

molecule  {
0 1
  C        0.0000000    -0.5370380     0.0000000
  O        0.0000000     0.6640550     0.0000000
  H        0.0000000    -1.1251080     0.9344850
  H        0.0000000    -1.1251080    -0.9344850
units angstrom
no_reorient  #important for SAPT in psi4, default
symmetry c1  #important for SAPT in psi4, default
}

set PROPERTIES_ORIGIN ["COM"]
properties('MP2/aug-cc-pvtz', properties = ['dipole'])
--------------------------------------------------------------------------

    Molecular point group: c1
  Charge       = 0
  Multiplicity = 1
  Basis Set: AUG-CC-PVTZ
    Blend: AUG-CC-PVTZ
  Basis Set: (AUG-CC-PVTZ AUX)
    Blend: AUG-CC-PVTZ-JKFIT

    Orbital Energies [Eh]
    ---------------------

    Doubly Occupied:

       1A    -20.579076     2A    -11.342241     3A     -1.410192
       4A     -0.870356     5A     -0.694791     6A     -0.654483
       7A     -0.539657     8A     -0.442845

  @DF-RHF Final Energy:  -113.91410713073228

   => Energetics <=

    Nuclear Repulsion Energy =             31.3768529292029399
    One-Electron Energy =                -217.5146414145339122
    Two-Electron Energy =                  72.2236813545987104
    Total Energy =                       -113.9141071307322761
  Basis Set: (AUG-CC-PVTZ AUX)
    Blend: AUG-CC-PVTZ-RI
    Molecular point group: c1

    Geometry (in Angstrom), charge = 0, multiplicity = 1:

       Center              X                  Y                   Z               Mass
    ------------   -----------------  -----------------  -----------------  -----------------
         C            0.000000000000    -0.600656363569    -0.000000000000    12.000000000000
         O            0.000000000000     0.600436636431    -0.000000000000    15.994914619570
         H            0.000000000000    -1.188726363569     0.934485000000     1.007825032230
         H            0.000000000000    -1.188726363569    -0.934485000000     1.007825032230

  Basis Set: AUG-CC-PVTZ
    Blend: AUG-CC-PVTZ
  Basis Set: (AUG-CC-PVTZ AUX)
    Blend: AUG-CC-PVTZ-JKFIT
	 Reference Energy          =    -113.9141071307322761 [Eh]
	 Singles Energy            =      -0.0000000000000000 [Eh]
	 Same-Spin Energy          =      -0.1014161286690901 [Eh]
	 Opposite-Spin Energy      =      -0.3325846422501826 [Eh]
	 Correlation Energy        =      -0.4340007709192727 [Eh]
	 Total Energy              =    -114.3481079016515451 [Eh]

	 ================> DF-SCS-MP2 Energies <==================
	-----------------------------------------------------------
	 SCS Same-Spin Scale       =       0.3333333333333333 [-]
	 SCS Opposite-Spin Scale   =       1.2000000000000000 [-]
	 SCS Same-Spin Energy      =      -0.0338053762230300 [Eh]
	 SCS Opposite-Spin Energy  =      -0.3991015707002192 [Eh]
	 SCS Correlation Energy    =      -0.4329069469232492 [Eh]
	 SCS Total Energy          =    -114.3470140776555297 [Eh]
	-----------------------------------------------------------

  Dipole Moment: [D]
     X:     0.0000      Y:    -2.3516      Z:    -0.0000     Total:     2.3516

*** Psi4 exiting successfully. Buy a developer a beer!
