                               Psi4 1.3.2 release

  ==> Input File <==

--------------------------------------------------------------------------
#psi4
#
memory 32 gb

molecule  {
0 1
  C        0.0000070    -0.5370720     0.0000000
  O        0.0000070     0.6840270     0.0000000
  H       -0.0000445    -1.1084936     0.9446536
  H       -0.0000460    -1.1248930    -0.9345370
units angstrom
no_reorient  #important for SAPT in psi4, default
symmetry c1  #important for SAPT in psi4, default
}

set PROPERTIES_ORIGIN ["COM"]
properties('MP2/aug-cc-pvtz', properties = ['dipole'])
--------------------------------------------------------------------------

    Molecular point group: c1
  Charge       = 0
  Multiplicity = 1
  Basis Set: AUG-CC-PVTZ
    Blend: AUG-CC-PVTZ
  Basis Set: (AUG-CC-PVTZ AUX)
    Blend: AUG-CC-PVTZ-JKFIT

    Orbital Energies [Eh]
    ---------------------

    Doubly Occupied:

       1A    -20.580052     2A    -11.346211     3A     -1.397218
       4A     -0.873108     5A     -0.692021     6A     -0.648377
       7A     -0.531077     8A     -0.445679

  @DF-RHF Final Energy:  -113.91188473493354

   => Energetics <=

    Nuclear Repulsion Energy =             31.0032337287991773
    One-Electron Energy =                -216.8027520319845394
    Two-Electron Energy =                  71.8876335682518146
    Total Energy =                       -113.9118847349335368
  Basis Set: (AUG-CC-PVTZ AUX)
    Blend: AUG-CC-PVTZ-RI
    Molecular point group: c1

    Geometry (in Angstrom), charge = 0, multiplicity = 1:

       Center              X                  Y                   Z               Mass
    ------------   -----------------  -----------------  -----------------  -----------------
         C            0.000003509355    -0.611886538280    -0.000339739116    12.000000000000
         O            0.000003509355     0.609212461720    -0.000339739116    15.994914619570
         H           -0.000047990645    -1.183308138280     0.944313860884     1.007825032230
         H           -0.000049490645    -1.199707538280    -0.934876739116     1.007825032230

  Basis Set: AUG-CC-PVTZ
    Blend: AUG-CC-PVTZ
  Basis Set: (AUG-CC-PVTZ AUX)
    Blend: AUG-CC-PVTZ-JKFIT
	 Reference Energy          =    -113.9118847349335368 [Eh]
	 Singles Energy            =      -0.0000000000000000 [Eh]
	 Same-Spin Energy          =      -0.1019648265155584 [Eh]
	 Opposite-Spin Energy      =      -0.3340872129709191 [Eh]
	 Correlation Energy        =      -0.4360520394864776 [Eh]
	 Total Energy              =    -114.3479367744200204 [Eh]

	 ================> DF-SCS-MP2 Energies <==================
	-----------------------------------------------------------
	 SCS Same-Spin Scale       =       0.3333333333333333 [-]
	 SCS Opposite-Spin Scale   =       1.2000000000000000 [-]
	 SCS Same-Spin Energy      =      -0.0339882755051861 [Eh]
	 SCS Opposite-Spin Energy  =      -0.4009046555651030 [Eh]
	 SCS Correlation Energy    =      -0.4348929310702891 [Eh]
	 SCS Total Energy          =    -114.3467776660038311 [Eh]
	-----------------------------------------------------------

  Dipole Moment: [D]
     X:    -0.0000      Y:    -2.4237      Z:    -0.0010     Total:     2.4237

*** Psi4 exiting successfully. Buy a developer a beer!
