                               Psi4 1.3.2 release

  ==> Input File <==

--------------------------------------------------------------------------
#psi4
#
memory 32 gb

molecule  {
0 1
  C        0.0000070    -0.5370720     0.0000000
  O        0.0000082     0.6838410    -0.0213111
  H       -0.0000460    -1.1248930     0.9345370
  H       -0.0000460    -1.1248930    -0.9345370
units angstrom
no_reorient  #important for SAPT in psi4, default
symmetry c1  #important for SAPT in psi4, default
}

set PROPERTIES_ORIGIN ["COM"]
properties('MP2/aug-cc-pvtz', properties = ['dipole'])
--------------------------------------------------------------------------

    Molecular point group: c1
  Charge       = 0
  Multiplicity = 1
  Basis Set: AUG-CC-PVTZ
    Blend: AUG-CC-PVTZ
  Basis Set: (AUG-CC-PVTZ AUX)
    Blend: AUG-CC-PVTZ-JKFIT

    Orbital Energies [Eh]
    ---------------------

    Doubly Occupied:

       1A    -20.580521     2A    -11.346520     3A     -1.397350
       4A     -0.873987     5A     -0.690865     6A     -0.649261
       7A     -0.531347     8A     -0.445629

  @DF-RHF Final Energy:  -113.91176759431247

   => Energetics <=

    Nuclear Repulsion Energy =             30.9949057595596038
    One-Electron Energy =                -216.7823854096705816
    Two-Electron Energy =                  71.8757120557985161
    Total Energy =                       -113.9117675943124652
  Basis Set: (AUG-CC-PVTZ AUX)
    Blend: AUG-CC-PVTZ-RI
    Molecular point group: c1

    Geometry (in Angstrom), charge = 0, multiplicity = 1:

       Center              X                  Y                   Z               Mass
    ------------   -----------------  -----------------  -----------------  -----------------
         C            0.000002920157    -0.611236674468     0.011358307601    12.000000000000
         O            0.000004120157     0.609676325532    -0.009952792399    15.994914619570
         H           -0.000050079843    -1.199057674468     0.945895307601     1.007825032230
         H           -0.000050079843    -1.199057674468    -0.923178692399     1.007825032230

  Basis Set: AUG-CC-PVTZ
    Blend: AUG-CC-PVTZ
  Basis Set: (AUG-CC-PVTZ AUX)
    Blend: AUG-CC-PVTZ-JKFIT
	 Reference Energy          =    -113.9117675943124652 [Eh]
	 Singles Energy            =      -0.0000000000000000 [Eh]
	 Same-Spin Energy          =      -0.1019731177139008 [Eh]
	 Opposite-Spin Energy      =      -0.3341189958302900 [Eh]
	 Correlation Energy        =      -0.4360921135441909 [Eh]
	 Total Energy              =    -114.3478597078566565 [Eh]

	 ================> DF-SCS-MP2 Energies <==================
	-----------------------------------------------------------
	 SCS Same-Spin Scale       =       0.3333333333333333 [-]
	 SCS Opposite-Spin Scale   =       1.2000000000000000 [-]
	 SCS Same-Spin Energy      =      -0.0339910392379669 [Eh]
	 SCS Opposite-Spin Energy  =      -0.4009427949963481 [Eh]
	 SCS Correlation Energy    =      -0.4349338342343150 [Eh]
	 SCS Total Energy          =    -114.3467014285467798 [Eh]
	-----------------------------------------------------------

  Dipole Moment: [D]
     X:    -0.0001      Y:    -2.4252      Z:     0.0443     Total:     2.4256

*** Psi4 exiting successfully. Buy a developer a beer!
