                               Psi4 1.3.2 release

  ==> Input File <==

--------------------------------------------------------------------------
#psi4
#
memory 32 gb

molecule  {
0 1
  C        0.0000070    -0.5370720     0.0000000
  O        0.0000070     0.6840270     0.0000000
  H       -0.0000364    -1.0184070     0.7652422
  H       -0.0000460    -1.1248930    -0.9345370
units angstrom
no_reorient  #important for SAPT in psi4, default
symmetry c1  #important for SAPT in psi4, default
}

set PROPERTIES_ORIGIN ["COM"]
properties('MP2/aug-cc-pvtz', properties = ['dipole'])
--------------------------------------------------------------------------

    Molecular point group: c1
  Charge       = 0
  Multiplicity = 1
  Basis Set: AUG-CC-PVTZ
    Blend: AUG-CC-PVTZ
  Basis Set: (AUG-CC-PVTZ AUX)
    Blend: AUG-CC-PVTZ-JKFIT

    Orbital Energies [Eh]
    ---------------------

    Doubly Occupied:

       1A    -20.577168     2A    -11.322636     3A     -1.395478
       4A     -0.920920     5A     -0.714208     6A     -0.650194
       7A     -0.528344     8A     -0.452345

  @DF-RHF Final Energy:  -113.88059834294590

   => Energetics <=

    Nuclear Repulsion Energy =             31.8473406048470196
    One-Electron Energy =                -218.3332930890400405
    Two-Electron Energy =                  72.6053541412471333
    Total Energy =                       -113.8805983429459019
  Basis Set: (AUG-CC-PVTZ AUX)
    Blend: AUG-CC-PVTZ-RI
    Molecular point group: c1

    Geometry (in Angstrom), charge = 0, multiplicity = 1:

       Center              X                  Y                   Z               Mass
    ------------   -----------------  -----------------  -----------------  -----------------
         C            0.000003237338    -0.614911857247     0.005685315790    12.000000000000
         O            0.000003237338     0.606187142753     0.005685315790    15.994914619570
         H           -0.000040162662    -1.096246857247     0.770927515790     1.007825032230
         H           -0.000049762662    -1.202732857247    -0.928851684210     1.007825032230

  Basis Set: AUG-CC-PVTZ
    Blend: AUG-CC-PVTZ
  Basis Set: (AUG-CC-PVTZ AUX)
    Blend: AUG-CC-PVTZ-JKFIT
	 Reference Energy          =    -113.8805983429459019 [Eh]
	 Singles Energy            =      -0.0000000000000000 [Eh]
	 Same-Spin Energy          =      -0.1017336370225329 [Eh]
	 Opposite-Spin Energy      =      -0.3337715980614915 [Eh]
	 Correlation Energy        =      -0.4355052350840243 [Eh]
	 Total Energy              =    -114.3161035780299244 [Eh]

	 ================> DF-SCS-MP2 Energies <==================
	-----------------------------------------------------------
	 SCS Same-Spin Scale       =       0.3333333333333333 [-]
	 SCS Opposite-Spin Scale   =       1.2000000000000000 [-]
	 SCS Same-Spin Energy      =      -0.0339112123408443 [Eh]
	 SCS Opposite-Spin Energy  =      -0.4005259176737898 [Eh]
	 SCS Correlation Energy    =      -0.4344371300146340 [Eh]
	 SCS Total Energy          =    -114.3150354729605311 [Eh]
	-----------------------------------------------------------

  Dipole Moment: [D]
     X:    -0.0000      Y:    -2.5230      Z:     0.1102     Total:     2.5254

*** Psi4 exiting successfully. Buy a developer a beer!
