                               Psi4 1.3.2 release

  ==> Input File <==

--------------------------------------------------------------------------
#psi4
#
memory 32 gb

molecule  {
0 1
  C        0.0000070    -0.5370720     0.0000000
  O        0.0000070     0.6840270     0.0000000
  H       -0.0000475    -1.1411134     0.9241358
  H       -0.0000460    -1.1248930    -0.9345370
units angstrom
no_reorient  #important for SAPT in psi4, default
symmetry c1  #important for SAPT in psi4, default
}

set PROPERTIES_ORIGIN ["COM"]
properties('MP2/aug-cc-pvtz', properties = ['dipole'])
--------------------------------------------------------------------------

    Molecular point group: c1
  Charge       = 0
  Multiplicity = 1
  Basis Set: AUG-CC-PVTZ
    Blend: AUG-CC-PVTZ
  Basis Set: (AUG-CC-PVTZ AUX)
    Blend: AUG-CC-PVTZ-JKFIT

    Orbital Energies [Eh]
    ---------------------

    Doubly Occupied:

       1A    -20.580994     2A    -11.346829     3A     -1.397477
       4A     -0.874879     5A     -0.689682     6A     -0.650159
       7A     -0.531615     8A     -0.445609

  @DF-RHF Final Energy:  -113.91167786328998

   => Energetics <=

    Nuclear Repulsion Energy =             30.9863616398330919
    One-Electron Energy =                -216.7615935190579535
    Two-Electron Energy =                  71.8635540159348807
    Total Energy =                       -113.9116778632899809
  Basis Set: (AUG-CC-PVTZ AUX)
    Blend: AUG-CC-PVTZ-RI
    Molecular point group: c1

    Geometry (in Angstrom), charge = 0, multiplicity = 1:

       Center              X                  Y                   Z               Mass
    ------------   -----------------  -----------------  -----------------  -----------------
         C            0.000003610102    -0.610791089016     0.000349296651    12.000000000000
         O            0.000003610102     0.610307910984     0.000349296651    15.994914619570
         H           -0.000050889898    -1.214832489016     0.924485096651     1.007825032230
         H           -0.000049389898    -1.198612089016    -0.934187703349     1.007825032230

  Basis Set: AUG-CC-PVTZ
    Blend: AUG-CC-PVTZ
  Basis Set: (AUG-CC-PVTZ AUX)
    Blend: AUG-CC-PVTZ-JKFIT
	 Reference Energy          =    -113.9116778632899809 [Eh]
	 Singles Energy            =      -0.0000000000000000 [Eh]
	 Same-Spin Energy          =      -0.1019807124084101 [Eh]
	 Opposite-Spin Energy      =      -0.3341484783345907 [Eh]
	 Correlation Energy        =      -0.4361291907430008 [Eh]
	 Total Energy              =    -114.3478070540329838 [Eh]

	 ================> DF-SCS-MP2 Energies <==================
	-----------------------------------------------------------
	 SCS Same-Spin Scale       =       0.3333333333333333 [-]
	 SCS Opposite-Spin Scale   =       1.2000000000000000 [-]
	 SCS Same-Spin Energy      =      -0.0339935708028034 [Eh]
	 SCS Opposite-Spin Energy  =      -0.4009781740015089 [Eh]
	 SCS Correlation Energy    =      -0.4349717448043122 [Eh]
	 SCS Total Energy          =    -114.3466496080942960 [Eh]
	-----------------------------------------------------------

  Dipole Moment: [D]
     X:    -0.0001      Y:    -2.4274      Z:     0.0009     Total:     2.4274

*** Psi4 exiting successfully. Buy a developer a beer!
