                               Psi4 1.4a3.dev225

  ==> Input File <==

--------------------------------------------------------------------------
#psi4
#
memory 32 gb

molecule  {
0 1
  C        0.0000000    -0.5370380     0.0000000
  O        0.0000000     0.6840550     0.0000000
  H        0.0000000    -1.1357603     0.9514122
  H        0.0000000    -1.1251080    -0.9344850
units angstrom
no_reorient  #important for SAPT in psi4, default
symmetry c1  #important for SAPT in psi4, default
}

set PROPERTIES_ORIGIN ["COM"]
properties('MP2/aug-cc-pvtz', properties = ['dipole'])
--------------------------------------------------------------------------

    Molecular point group: c1
  Charge       = 0
  Multiplicity = 1
  Basis Set: AUG-CC-PVTZ
    Blend: AUG-CC-PVTZ
  Basis Set: (AUG-CC-PVTZ AUX)
    Blend: AUG-CC-PVTZ-JKFIT

    Orbital Energies [Eh]
    ---------------------

    Doubly Occupied:

       1A    -20.581074     2A    -11.348888     3A     -1.397729
       4A     -0.870841     5A     -0.688418     6A     -0.649062
       7A     -0.531804     8A     -0.444863

  @DF-RHF Final Energy:  -113.91121312462727

   => Energetics <=

    Nuclear Repulsion Energy =             30.9227356630071277
    One-Electron Energy =                -216.6425385498133096
    Two-Electron Energy =                  71.8085897621789115
    Total Energy =                       -113.9112131246272668
  Basis Set: (AUG-CC-PVTZ AUX)
    Blend: AUG-CC-PVTZ-RI
    Molecular point group: c1

    Geometry (in Angstrom), charge = 0, multiplicity = 1:

       Center              X                  Y                   Z               Mass
    ------------   -----------------  -----------------  -----------------  -----------------
         C            0.000000000000    -0.610958156989    -0.000568455011    12.000000000000
         O            0.000000000000     0.610134843011    -0.000568455011    15.994914619570
         H            0.000000000000    -1.209680456989     0.950843744989     1.007825032230
         H            0.000000000000    -1.199028156989    -0.935053455011     1.007825032230

  Basis Set: AUG-CC-PVTZ
    Blend: AUG-CC-PVTZ
  Basis Set: (AUG-CC-PVTZ AUX)
    Blend: AUG-CC-PVTZ-JKFIT
	 Reference Energy          =    -113.9112131246272668 [Eh]
	 Singles Energy            =      -0.0000000000000000 [Eh]
	 Same-Spin Energy          =      -0.1020271108894799 [Eh]
	 Opposite-Spin Energy      =      -0.3342594748217753 [Eh]
	 Correlation Energy        =      -0.4362865857112552 [Eh]
	 Total Energy              =    -114.3474997103385249 [Eh]

	 ================> DF-SCS-MP2 Energies <==================
	-----------------------------------------------------------
	 SCS Same-Spin Scale       =       0.3333333333333333 [-]
	 SCS Opposite-Spin Scale   =       1.2000000000000000 [-]
	 SCS Same-Spin Energy      =      -0.0340090369631600 [Eh]
	 SCS Opposite-Spin Energy  =      -0.4011113697861304 [Eh]
	 SCS Correlation Energy    =      -0.4351204067492904 [Eh]
	 SCS Total Energy          =    -114.3463335313765583 [Eh]
	-----------------------------------------------------------

  Dipole Moment: [D]
     X:     0.0000      Y:    -2.4107      Z:    -0.0170     Total:     2.4108

*** Psi4 exiting successfully. Buy a developer a beer!
