                               Psi4 1.3.2 release

  ==> Input File <==

--------------------------------------------------------------------------
#psi4
#
memory 32 gb

molecule  {
0 1
  C        0.0000070    -0.5370720     0.0000000
  O        0.0000070     0.8840270     0.0000000
  H       -0.0000460    -1.1248930     0.9345370
  H       -0.0000460    -1.1248930    -0.9345370
units angstrom
no_reorient  #important for SAPT in psi4, default
symmetry c1  #important for SAPT in psi4, default
}

set PROPERTIES_ORIGIN ["COM"]
properties('MP2/aug-cc-pvtz', properties = ['dipole'])
--------------------------------------------------------------------------

    Molecular point group: c1
  Charge       = 0
  Multiplicity = 1
  Basis Set: AUG-CC-PVTZ
    Blend: AUG-CC-PVTZ
  Basis Set: (AUG-CC-PVTZ AUX)
    Blend: AUG-CC-PVTZ-JKFIT

    Orbital Energies [Eh]
    ---------------------

    Doubly Occupied:

       1A    -20.591347     2A    -11.386130     3A     -1.292753
       4A     -0.907647     5A     -0.669521     6A     -0.595501
       7A     -0.466201     8A     -0.462240

  @DF-RHF Final Energy:  -113.84559388438029

   => Energetics <=

    Nuclear Repulsion Energy =             27.7300865190734989
    One-Electron Energy =                -210.4086833293605139
    Two-Electron Energy =                  68.8330029259067260
    Total Energy =                       -113.8455938843802926
  Basis Set: (AUG-CC-PVTZ AUX)
    Blend: AUG-CC-PVTZ-RI
    Molecular point group: c1

    Geometry (in Angstrom), charge = 0, multiplicity = 1:

       Center              X                  Y                   Z               Mass
    ------------   -----------------  -----------------  -----------------  -----------------
         C            0.000003559728    -0.717931033996     0.000000000000    12.000000000000
         O            0.000003559728     0.703167966004     0.000000000000    15.994914619570
         H           -0.000049440272    -1.305752033996     0.934537000000     1.007825032230
         H           -0.000049440272    -1.305752033996    -0.934537000000     1.007825032230

  Basis Set: AUG-CC-PVTZ
    Blend: AUG-CC-PVTZ
  Basis Set: (AUG-CC-PVTZ AUX)
    Blend: AUG-CC-PVTZ-JKFIT
	 Reference Energy          =    -113.8455938843802926 [Eh]
	 Singles Energy            =      -0.0000000000000000 [Eh]
	 Same-Spin Energy          =      -0.1082260809639784 [Eh]
	 Opposite-Spin Energy      =      -0.3510551946142808 [Eh]
	 Correlation Energy        =      -0.4592812755782592 [Eh]
	 Total Energy              =    -114.3048751599585557 [Eh]

	 ================> DF-SCS-MP2 Energies <==================
	-----------------------------------------------------------
	 SCS Same-Spin Scale       =       0.3333333333333333 [-]
	 SCS Opposite-Spin Scale   =       1.2000000000000000 [-]
	 SCS Same-Spin Energy      =      -0.0360753603213261 [Eh]
	 SCS Opposite-Spin Energy  =      -0.4212662335371369 [Eh]
	 SCS Correlation Energy    =      -0.4573415938584631 [Eh]
	 SCS Total Energy          =    -114.3029354782387514 [Eh]
	-----------------------------------------------------------

  Dipole Moment: [D]
     X:    -0.0001      Y:    -2.8391      Z:     0.0000     Total:     2.8391

*** Psi4 exiting successfully. Buy a developer a beer!
