                               Psi4 1.3.2 release

  ==> Input File <==

--------------------------------------------------------------------------
#psi4
#
memory 32 gb

molecule  {
0 1
  C        0.0000070    -0.5370720     0.0000000
  O        0.0000070     0.6840270     0.0000000
  H       -0.0000400    -1.0582711     0.9732648
  H       -0.0000460    -1.1248930    -0.9345370
units angstrom
no_reorient  #important for SAPT in psi4, default
symmetry c1  #important for SAPT in psi4, default
}

set PROPERTIES_ORIGIN ["COM"]
properties('MP2/aug-cc-pvtz', properties = ['dipole'])
--------------------------------------------------------------------------

    Molecular point group: c1
  Charge       = 0
  Multiplicity = 1
  Basis Set: AUG-CC-PVTZ
    Blend: AUG-CC-PVTZ
  Basis Set: (AUG-CC-PVTZ AUX)
    Blend: AUG-CC-PVTZ-JKFIT

    Orbital Energies [Eh]
    ---------------------

    Doubly Occupied:

       1A    -20.578636     2A    -11.345299     3A     -1.396901
       4A     -0.870501     5A     -0.695535     6A     -0.645632
       7A     -0.530303     8A     -0.445484

  @DF-RHF Final Energy:  -113.91149161993179

   => Energetics <=

    Nuclear Repulsion Energy =             31.0307796417942789
    One-Electron Energy =                -216.8679611116032504
    Two-Electron Energy =                  71.9256898498771733
    Total Energy =                       -113.9114916199317946
  Basis Set: (AUG-CC-PVTZ AUX)
    Blend: AUG-CC-PVTZ-RI
    Molecular point group: c1

    Geometry (in Angstrom), charge = 0, multiplicity = 1:

       Center              X                  Y                   Z               Mass
    ------------   -----------------  -----------------  -----------------  -----------------
         C            0.000003358234    -0.613573127427    -0.001300570206    12.000000000000
         O            0.000003358234     0.607525872573    -0.001300570206    15.994914619570
         H           -0.000043641766    -1.134772227427     0.971964229794     1.007825032230
         H           -0.000049641766    -1.201394127427    -0.935837570206     1.007825032230

  Basis Set: AUG-CC-PVTZ
    Blend: AUG-CC-PVTZ
  Basis Set: (AUG-CC-PVTZ AUX)
    Blend: AUG-CC-PVTZ-JKFIT
	 Reference Energy          =    -113.9114916199317946 [Eh]
	 Singles Energy            =      -0.0000000000000000 [Eh]
	 Same-Spin Energy          =      -0.1019596225276392 [Eh]
	 Opposite-Spin Energy      =      -0.3340334256261011 [Eh]
	 Correlation Energy        =      -0.4359930481537402 [Eh]
	 Total Energy              =    -114.3474846680855279 [Eh]

	 ================> DF-SCS-MP2 Energies <==================
	-----------------------------------------------------------
	 SCS Same-Spin Scale       =       0.3333333333333333 [-]
	 SCS Opposite-Spin Scale   =       1.2000000000000000 [-]
	 SCS Same-Spin Energy      =      -0.0339865408425464 [Eh]
	 SCS Opposite-Spin Energy  =      -0.4008401107513213 [Eh]
	 SCS Correlation Energy    =      -0.4348266515938676 [Eh]
	 SCS Total Energy          =    -114.3463182715256607 [Eh]
	-----------------------------------------------------------

  Dipole Moment: [D]
     X:    -0.0000      Y:    -2.4169      Z:    -0.0045     Total:     2.4169

*** Psi4 exiting successfully. Buy a developer a beer!
