                               Psi4 1.3.2 release

  ==> Input File <==

--------------------------------------------------------------------------
#psi4
#
memory 32 gb

molecule  {
0 1
  C        0.0000070    -0.5370720     0.0000000
  O        0.0000094     0.6832831    -0.0426157
  H       -0.0000460    -1.1248930     0.9345370
  H       -0.0000460    -1.1248930    -0.9345370
units angstrom
no_reorient  #important for SAPT in psi4, default
symmetry c1  #important for SAPT in psi4, default
}

set PROPERTIES_ORIGIN ["COM"]
properties('MP2/aug-cc-pvtz', properties = ['dipole'])
--------------------------------------------------------------------------

    Molecular point group: c1
  Charge       = 0
  Multiplicity = 1
  Basis Set: AUG-CC-PVTZ
    Blend: AUG-CC-PVTZ
  Basis Set: (AUG-CC-PVTZ AUX)
    Blend: AUG-CC-PVTZ-JKFIT

    Orbital Energies [Eh]
    ---------------------

    Doubly Occupied:

       1A    -20.580517     2A    -11.346522     3A     -1.397371
       4A     -0.873979     5A     -0.690909     6A     -0.649224
       7A     -0.531354     8A     -0.445526

  @DF-RHF Final Energy:  -113.91158625902384

   => Energetics <=

    Nuclear Repulsion Energy =             30.9956673064470785
    One-Electron Energy =                -216.7837044933592665
    Two-Electron Energy =                  71.8764509278883565
    Total Energy =                       -113.9115862590238351
  Basis Set: (AUG-CC-PVTZ AUX)
    Blend: AUG-CC-PVTZ-RI
    Molecular point group: c1

    Geometry (in Angstrom), charge = 0, multiplicity = 1:

       Center              X                  Y                   Z               Mass
    ------------   -----------------  -----------------  -----------------  -----------------
         C            0.000002280585    -0.610939327085     0.022713150856    12.000000000000
         O            0.000004680585     0.609415772915    -0.019902549144    15.994914619570
         H           -0.000050719415    -1.198760327085     0.957250150856     1.007825032230
         H           -0.000050719415    -1.198760327085    -0.911823849144     1.007825032230

  Basis Set: AUG-CC-PVTZ
    Blend: AUG-CC-PVTZ
  Basis Set: (AUG-CC-PVTZ AUX)
    Blend: AUG-CC-PVTZ-JKFIT
	 Reference Energy          =    -113.9115862590238351 [Eh]
	 Singles Energy            =      -0.0000000000000000 [Eh]
	 Same-Spin Energy          =      -0.1019777906526539 [Eh]
	 Opposite-Spin Energy      =      -0.3341301230739080 [Eh]
	 Correlation Energy        =      -0.4361079137265619 [Eh]
	 Total Energy              =    -114.3476941727503942 [Eh]

	 ================> DF-SCS-MP2 Energies <==================
	-----------------------------------------------------------
	 SCS Same-Spin Scale       =       0.3333333333333333 [-]
	 SCS Opposite-Spin Scale   =       1.2000000000000000 [-]
	 SCS Same-Spin Energy      =      -0.0339925968842180 [Eh]
	 SCS Opposite-Spin Energy  =      -0.4009561476886896 [Eh]
	 SCS Correlation Energy    =      -0.4349487445729076 [Eh]
	 SCS Total Energy          =    -114.3465350035967418 [Eh]
	-----------------------------------------------------------

  Dipole Moment: [D]
     X:    -0.0001      Y:    -2.4239      Z:     0.0885     Total:     2.4255

*** Psi4 exiting successfully. Buy a developer a beer!
