                               Psi4 1.3.2 release

  ==> Input File <==

--------------------------------------------------------------------------
#psi4
#
memory 32 gb

molecule  {
0 1
  O       -0.7670850     1.7208920    -0.4354900
  N        1.6863020     0.4747470     0.1388600
  N       -1.9291830    -0.1915810     0.0453950
  N        0.7639310    -1.5088640    -0.3477740
  C        0.5182450    -0.2160980    -0.0822800
  C       -0.7756170     0.5047820    -0.1623390
  C        2.7114570    -0.4276410     0.0208990
  C        1.8666300     1.8964630     0.4257140
  C       -3.1904980     0.5035560    -0.1598940
  C       -2.0503370    -1.5461500     0.5645390
  C        2.0355490    -1.8147249    -0.3229486
  H        3.7418240    -0.1353950     0.1686580
  H        1.1394670     2.2188990     1.1681400
  H        2.8785810     2.0278530     0.8121890
  H        1.7220340     2.4842350    -0.4794890
  H       -3.8467550    -0.1153850    -0.7799180
  H       -2.9915450     1.4520350    -0.6543500
  H       -3.6876690     0.6913720     0.7990550
  H       -1.0742680    -1.9474190     0.8155770
  H       -2.5092790    -2.1983750    -0.1864030
  H       -2.6938370    -1.5270200     1.4518100
  H        2.6051200    -2.5920870    -0.4498700
units angstrom
no_reorient  #important for SAPT in psi4, default
symmetry c1  #important for SAPT in psi4, default
}

set PROPERTIES_ORIGIN ["COM"]
properties('MP2/aug-cc-pvtz', properties = ['dipole'])
--------------------------------------------------------------------------

    Molecular point group: c1
  Charge       = 0
  Multiplicity = 1
  Basis Set: AUG-CC-PVTZ
    Blend: AUG-CC-PVTZ
  Basis Set: (AUG-CC-PVTZ AUX)
    Blend: AUG-CC-PVTZ-JKFIT

    Orbital Energies [Eh]
    ---------------------

    Doubly Occupied:

       1A    -20.511617     2A    -15.649886     3A    -15.587031
       4A    -15.565752     5A    -11.358532     6A    -11.295364
       7A    -11.287716     8A    -11.276247     9A    -11.266697
      10A    -11.252930    11A    -11.249748    12A     -1.375920
      13A     -1.338336    14A     -1.241582    15A     -1.203620
      16A     -1.016318    17A     -0.981838    18A     -0.963138
      19A     -0.934372    20A     -0.840894    21A     -0.814130
      22A     -0.739202    23A     -0.705039    24A     -0.677832
      25A     -0.658518    26A     -0.643700    27A     -0.638739
      28A     -0.638041    29A     -0.578426    30A     -0.572998
      31A     -0.569937    32A     -0.554874    33A     -0.551561
      34A     -0.550079    35A     -0.524258    36A     -0.518112
      37A     -0.436038    38A     -0.415767    39A     -0.408355
      40A     -0.369930    41A     -0.293160

  @DF-RHF Final Energy:  -509.81207142664692

   => Energetics <=

    Nuclear Repulsion Energy =            626.8582367494483378
    One-Electron Energy =               -1937.2281475877214234
    Two-Electron Energy =                 800.5578394116259915
    Total Energy =                       -509.8120714266469804
  Basis Set: (AUG-CC-PVTZ AUX)
    Blend: AUG-CC-PVTZ-RI
    Molecular point group: c1

    Geometry (in Angstrom), charge = 0, multiplicity = 1:

       Center              X                  Y                   Z               Mass
    ------------   -----------------  -----------------  -----------------  -----------------
         O           -0.790984360846     1.737054065613    -0.414816873014    15.994914619570
         N            1.662402639154     0.490909065613     0.159533126986    14.003074004430
         N           -1.953082360846    -0.175418934387     0.066068126986    14.003074004430
         N            0.740031639154    -1.492701934387    -0.327100873014    14.003074004430
         C            0.494345639154    -0.199935934387    -0.061606873014    12.000000000000
         C           -0.799516360846     0.520944065613    -0.141665873014    12.000000000000
         C            2.687557639154    -0.411478934387     0.041572126986    12.000000000000
         C            1.842730639154     1.912625065613     0.446387126986    12.000000000000
         C           -3.214397360846     0.519718065613    -0.139220873014    12.000000000000
         C           -2.074236360846    -1.529987934387     0.585212126986    12.000000000000
         C            2.011649639154    -1.798562834387    -0.302275473014    12.000000000000
         H            3.717924639154    -0.119232934387     0.189331126986     1.007825032230
         H            1.115567639154     2.235061065613     1.188813126986     1.007825032230
         H            2.854681639154     2.044015065613     0.832862126986     1.007825032230
         H            1.698134639154     2.500397065613    -0.458815873014     1.007825032230
         H           -3.870654360846    -0.099222934387    -0.759244873014     1.007825032230
         H           -3.015444360846     1.468197065613    -0.633676873014     1.007825032230
         H           -3.711568360846     0.707534065613     0.819728126986     1.007825032230
         H           -1.098167360846    -1.931256934387     0.836250126986     1.007825032230
         H           -2.533178360846    -2.182212934387    -0.165729873014     1.007825032230
         H           -2.717736360846    -1.510857934387     1.472483126986     1.007825032230
         H            2.581220639154    -2.575924934387    -0.429196873014     1.007825032230

  Basis Set: AUG-CC-PVTZ
    Blend: AUG-CC-PVTZ
  Basis Set: (AUG-CC-PVTZ AUX)
    Blend: AUG-CC-PVTZ-JKFIT
	 Reference Energy          =    -509.8120714266469236 [Eh]
	 Singles Energy            =      -0.0000000000000000 [Eh]
	 Same-Spin Energy          =      -0.5467687421647065 [Eh]
	 Opposite-Spin Energy      =      -1.7000565902738716 [Eh]
	 Correlation Energy        =      -2.2468253324385783 [Eh]
	 Total Energy              =    -512.0588967590855418 [Eh]

	 ================> DF-SCS-MP2 Energies <==================
	-----------------------------------------------------------
	 SCS Same-Spin Scale       =       0.3333333333333333 [-]
	 SCS Opposite-Spin Scale   =       1.2000000000000000 [-]
	 SCS Same-Spin Energy      =      -0.1822562473882355 [Eh]
	 SCS Opposite-Spin Energy  =      -2.0400679083286457 [Eh]
	 SCS Correlation Energy    =      -2.2223241557168811 [Eh]
	 SCS Total Energy          =    -512.0343955823637998 [Eh]
	-----------------------------------------------------------

  Dipole Moment: [D]
     X:     0.7819      Y:    -0.1965      Z:     1.6635     Total:     1.8486

*** Psi4 exiting successfully. Buy a developer a beer!
