                               Psi4 1.3.2 release

  ==> Input File <==

--------------------------------------------------------------------------
#psi4
#
memory 32 gb

molecule  {
0 1
  O       -0.7670850     1.7208920    -0.4354900
  N        1.6863020     0.4747470     0.1388600
  N       -1.8472811    -0.3067953     0.0649662
  N        0.7639310    -1.5088640    -0.3477740
  C        0.5182450    -0.2160980    -0.0822800
  C       -0.7756170     0.5047820    -0.1623390
  C        2.7114570    -0.4276410     0.0208990
  C        1.8666300     1.8964630     0.4257140
  C       -3.1904980     0.5035560    -0.1598940
  C       -2.0503370    -1.5461500     0.5645390
  C        2.1210610    -1.6392390    -0.2794470
  H        3.7418240    -0.1353950     0.1686580
  H        1.1394670     2.2188990     1.1681400
  H        2.8785810     2.0278530     0.8121890
  H        1.7220340     2.4842350    -0.4794890
  H       -3.8467550    -0.1153850    -0.7799180
  H       -2.9915450     1.4520350    -0.6543500
  H       -3.6876690     0.6913720     0.7990550
  H       -1.0742680    -1.9474190     0.8155770
  H       -2.5092790    -2.1983750    -0.1864030
  H       -2.6938370    -1.5270200     1.4518100
  H        2.6051200    -2.5920870    -0.4498700
units angstrom
no_reorient  #important for SAPT in psi4, default
symmetry c1  #important for SAPT in psi4, default
}

set PROPERTIES_ORIGIN ["COM"]
properties('MP2/aug-cc-pvtz', properties = ['dipole'])
--------------------------------------------------------------------------

    Molecular point group: c1
  Charge       = 0
  Multiplicity = 1
  Basis Set: AUG-CC-PVTZ
    Blend: AUG-CC-PVTZ
  Basis Set: (AUG-CC-PVTZ AUX)
    Blend: AUG-CC-PVTZ-JKFIT

    Orbital Energies [Eh]
    ---------------------

    Doubly Occupied:

       1A    -20.524293     2A    -15.630483     3A    -15.595607
       4A    -15.558925     5A    -11.367824     6A    -11.300073
       7A    -11.271266     8A    -11.266820     9A    -11.263443
      10A    -11.249294    11A    -11.248382    12A     -1.381222
      13A     -1.339788    14A     -1.257139    15A     -1.186404
      16A     -1.029621    17A     -0.979407    18A     -0.968673
      19A     -0.939599    20A     -0.828792    21A     -0.808611
      22A     -0.741400    23A     -0.709873    24A     -0.665007
      25A     -0.657849    26A     -0.646124    27A     -0.639809
      28A     -0.604219    29A     -0.590937    30A     -0.589746
      31A     -0.562661    32A     -0.557683    33A     -0.554750
      34A     -0.547346    35A     -0.526419    36A     -0.509906
      37A     -0.450399    38A     -0.424731    39A     -0.389348
      40A     -0.376378    41A     -0.317956

  @DF-RHF Final Energy:  -509.83544550617358

   => Energetics <=

    Nuclear Repulsion Energy =            629.5777619119145356
    One-Electron Energy =               -1942.7099998465860153
    Two-Electron Energy =                 803.2967924284980654
    Total Energy =                       -509.8354455061735280
  Basis Set: (AUG-CC-PVTZ AUX)
    Blend: AUG-CC-PVTZ-RI
    Molecular point group: c1

    Geometry (in Angstrom), charge = 0, multiplicity = 1:

       Center              X                  Y                   Z               Mass
    ------------   -----------------  -----------------  -----------------  -----------------
         O           -0.805178752105     1.733837162165    -0.420016919128    15.994914619570
         N            1.648208247895     0.487692162165     0.154333080872    14.003074004430
         N           -1.885374852105    -0.293850137835     0.080439280872    14.003074004430
         N            0.725837247895    -1.495918837835    -0.332300919128    14.003074004430
         C            0.480151247895    -0.203152837835    -0.066806919128    12.000000000000
         C           -0.813710752105     0.517727162165    -0.146865919128    12.000000000000
         C            2.673363247895    -0.414695837835     0.036372080872    12.000000000000
         C            1.828536247895     1.909408162165     0.441187080872    12.000000000000
         C           -3.228591752105     0.516501162165    -0.144420919128    12.000000000000
         C           -2.088430752105    -1.533204837835     0.580012080872    12.000000000000
         C            2.082967247895    -1.626293837835    -0.263973919128    12.000000000000
         H            3.703730247895    -0.122449837835     0.184131080872     1.007825032230
         H            1.101373247895     2.231844162165     1.183613080872     1.007825032230
         H            2.840487247895     2.040798162165     0.827662080872     1.007825032230
         H            1.683940247895     2.497180162165    -0.464015919128     1.007825032230
         H           -3.884848752105    -0.102439837835    -0.764444919128     1.007825032230
         H           -3.029638752105     1.464980162165    -0.638876919128     1.007825032230
         H           -3.725762752105     0.704317162165     0.814528080872     1.007825032230
         H           -1.112361752105    -1.934473837835     0.831050080872     1.007825032230
         H           -2.547372752105    -2.185429837835    -0.170929919128     1.007825032230
         H           -2.731930752105    -1.514074837835     1.467283080872     1.007825032230
         H            2.567026247895    -2.579141837835    -0.434396919128     1.007825032230

  Basis Set: AUG-CC-PVTZ
    Blend: AUG-CC-PVTZ
  Basis Set: (AUG-CC-PVTZ AUX)
    Blend: AUG-CC-PVTZ-JKFIT
	 Reference Energy          =    -509.8354455061735848 [Eh]
	 Singles Energy            =      -0.0000000000000000 [Eh]
	 Same-Spin Energy          =      -0.5453666491936520 [Eh]
	 Opposite-Spin Energy      =      -1.6984449394984096 [Eh]
	 Correlation Energy        =      -2.2438115886920613 [Eh]
	 Total Energy              =    -512.0792570948656248 [Eh]

	 ================> DF-SCS-MP2 Energies <==================
	-----------------------------------------------------------
	 SCS Same-Spin Scale       =       0.3333333333333333 [-]
	 SCS Opposite-Spin Scale   =       1.2000000000000000 [-]
	 SCS Same-Spin Energy      =      -0.1817888830645507 [Eh]
	 SCS Opposite-Spin Energy  =      -2.0381339273980914 [Eh]
	 SCS Correlation Energy    =      -2.2199228104626423 [Eh]
	 SCS Total Energy          =    -512.0553683166361907 [Eh]
	-----------------------------------------------------------

  Dipole Moment: [D]
     X:     0.5000      Y:     0.2485      Z:     1.6758     Total:     1.7664

*** Psi4 exiting successfully. Buy a developer a beer!
