                               Psi4 1.3.2 release

  ==> Input File <==

--------------------------------------------------------------------------
#psi4
#
memory 32 gb

molecule  {
0 1
  O       -0.7670850     1.7208920    -0.4354900
  N        1.6738078     0.4952224     0.1395864
  N       -1.9291830    -0.1915810     0.0453950
  N        0.7639310    -1.5088640    -0.3477740
  C        0.5182450    -0.2160980    -0.0822800
  C       -0.7756170     0.5047820    -0.1623390
  C        2.7114570    -0.4276410     0.0208990
  C        1.8666300     1.8964630     0.4257140
  C       -3.1904980     0.5035560    -0.1598940
  C       -2.0503370    -1.5461500     0.5645390
  C        2.1210610    -1.6392390    -0.2794470
  H        3.7418240    -0.1353950     0.1686580
  H        1.1394670     2.2188990     1.1681400
  H        2.8785810     2.0278530     0.8121890
  H        1.7220340     2.4842350    -0.4794890
  H       -3.8467550    -0.1153850    -0.7799180
  H       -2.9915450     1.4520350    -0.6543500
  H       -3.6876690     0.6913720     0.7990550
  H       -1.0742680    -1.9474190     0.8155770
  H       -2.5092790    -2.1983750    -0.1864030
  H       -2.6938370    -1.5270200     1.4518100
  H        2.6051200    -2.5920870    -0.4498700
units angstrom
no_reorient  #important for SAPT in psi4, default
symmetry c1  #important for SAPT in psi4, default
}

set PROPERTIES_ORIGIN ["COM"]
properties('MP2/aug-cc-pvtz', properties = ['dipole'])
--------------------------------------------------------------------------

    Molecular point group: c1
  Charge       = 0
  Multiplicity = 1
  Basis Set: AUG-CC-PVTZ
    Blend: AUG-CC-PVTZ
  Basis Set: (AUG-CC-PVTZ AUX)
    Blend: AUG-CC-PVTZ-JKFIT

    Orbital Energies [Eh]
    ---------------------

    Doubly Occupied:

       1A    -20.518149     2A    -15.633393     3A    -15.592308
       4A    -15.561856     5A    -11.362941     6A    -11.307870
       7A    -11.270615     8A    -11.269945     9A    -11.255588
      10A    -11.253401    11A    -11.252961    12A     -1.380648
      13A     -1.339024    14A     -1.245804    15A     -1.190907
      16A     -1.030578    17A     -0.977711    18A     -0.966924
      19A     -0.939134    20A     -0.831560    21A     -0.810265
      22A     -0.741908    23A     -0.709405    24A     -0.662242
      25A     -0.655448    26A     -0.644423    27A     -0.640132
      28A     -0.606594    29A     -0.598208    30A     -0.574186
      31A     -0.560087    32A     -0.557024    33A     -0.554229
      34A     -0.552836    35A     -0.527305    36A     -0.522245
      37A     -0.451439    38A     -0.429036    39A     -0.389748
      40A     -0.373338    41A     -0.321970

  @DF-RHF Final Energy:  -509.85906593114146

   => Energetics <=

    Nuclear Repulsion Energy =            628.9195053894936791
    One-Electron Energy =               -1941.4303685829161168
    Two-Electron Energy =                 802.6517972622809793
    Total Energy =                       -509.8590659311414583
  Basis Set: (AUG-CC-PVTZ AUX)
    Blend: AUG-CC-PVTZ-RI
    Molecular point group: c1

    Geometry (in Angstrom), charge = 0, multiplicity = 1:

       Center              X                  Y                   Z               Mass
    ------------   -----------------  -----------------  -----------------  -----------------
         O           -0.796544394905     1.721425703026    -0.418293196066    15.994914619570
         N            1.644348405095     0.495756103026     0.156783203934    14.003074004430
         N           -1.958642394905    -0.191047296974     0.062591803934    14.003074004430
         N            0.734471605095    -1.508330296974    -0.330577196066    14.003074004430
         C            0.488785605095    -0.215564296974    -0.065083196066    12.000000000000
         C           -0.805076394905     0.505315703026    -0.145142196066    12.000000000000
         C            2.681997605095    -0.427107296974     0.038095803934    12.000000000000
         C            1.837170605095     1.896996703026     0.442910803934    12.000000000000
         C           -3.219957394905     0.504089703026    -0.142697196066    12.000000000000
         C           -2.079796394905    -1.545616296974     0.581735803934    12.000000000000
         C            2.091601605095    -1.638705296974    -0.262250196066    12.000000000000
         H            3.712364605095    -0.134861296974     0.185854803934     1.007825032230
         H            1.110007605095     2.219432703026     1.185336803934     1.007825032230
         H            2.849121605095     2.028386703026     0.829385803934     1.007825032230
         H            1.692574605095     2.484768703026    -0.462292196066     1.007825032230
         H           -3.876214394905    -0.114851296974    -0.762721196066     1.007825032230
         H           -3.021004394905     1.452568703026    -0.637153196066     1.007825032230
         H           -3.717128394905     0.691905703026     0.816251803934     1.007825032230
         H           -1.103727394905    -1.946885296974     0.832773803934     1.007825032230
         H           -2.538738394905    -2.197841296974    -0.169206196066     1.007825032230
         H           -2.723296394905    -1.526486296974     1.469006803934     1.007825032230
         H            2.575660605095    -2.591553296974    -0.432673196066     1.007825032230

  Basis Set: AUG-CC-PVTZ
    Blend: AUG-CC-PVTZ
  Basis Set: (AUG-CC-PVTZ AUX)
    Blend: AUG-CC-PVTZ-JKFIT
	 Reference Energy          =    -509.8590659311414583 [Eh]
	 Singles Energy            =      -0.0000000000000000 [Eh]
	 Same-Spin Energy          =      -0.5440082025945856 [Eh]
	 Opposite-Spin Energy      =      -1.6959112642846255 [Eh]
	 Correlation Energy        =      -2.2399194668792113 [Eh]
	 Total Energy              =    -512.0989853980206590 [Eh]

	 ================> DF-SCS-MP2 Energies <==================
	-----------------------------------------------------------
	 SCS Same-Spin Scale       =       0.3333333333333333 [-]
	 SCS Opposite-Spin Scale   =       1.2000000000000000 [-]
	 SCS Same-Spin Energy      =      -0.1813360675315285 [Eh]
	 SCS Opposite-Spin Energy  =      -2.0350935171415503 [Eh]
	 SCS Correlation Energy    =      -2.2164295846730786 [Eh]
	 SCS Total Energy          =    -512.0754955158145094 [Eh]
	-----------------------------------------------------------

  Dipole Moment: [D]
     X:     0.7319      Y:    -0.0611      Z:     1.7066     Total:     1.8579

*** Psi4 exiting successfully. Buy a developer a beer!
