                               Psi4 1.3.2 release

  ==> Input File <==

--------------------------------------------------------------------------
#psi4
#
memory 32 gb

molecule  {
0 1
  O       -0.7670850     1.7208920    -0.4354900
  N        1.6863020     0.4747470     0.1388600
  N       -1.9291830    -0.1915810     0.0453950
  N        0.7639310    -1.5088640    -0.3477740
  C        0.5309569    -0.2362428    -0.0851894
  C       -0.7756170     0.5047820    -0.1623390
  C        2.7114570    -0.4276410     0.0208990
  C        1.8666300     1.8964630     0.4257140
  C       -3.1904980     0.5035560    -0.1598940
  C       -2.0503370    -1.5461500     0.5645390
  C        2.1210610    -1.6392390    -0.2794470
  H        3.7418240    -0.1353950     0.1686580
  H        1.1394670     2.2188990     1.1681400
  H        2.8785810     2.0278530     0.8121890
  H        1.7220340     2.4842350    -0.4794890
  H       -3.8467550    -0.1153850    -0.7799180
  H       -2.9915450     1.4520350    -0.6543500
  H       -3.6876690     0.6913720     0.7990550
  H       -1.0742680    -1.9474190     0.8155770
  H       -2.5092790    -2.1983750    -0.1864030
  H       -2.6938370    -1.5270200     1.4518100
  H        2.6051200    -2.5920870    -0.4498700
units angstrom
no_reorient  #important for SAPT in psi4, default
symmetry c1  #important for SAPT in psi4, default
}

set PROPERTIES_ORIGIN ["COM"]
properties('MP2/aug-cc-pvtz', properties = ['dipole'])
--------------------------------------------------------------------------

    Molecular point group: c1
  Charge       = 0
  Multiplicity = 1
  Basis Set: AUG-CC-PVTZ
    Blend: AUG-CC-PVTZ
  Basis Set: (AUG-CC-PVTZ AUX)
    Blend: AUG-CC-PVTZ-JKFIT

    Orbital Energies [Eh]
    ---------------------

    Doubly Occupied:

       1A    -20.518431     2A    -15.631224     3A    -15.592267
       4A    -15.559906     5A    -11.364105     6A    -11.305350
       7A    -11.272070     8A    -11.268627     9A    -11.255720
      10A    -11.252947    11A    -11.250440    12A     -1.380425
      13A     -1.344517    14A     -1.245667    15A     -1.193289
      16A     -1.030111    17A     -0.976378    18A     -0.966916
      19A     -0.938468    20A     -0.828668    21A     -0.811601
      22A     -0.742289    23A     -0.709741    24A     -0.662079
      25A     -0.654913    26A     -0.645034    27A     -0.640168
      28A     -0.606034    29A     -0.593477    30A     -0.573049
      31A     -0.563854    32A     -0.556982    33A     -0.555451
      34A     -0.553263    35A     -0.527734    36A     -0.523153
      37A     -0.453947    38A     -0.427220    39A     -0.393334
      40A     -0.373310    41A     -0.321091

  @DF-RHF Final Energy:  -509.86154205095335

   => Energetics <=

    Nuclear Repulsion Energy =            629.0219468334627209
    One-Electron Energy =               -1941.6404783496373057
    Two-Electron Energy =                 802.7569894652214089
    Total Energy =                       -509.8615420509532896
  Basis Set: (AUG-CC-PVTZ AUX)
    Blend: AUG-CC-PVTZ-RI
    Molecular point group: c1

    Geometry (in Angstrom), charge = 0, multiplicity = 1:

       Center              X                  Y                   Z               Mass
    ------------   -----------------  -----------------  -----------------  -----------------
         O           -0.798683656475     1.724877629407    -0.417998698904    15.994914619570
         N            1.654703343525     0.478732629407     0.156351301096    14.003074004430
         N           -1.960781656475    -0.187595370593     0.062886301096    14.003074004430
         N            0.732332343525    -1.504878370593    -0.330282698904    14.003074004430
         C            0.499358243525    -0.232257170593    -0.067698098904    12.000000000000
         C           -0.807215656475     0.508767629407    -0.144847698904    12.000000000000
         C            2.679858343525    -0.423655370593     0.038390301096    12.000000000000
         C            1.835031343525     1.900448629407     0.443205301096    12.000000000000
         C           -3.222096656475     0.507541629407    -0.142402698904    12.000000000000
         C           -2.081935656475    -1.542164370593     0.582030301096    12.000000000000
         C            2.089462343525    -1.635253370593    -0.261955698904    12.000000000000
         H            3.710225343525    -0.131409370593     0.186149301096     1.007825032230
         H            1.107868343525     2.222884629407     1.185631301096     1.007825032230
         H            2.846982343525     2.031838629407     0.829680301096     1.007825032230
         H            1.690435343525     2.488220629407    -0.461997698904     1.007825032230
         H           -3.878353656475    -0.111399370593    -0.762426698904     1.007825032230
         H           -3.023143656475     1.456020629407    -0.636858698904     1.007825032230
         H           -3.719267656475     0.695357629407     0.816546301096     1.007825032230
         H           -1.105866656475    -1.943433370593     0.833068301096     1.007825032230
         H           -2.540877656475    -2.194389370593    -0.168911698904     1.007825032230
         H           -2.725435656475    -1.523034370593     1.469301301096     1.007825032230
         H            2.573521343525    -2.588101370593    -0.432378698904     1.007825032230

  Basis Set: AUG-CC-PVTZ
    Blend: AUG-CC-PVTZ
  Basis Set: (AUG-CC-PVTZ AUX)
    Blend: AUG-CC-PVTZ-JKFIT
	 Reference Energy          =    -509.8615420509533465 [Eh]
	 Singles Energy            =      -0.0000000000000000 [Eh]
	 Same-Spin Energy          =      -0.5432448940557701 [Eh]
	 Opposite-Spin Energy      =      -1.6943960381487566 [Eh]
	 Correlation Energy        =      -2.2376409322045268 [Eh]
	 Total Energy              =    -512.0991829831579025 [Eh]

	 ================> DF-SCS-MP2 Energies <==================
	-----------------------------------------------------------
	 SCS Same-Spin Scale       =       0.3333333333333333 [-]
	 SCS Opposite-Spin Scale   =       1.2000000000000000 [-]
	 SCS Same-Spin Energy      =      -0.1810816313519234 [Eh]
	 SCS Opposite-Spin Energy  =      -2.0332752457785079 [Eh]
	 SCS Correlation Energy    =      -2.2143568771304314 [Eh]
	 SCS Total Energy          =    -512.0758989280838023 [Eh]
	-----------------------------------------------------------

  Dipole Moment: [D]
     X:     0.6788      Y:    -0.0012      Z:     1.7113     Total:     1.8410

*** Psi4 exiting successfully. Buy a developer a beer!
