                               Psi4 1.3.2 release

  ==> Input File <==

--------------------------------------------------------------------------
#psi4
#
memory 32 gb

molecule  {
0 1
  O       -0.7670850     1.7208920    -0.4354900
  N        1.6342291     0.5553238     0.1413594
  N       -1.9291830    -0.1915810     0.0453950
  N        0.7639310    -1.5088640    -0.3477740
  C        0.5182450    -0.2160980    -0.0822800
  C       -0.7756170     0.5047820    -0.1623390
  C        2.7114570    -0.4276410     0.0208990
  C        1.8666300     1.8964630     0.4257140
  C       -3.1904980     0.5035560    -0.1598940
  C       -2.0503370    -1.5461500     0.5645390
  C        2.1210610    -1.6392390    -0.2794470
  H        3.7418240    -0.1353950     0.1686580
  H        1.1394670     2.2188990     1.1681400
  H        2.8785810     2.0278530     0.8121890
  H        1.7220340     2.4842350    -0.4794890
  H       -3.8467550    -0.1153850    -0.7799180
  H       -2.9915450     1.4520350    -0.6543500
  H       -3.6876690     0.6913720     0.7990550
  H       -1.0742680    -1.9474190     0.8155770
  H       -2.5092790    -2.1983750    -0.1864030
  H       -2.6938370    -1.5270200     1.4518100
  H        2.6051200    -2.5920870    -0.4498700
units angstrom
no_reorient  #important for SAPT in psi4, default
symmetry c1  #important for SAPT in psi4, default
}

set PROPERTIES_ORIGIN ["COM"]
properties('MP2/aug-cc-pvtz', properties = ['dipole'])
--------------------------------------------------------------------------

    Molecular point group: c1
  Charge       = 0
  Multiplicity = 1
  Basis Set: AUG-CC-PVTZ
    Blend: AUG-CC-PVTZ
  Basis Set: (AUG-CC-PVTZ AUX)
    Blend: AUG-CC-PVTZ-JKFIT

    Orbital Energies [Eh]
    ---------------------

    Doubly Occupied:

       1A    -20.519316     2A    -15.632080     3A    -15.592812
       4A    -15.562521     5A    -11.362469     6A    -11.315219
       7A    -11.274072     8A    -11.264170     9A    -11.259271
      10A    -11.256197    11A    -11.253227    12A     -1.381279
      13A     -1.331708    14A     -1.246613    15A     -1.198716
      16A     -1.027102    17A     -0.980994    18A     -0.967397
      19A     -0.939984    20A     -0.830244    21A     -0.809220
      22A     -0.741540    23A     -0.708421    24A     -0.662467
      25A     -0.656179    26A     -0.642573    27A     -0.639192
      28A     -0.614171    29A     -0.609739    30A     -0.574556
      31A     -0.557843    32A     -0.554165    33A     -0.552374
      34A     -0.543155    35A     -0.526617    36A     -0.519998
      37A     -0.453436    38A     -0.429409    39A     -0.384675
      40A     -0.373737    41A     -0.325411

  @DF-RHF Final Energy:  -509.84597581832145

   => Energetics <=

    Nuclear Repulsion Energy =            628.8037130003297079
    One-Electron Energy =               -1941.1508441124692581
    Two-Electron Energy =                 802.5011552938181012
    Total Energy =                       -509.8459758183214490
  Basis Set: (AUG-CC-PVTZ AUX)
    Blend: AUG-CC-PVTZ-RI
    Molecular point group: c1

    Geometry (in Angstrom), charge = 0, multiplicity = 1:

       Center              X                  Y                   Z               Mass
    ------------   -----------------  -----------------  -----------------  -----------------
         O           -0.792924153886     1.715928262392    -0.418455371360    15.994914619570
         N            1.608389946114     0.550360062392     0.158394028640    14.003074004430
         N           -1.955022153886    -0.196544737608     0.062429628640    14.003074004430
         N            0.738091846114    -1.513827737608    -0.330739371360    14.003074004430
         C            0.492405846114    -0.221061737608    -0.065245371360    12.000000000000
         C           -0.801456153886     0.499818262392    -0.145304371360    12.000000000000
         C            2.685617846114    -0.432604737608     0.037933628640    12.000000000000
         C            1.840790846114     1.891499262392     0.442748628640    12.000000000000
         C           -3.216337153886     0.498592262392    -0.142859371360    12.000000000000
         C           -2.076176153886    -1.551113737608     0.581573628640    12.000000000000
         C            2.095221846114    -1.644202737608    -0.262412371360    12.000000000000
         H            3.715984846114    -0.140358737608     0.185692628640     1.007825032230
         H            1.113627846114     2.213935262392     1.185174628640     1.007825032230
         H            2.852741846114     2.022889262392     0.829223628640     1.007825032230
         H            1.696194846114     2.479271262392    -0.462454371360     1.007825032230
         H           -3.872594153886    -0.120348737608    -0.762883371360     1.007825032230
         H           -3.017384153886     1.447071262392    -0.637315371360     1.007825032230
         H           -3.713508153886     0.686408262392     0.816089628640     1.007825032230
         H           -1.100107153886    -1.952382737608     0.832611628640     1.007825032230
         H           -2.535118153886    -2.203338737608    -0.169368371360     1.007825032230
         H           -2.719676153886    -1.531983737608     1.468844628640     1.007825032230
         H            2.579280846114    -2.597050737608    -0.432835371360     1.007825032230

  Basis Set: AUG-CC-PVTZ
    Blend: AUG-CC-PVTZ
  Basis Set: (AUG-CC-PVTZ AUX)
    Blend: AUG-CC-PVTZ-JKFIT
	 Reference Energy          =    -509.8459758183214490 [Eh]
	 Singles Energy            =      -0.0000000000000000 [Eh]
	 Same-Spin Energy          =      -0.5444440994070869 [Eh]
	 Opposite-Spin Energy      =      -1.6976779676165594 [Eh]
	 Correlation Energy        =      -2.2421220670236464 [Eh]
	 Total Energy              =    -512.0880978853450642 [Eh]

	 ================> DF-SCS-MP2 Energies <==================
	-----------------------------------------------------------
	 SCS Same-Spin Scale       =       0.3333333333333333 [-]
	 SCS Opposite-Spin Scale   =       1.2000000000000000 [-]
	 SCS Same-Spin Energy      =      -0.1814813664690290 [Eh]
	 SCS Opposite-Spin Energy  =      -2.0372135611398714 [Eh]
	 SCS Correlation Energy    =      -2.2186949276089005 [Eh]
	 SCS Total Energy          =    -512.0646707459303570 [Eh]
	-----------------------------------------------------------

  Dipole Moment: [D]
     X:     0.7090      Y:    -0.2255      Z:     1.6770     Total:     1.8347

*** Psi4 exiting successfully. Buy a developer a beer!
