                               Psi4 1.3.2 release

  ==> Input File <==

--------------------------------------------------------------------------
#psi4
#
memory 32 gb

molecule  {
0 1
  O       -0.8971713     1.7168511    -0.4263861
  N        1.6863020     0.4747470     0.1388600
  N       -1.9291830    -0.1915810     0.0453950
  N        0.7639310    -1.5088640    -0.3477740
  C        0.5182450    -0.2160980    -0.0822800
  C       -0.7756170     0.5047820    -0.1623390
  C        2.7114570    -0.4276410     0.0208990
  C        1.8666300     1.8964630     0.4257140
  C       -3.1904980     0.5035560    -0.1598940
  C       -2.0503370    -1.5461500     0.5645390
  C        2.1210610    -1.6392390    -0.2794470
  H        3.7418240    -0.1353950     0.1686580
  H        1.1394670     2.2188990     1.1681400
  H        2.8785810     2.0278530     0.8121890
  H        1.7220340     2.4842350    -0.4794890
  H       -3.8467550    -0.1153850    -0.7799180
  H       -2.9915450     1.4520350    -0.6543500
  H       -3.6876690     0.6913720     0.7990550
  H       -1.0742680    -1.9474190     0.8155770
  H       -2.5092790    -2.1983750    -0.1864030
  H       -2.6938370    -1.5270200     1.4518100
  H        2.6051200    -2.5920870    -0.4498700
units angstrom
no_reorient  #important for SAPT in psi4, default
symmetry c1  #important for SAPT in psi4, default
}

set PROPERTIES_ORIGIN ["COM"]
properties('MP2/aug-cc-pvtz', properties = ['dipole'])
--------------------------------------------------------------------------

    Molecular point group: c1
  Charge       = 0
  Multiplicity = 1
  Basis Set: AUG-CC-PVTZ
    Blend: AUG-CC-PVTZ
  Basis Set: (AUG-CC-PVTZ AUX)
    Blend: AUG-CC-PVTZ-JKFIT

    Orbital Energies [Eh]
    ---------------------

    Doubly Occupied:

       1A    -20.514229     2A    -15.638101     3A    -15.585548
       4A    -15.566129     5A    -11.361770     6A    -11.310603
       7A    -11.276318     8A    -11.273167     9A    -11.255075
      10A    -11.251316    11A    -11.246647    12A     -1.380588
      13A     -1.346846    14A     -1.236769    15A     -1.192568
      16A     -1.036370    17A     -0.979755    18A     -0.962141
      19A     -0.936509    20A     -0.834745    21A     -0.813646
      22A     -0.743129    23A     -0.708032    24A     -0.664104
      25A     -0.654761    26A     -0.645453    27A     -0.639889
      28A     -0.607924    29A     -0.596347    30A     -0.574532
      31A     -0.566316    32A     -0.558393    33A     -0.551553
      34A     -0.549368    35A     -0.522970    36A     -0.520779
      37A     -0.452823    38A     -0.427542    39A     -0.394984
      40A     -0.367454    41A     -0.324557

  @DF-RHF Final Energy:  -509.85634044590904

   => Energetics <=

    Nuclear Repulsion Energy =            628.4623491143455567
    One-Electron Energy =               -1940.4978793153113656
    Two-Electron Energy =                 802.1791897550566546
    Total Energy =                       -509.8563404459090407
  Basis Set: (AUG-CC-PVTZ AUX)
    Blend: AUG-CC-PVTZ-RI
    Molecular point group: c1

    Geometry (in Angstrom), charge = 0, multiplicity = 1:

       Center              X                  Y                   Z               Mass
    ------------   -----------------  -----------------  -----------------  -----------------
         O           -0.914182073731     1.719679870668    -0.410074031076    15.994914619570
         N            1.669291226269     0.477575770668     0.155172068924    14.003074004430
         N           -1.946193773731    -0.188752229332     0.061707068924    14.003074004430
         N            0.746920226269    -1.506035229332    -0.331461931076    14.003074004430
         C            0.501234226269    -0.213269229332    -0.065967931076    12.000000000000
         C           -0.792627773731     0.507610770668    -0.146026931076    12.000000000000
         C            2.694446226269    -0.424812229332     0.037211068924    12.000000000000
         C            1.849619226269     1.899291770668     0.442026068924    12.000000000000
         C           -3.207508773731     0.506384770668    -0.143581931076    12.000000000000
         C           -2.067347773731    -1.543321229332     0.580851068924    12.000000000000
         C            2.104050226269    -1.636410229332    -0.263134931076    12.000000000000
         H            3.724813226269    -0.132566229332     0.184970068924     1.007825032230
         H            1.122456226269     2.221727770668     1.184452068924     1.007825032230
         H            2.861570226269     2.030681770668     0.828501068924     1.007825032230
         H            1.705023226269     2.487063770668    -0.463176931076     1.007825032230
         H           -3.863765773731    -0.112556229332    -0.763605931076     1.007825032230
         H           -3.008555773731     1.454863770668    -0.638037931076     1.007825032230
         H           -3.704679773731     0.694200770668     0.815367068924     1.007825032230
         H           -1.091278773731    -1.944590229332     0.831889068924     1.007825032230
         H           -2.526289773731    -2.195546229332    -0.170090931076     1.007825032230
         H           -2.710847773731    -1.524191229332     1.468122068924     1.007825032230
         H            2.588109226269    -2.589258229332    -0.433557931076     1.007825032230

  Basis Set: AUG-CC-PVTZ
    Blend: AUG-CC-PVTZ
  Basis Set: (AUG-CC-PVTZ AUX)
    Blend: AUG-CC-PVTZ-JKFIT
	 Reference Energy          =    -509.8563404459090407 [Eh]
	 Singles Energy            =      -0.0000000000000000 [Eh]
	 Same-Spin Energy          =      -0.5442672802036306 [Eh]
	 Opposite-Spin Energy      =      -1.6958423163158507 [Eh]
	 Correlation Energy        =      -2.2401095965194813 [Eh]
	 Total Energy              =    -512.0964500424285006 [Eh]

	 ================> DF-SCS-MP2 Energies <==================
	-----------------------------------------------------------
	 SCS Same-Spin Scale       =       0.3333333333333333 [-]
	 SCS Opposite-Spin Scale   =       1.2000000000000000 [-]
	 SCS Same-Spin Energy      =      -0.1814224267345435 [Eh]
	 SCS Opposite-Spin Energy  =      -2.0350107795790207 [Eh]
	 SCS Correlation Energy    =      -2.2164332063135643 [Eh]
	 SCS Total Energy          =    -512.0727736522226223 [Eh]
	-----------------------------------------------------------

  Dipole Moment: [D]
     X:     1.2659      Y:    -0.0013      Z:     1.6991     Total:     2.1188

*** Psi4 exiting successfully. Buy a developer a beer!
