                               Psi4 1.4a3.dev225

  ==> Input File <==

--------------------------------------------------------------------------
#psi4
#
memory 32 gb

molecule  {
0 1
  O       -0.7670850     1.7208920    -0.4354900
  N        1.6863020     0.4747470     0.1388600
  N       -1.9291830    -0.1915810     0.0453950
  N        0.7639310    -1.5088640    -0.3477740
  C        0.5182450    -0.2160980    -0.0822800
  C       -0.7756170     0.5047820    -0.1623390
  C        2.7114570    -0.4276410     0.0208990
  C        1.8666300     1.8964630     0.4257140
  C       -3.1904980     0.5035560    -0.1598940
  C       -2.0503370    -1.5461500     0.5645390
  C        2.1210610    -1.6392390    -0.2794470
  H        3.7227635    -0.1408012     0.1659246
  H        1.1394670     2.2188990     1.1681400
  H        2.8785810     2.0278530     0.8121890
  H        1.7220340     2.4842350    -0.4794890
  H       -3.8467550    -0.1153850    -0.7799180
  H       -2.9915450     1.4520350    -0.6543500
  H       -3.6876690     0.6913720     0.7990550
  H       -1.0742680    -1.9474190     0.8155770
  H       -2.5092790    -2.1983750    -0.1864030
  H       -2.6938370    -1.5270200     1.4518100
  H        2.6051200    -2.5920870    -0.4498700
units angstrom
no_reorient  #important for SAPT in psi4, default
symmetry c1  #important for SAPT in psi4, default
}

set PROPERTIES_ORIGIN ["COM"]
properties('MP2/aug-cc-pvtz', properties = ['dipole'])
--------------------------------------------------------------------------

    Molecular point group: c1
  Charge       = 0
  Multiplicity = 1
  Basis Set: AUG-CC-PVTZ
    Blend: AUG-CC-PVTZ
  Basis Set: (AUG-CC-PVTZ AUX)
    Blend: AUG-CC-PVTZ-JKFIT

    Orbital Energies [Eh]
    ---------------------

    Doubly Occupied:

       1A    -20.517680     2A    -15.633641     3A    -15.592071
       4A    -15.561481     5A    -11.363026     6A    -11.305362
       7A    -11.272047     8A    -11.267155     9A    -11.255334
      10A    -11.252825    11A    -11.251316    12A     -1.380539
      13A     -1.341971    14A     -1.245500    15A     -1.188746
      16A     -1.032490    17A     -0.976650    18A     -0.966706
      19A     -0.939025    20A     -0.831959    21A     -0.812714
      22A     -0.741876    23A     -0.710557    24A     -0.663055
      25A     -0.655411    26A     -0.647210    27A     -0.640019
      28A     -0.606606    29A     -0.592939    30A     -0.574348
      31A     -0.564046    32A     -0.557057    33A     -0.554823
      34A     -0.553036    35A     -0.527278    36A     -0.522935
      37A     -0.450729    38A     -0.428852    39A     -0.391393
      40A     -0.373152    41A     -0.320582

  @DF-RHF Final Energy:  -509.86056921785678

   => Energetics <=

    Nuclear Repulsion Energy =            629.0984363201947644
    One-Electron Energy =               -1941.7897238195789669
    Two-Electron Energy =                 802.8307182815273109
    Total Energy =                       -509.8605692178567779
  Basis Set: (AUG-CC-PVTZ AUX)
    Blend: AUG-CC-PVTZ-RI
    Molecular point group: c1

    Geometry (in Angstrom), charge = 0, multiplicity = 1:

       Center              X                  Y                   Z               Mass
    ------------   -----------------  -----------------  -----------------  -----------------
         O           -0.797561752946     1.723334166286    -0.418208758127    15.994914619570
         N            1.655825247054     0.477189166286     0.156141241873    14.003074004430
         N           -1.959659752946    -0.189138833714     0.062676241873    14.003074004430
         N            0.733454247054    -1.506421833714    -0.330492758127    14.003074004430
         C            0.487768247054    -0.213655833714    -0.064998758127    12.000000000000
         C           -0.806093752946     0.507224166286    -0.145057758127    12.000000000000
         C            2.680980247054    -0.425198833714     0.038180241873    12.000000000000
         C            1.836153247054     1.898905166286     0.442995241873    12.000000000000
         C           -3.220974752946     0.505998166286    -0.142612758127    12.000000000000
         C           -2.080813752946    -1.543707833714     0.581820241873    12.000000000000
         C            2.090584247054    -1.636796833714    -0.262165758127    12.000000000000
         H            3.692286747054    -0.138359033714     0.183205841873     1.007825032230
         H            1.108990247054     2.221341166286     1.185421241873     1.007825032230
         H            2.848104247054     2.030295166286     0.829470241873     1.007825032230
         H            1.691557247054     2.486677166286    -0.462207758127     1.007825032230
         H           -3.877231752946    -0.112942833714    -0.762636758127     1.007825032230
         H           -3.022021752946     1.454477166286    -0.637068758127     1.007825032230
         H           -3.718145752946     0.693814166286     0.816336241873     1.007825032230
         H           -1.104744752946    -1.944976833714     0.832858241873     1.007825032230
         H           -2.539755752946    -2.195932833714    -0.169121758127     1.007825032230
         H           -2.724313752946    -1.524577833714     1.469091241873     1.007825032230
         H            2.574643247054    -2.589644833714    -0.432588758127     1.007825032230

  Basis Set: AUG-CC-PVTZ
    Blend: AUG-CC-PVTZ
  Basis Set: (AUG-CC-PVTZ AUX)
    Blend: AUG-CC-PVTZ-JKFIT
	 Reference Energy          =    -509.8605692178567779 [Eh]
	 Singles Energy            =      -0.0000000000000000 [Eh]
	 Same-Spin Energy          =      -0.5439004198575516 [Eh]
	 Opposite-Spin Energy      =      -1.6953486030488527 [Eh]
	 Correlation Energy        =      -2.2392490229064044 [Eh]
	 Total Energy              =    -512.0998182407631703 [Eh]

	 ================> DF-SCS-MP2 Energies <==================
	-----------------------------------------------------------
	 SCS Same-Spin Scale       =       0.3333333333333333 [-]
	 SCS Opposite-Spin Scale   =       1.2000000000000000 [-]
	 SCS Same-Spin Energy      =      -0.1813001399525172 [Eh]
	 SCS Opposite-Spin Energy  =      -2.0344183236586231 [Eh]
	 SCS Correlation Energy    =      -2.2157184636111404 [Eh]
	 SCS Total Energy          =    -512.0762876814678748 [Eh]
	-----------------------------------------------------------

  Dipole Moment: [D]
     X:     0.7437      Y:    -0.0030      Z:     1.7175     Total:     1.8716

*** Psi4 exiting successfully. Buy a developer a beer!
