                               Psi4 1.4a3.dev225

  ==> Input File <==

--------------------------------------------------------------------------
#psi4
#
memory 32 gb

molecule  {
0 1
  O       -0.7670850     1.7208920    -0.4354900
  N        1.6863020     0.4747470     0.1388600
  N       -1.9291830    -0.1915810     0.0453950
  N        0.7639310    -1.5088640    -0.3477740
  C        0.4757691    -0.2412203    -0.0903217
  C       -0.7756170     0.5047820    -0.1623390
  C        2.7114570    -0.4276410     0.0208990
  C        1.8666300     1.8964630     0.4257140
  C       -3.1904980     0.5035560    -0.1598940
  C       -2.0503370    -1.5461500     0.5645390
  C        2.1210610    -1.6392390    -0.2794470
  H        3.7418240    -0.1353950     0.1686580
  H        1.1394670     2.2188990     1.1681400
  H        2.8785810     2.0278530     0.8121890
  H        1.7220340     2.4842350    -0.4794890
  H       -3.8467550    -0.1153850    -0.7799180
  H       -2.9915450     1.4520350    -0.6543500
  H       -3.6876690     0.6913720     0.7990550
  H       -1.0742680    -1.9474190     0.8155770
  H       -2.5092790    -2.1983750    -0.1864030
  H       -2.6938370    -1.5270200     1.4518100
  H        2.6051200    -2.5920870    -0.4498700
units angstrom
no_reorient  #important for SAPT in psi4, default
symmetry c1  #important for SAPT in psi4, default
}

set PROPERTIES_ORIGIN ["COM"]
properties('MP2/aug-cc-pvtz', properties = ['dipole'])
--------------------------------------------------------------------------

    Molecular point group: c1
  Charge       = 0
  Multiplicity = 1
  Basis Set: AUG-CC-PVTZ
    Blend: AUG-CC-PVTZ
  Basis Set: (AUG-CC-PVTZ AUX)
    Blend: AUG-CC-PVTZ-JKFIT

    Orbital Energies [Eh]
    ---------------------

    Doubly Occupied:

       1A    -20.518093     2A    -15.630283     3A    -15.591512
       4A    -15.565324     5A    -11.362075     6A    -11.306161
       7A    -11.273629     8A    -11.269049     9A    -11.256094
      10A    -11.252535    11A    -11.250968    12A     -1.379689
      13A     -1.334524    14A     -1.246085    15A     -1.189004
      16A     -1.035012    17A     -0.974950    18A     -0.966610
      19A     -0.936250    20A     -0.836145    21A     -0.808338
      22A     -0.740669    23A     -0.708694    24A     -0.662182
      25A     -0.655604    26A     -0.647507    27A     -0.636297
      28A     -0.606596    29A     -0.589230    30A     -0.575853
      31A     -0.562441    32A     -0.557407    33A     -0.554390
      34A     -0.553132    35A     -0.527086    36A     -0.522334
      37A     -0.451250    38A     -0.429028    39A     -0.392206
      40A     -0.373380    41A     -0.319863

  @DF-RHF Final Energy:  -509.85580778049786

   => Energetics <=

    Nuclear Repulsion Energy =            628.8355013601845940
    One-Electron Energy =               -1941.2876557391155075
    Two-Electron Energy =                 802.5963465984332288
    Total Energy =                       -509.8558077804977984
  Basis Set: (AUG-CC-PVTZ AUX)
    Blend: AUG-CC-PVTZ-RI
    Molecular point group: c1

    Geometry (in Angstrom), charge = 0, multiplicity = 1:

       Center              X                  Y                   Z               Mass
    ------------   -----------------  -----------------  -----------------  -----------------
         O           -0.794357752216     1.725267791516    -0.417596402773    15.994914619570
         N            1.659029247784     0.479122791516     0.156753597227    14.003074004430
         N           -1.956455752216    -0.187205208484     0.063288597227    14.003074004430
         N            0.736658247784    -1.504488208484    -0.329880402773    14.003074004430
         C            0.448496347784    -0.236844508484    -0.072428102773    12.000000000000
         C           -0.802889752216     0.509157791516    -0.144445402773    12.000000000000
         C            2.684184247784    -0.423265208484     0.038792597227    12.000000000000
         C            1.839357247784     1.900838791516     0.443607597227    12.000000000000
         C           -3.217770752216     0.507931791516    -0.142000402773    12.000000000000
         C           -2.077609752216    -1.541774208484     0.582432597227    12.000000000000
         C            2.093788247784    -1.634863208484    -0.261553402773    12.000000000000
         H            3.714551247784    -0.131019208484     0.186551597227     1.007825032230
         H            1.112194247784     2.223274791516     1.186033597227     1.007825032230
         H            2.851308247784     2.032228791516     0.830082597227     1.007825032230
         H            1.694761247784     2.488610791516    -0.461595402773     1.007825032230
         H           -3.874027752216    -0.111009208484    -0.762024402773     1.007825032230
         H           -3.018817752216     1.456410791516    -0.636456402773     1.007825032230
         H           -3.714941752216     0.695747791516     0.816948597227     1.007825032230
         H           -1.101540752216    -1.943043208484     0.833470597227     1.007825032230
         H           -2.536551752216    -2.193999208484    -0.168509402773     1.007825032230
         H           -2.721109752216    -1.522644208484     1.469703597227     1.007825032230
         H            2.577847247784    -2.587711208484    -0.431976402773     1.007825032230

  Basis Set: AUG-CC-PVTZ
    Blend: AUG-CC-PVTZ
  Basis Set: (AUG-CC-PVTZ AUX)
    Blend: AUG-CC-PVTZ-JKFIT
	 Reference Energy          =    -509.8558077804978552 [Eh]
	 Singles Energy            =      -0.0000000000000000 [Eh]
	 Same-Spin Energy          =      -0.5445829533525668 [Eh]
	 Opposite-Spin Energy      =      -1.6966262563357002 [Eh]
	 Correlation Energy        =      -2.2412092096882672 [Eh]
	 Total Energy              =    -512.0970169901861482 [Eh]

	 ================> DF-SCS-MP2 Energies <==================
	-----------------------------------------------------------
	 SCS Same-Spin Scale       =       0.3333333333333333 [-]
	 SCS Opposite-Spin Scale   =       1.2000000000000000 [-]
	 SCS Same-Spin Energy      =      -0.1815276511175223 [Eh]
	 SCS Opposite-Spin Energy  =      -2.0359515076028400 [Eh]
	 SCS Correlation Energy    =      -2.2174791587203622 [Eh]
	 SCS Total Energy          =    -512.0732869392181783 [Eh]
	-----------------------------------------------------------

  Dipole Moment: [D]
     X:     0.7253      Y:    -0.1049      Z:     1.6893     Total:     1.8414

*** Psi4 exiting successfully. Buy a developer a beer!
