                               Psi4 1.4a3.dev225

  ==> Input File <==

--------------------------------------------------------------------------
#psi4
#
memory 32 gb

molecule  {
0 1
  O       -0.7670850     1.7208920    -0.4354900
  N        1.6863020     0.4747470     0.1388600
  N       -1.9291830    -0.1915810     0.0453950
  N        0.7639310    -1.5088640    -0.3477740
  C        0.5182450    -0.2160980    -0.0822800
  C       -0.7320025     0.4804820    -0.1596403
  C        2.7114570    -0.4276410     0.0208990
  C        1.8666300     1.8964630     0.4257140
  C       -3.1904980     0.5035560    -0.1598940
  C       -2.0503370    -1.5461500     0.5645390
  C        2.1210610    -1.6392390    -0.2794470
  H        3.7418240    -0.1353950     0.1686580
  H        1.1394670     2.2188990     1.1681400
  H        2.8785810     2.0278530     0.8121890
  H        1.7220340     2.4842350    -0.4794890
  H       -3.8467550    -0.1153850    -0.7799180
  H       -2.9915450     1.4520350    -0.6543500
  H       -3.6876690     0.6913720     0.7990550
  H       -1.0742680    -1.9474190     0.8155770
  H       -2.5092790    -2.1983750    -0.1864030
  H       -2.6938370    -1.5270200     1.4518100
  H        2.6051200    -2.5920870    -0.4498700
units angstrom
no_reorient  #important for SAPT in psi4, default
symmetry c1  #important for SAPT in psi4, default
}

set PROPERTIES_ORIGIN ["COM"]
properties('MP2/aug-cc-pvtz', properties = ['dipole'])
--------------------------------------------------------------------------

    Molecular point group: c1
  Charge       = 0
  Multiplicity = 1
  Basis Set: AUG-CC-PVTZ
    Blend: AUG-CC-PVTZ
  Basis Set: (AUG-CC-PVTZ AUX)
    Blend: AUG-CC-PVTZ-JKFIT

    Orbital Energies [Eh]
    ---------------------

    Doubly Occupied:

       1A    -20.515030     2A    -15.638155     3A    -15.589497
       4A    -15.567022     5A    -11.363271     6A    -11.305671
       7A    -11.274493     8A    -11.273550     9A    -11.255452
      10A    -11.251804    11A    -11.250678    12A     -1.372255
      13A     -1.339434    14A     -1.235158    15A     -1.192368
      16A     -1.041476    17A     -0.979995    18A     -0.963121
      19A     -0.933759    20A     -0.841796    21A     -0.815627
      22A     -0.743738    23A     -0.706985    24A     -0.663299
      25A     -0.652582    26A     -0.643039    27A     -0.638448
      28A     -0.608018    29A     -0.595401    30A     -0.573024
      31A     -0.564884    32A     -0.558775    33A     -0.553677
      34A     -0.550288    35A     -0.523136    36A     -0.514914
      37A     -0.452659    38A     -0.429068    39A     -0.394501
      40A     -0.367170    41A     -0.324324

  @DF-RHF Final Energy:  -509.85301759789712

   => Energetics <=

    Nuclear Repulsion Energy =            629.1084473357439037
    One-Electron Energy =               -1941.8078440396782298
    Two-Electron Energy =                 802.8463791060372614
    Total Energy =                       -509.8530175978970647
  Basis Set: (AUG-CC-PVTZ AUX)
    Blend: AUG-CC-PVTZ-RI
    Molecular point group: c1

    Geometry (in Angstrom), charge = 0, multiplicity = 1:

       Center              X                  Y                   Z               Mass
    ------------   -----------------  -----------------  -----------------  -----------------
         O           -0.801105961567     1.725203335403    -0.418438290692    15.994914619570
         N            1.652281038433     0.479058335403     0.155911709308    14.003074004430
         N           -1.963203961567    -0.187269664597     0.062446709308    14.003074004430
         N            0.729910038433    -1.504552664597    -0.330722290692    14.003074004430
         C            0.484224038433    -0.211786664597    -0.065228290692    12.000000000000
         C           -0.766023461567     0.484793335403    -0.142588590692    12.000000000000
         C            2.677436038433    -0.423329664597     0.037950709308    12.000000000000
         C            1.832609038433     1.900774335403     0.442765709308    12.000000000000
         C           -3.224518961567     0.507867335403    -0.142842290692    12.000000000000
         C           -2.084357961567    -1.541838664597     0.581590709308    12.000000000000
         C            2.087040038433    -1.634927664597    -0.262395290692    12.000000000000
         H            3.707803038433    -0.131083664597     0.185709709308     1.007825032230
         H            1.105446038433     2.223210335403     1.185191709308     1.007825032230
         H            2.844560038433     2.032164335403     0.829240709308     1.007825032230
         H            1.688013038433     2.488546335403    -0.462437290692     1.007825032230
         H           -3.880775961567    -0.111073664597    -0.762866290692     1.007825032230
         H           -3.025565961567     1.456346335403    -0.637298290692     1.007825032230
         H           -3.721689961567     0.695683335403     0.816106709308     1.007825032230
         H           -1.108288961567    -1.943107664597     0.832628709308     1.007825032230
         H           -2.543299961567    -2.194063664597    -0.169351290692     1.007825032230
         H           -2.727857961567    -1.522708664597     1.468861709308     1.007825032230
         H            2.571099038433    -2.587775664597    -0.432818290692     1.007825032230

  Basis Set: AUG-CC-PVTZ
    Blend: AUG-CC-PVTZ
  Basis Set: (AUG-CC-PVTZ AUX)
    Blend: AUG-CC-PVTZ-JKFIT
	 Reference Energy          =    -509.8530175978971215 [Eh]
	 Singles Energy            =      -0.0000000000000000 [Eh]
	 Same-Spin Energy          =      -0.5454012224898364 [Eh]
	 Opposite-Spin Energy      =      -1.6979839629412994 [Eh]
	 Correlation Energy        =      -2.2433851854311357 [Eh]
	 Total Energy              =    -512.0964027833282444 [Eh]

	 ================> DF-SCS-MP2 Energies <==================
	-----------------------------------------------------------
	 SCS Same-Spin Scale       =       0.3333333333333333 [-]
	 SCS Opposite-Spin Scale   =       1.2000000000000000 [-]
	 SCS Same-Spin Energy      =      -0.1818004074966121 [Eh]
	 SCS Opposite-Spin Energy  =      -2.0375807555295591 [Eh]
	 SCS Correlation Energy    =      -2.2193811630261711 [Eh]
	 SCS Total Energy          =    -512.0723987609233063 [Eh]
	-----------------------------------------------------------

  Dipole Moment: [D]
     X:     1.1134      Y:    -0.0931      Z:     1.7125     Total:     2.0447

*** Psi4 exiting successfully. Buy a developer a beer!
