                               Psi4 1.4a3.dev225

  ==> Input File <==

--------------------------------------------------------------------------
#psi4
#
memory 32 gb

molecule  {
0 1
  O       -0.7670850     1.7208920    -0.4354900
  N        1.6863020     0.4747470     0.1388600
  N       -1.9291830    -0.1915810     0.0453950
  N        0.7639310    -1.5088640    -0.3477740
  C        0.5182450    -0.2160980    -0.0822800
  C       -0.7756170     0.5047820    -0.1623390
  C        2.7264138    -0.4408066     0.0191780
  C        1.8666300     1.8964630     0.4257140
  C       -3.1904980     0.5035560    -0.1598940
  C       -2.0503370    -1.5461500     0.5645390
  C        2.1210610    -1.6392390    -0.2794470
  H        3.7418240    -0.1353950     0.1686580
  H        1.1394670     2.2188990     1.1681400
  H        2.8785810     2.0278530     0.8121890
  H        1.7220340     2.4842350    -0.4794890
  H       -3.8467550    -0.1153850    -0.7799180
  H       -2.9915450     1.4520350    -0.6543500
  H       -3.6876690     0.6913720     0.7990550
  H       -1.0742680    -1.9474190     0.8155770
  H       -2.5092790    -2.1983750    -0.1864030
  H       -2.6938370    -1.5270200     1.4518100
  H        2.6051200    -2.5920870    -0.4498700
units angstrom
no_reorient  #important for SAPT in psi4, default
symmetry c1  #important for SAPT in psi4, default
}

set PROPERTIES_ORIGIN ["COM"]
properties('MP2/aug-cc-pvtz', properties = ['dipole'])
--------------------------------------------------------------------------

    Molecular point group: c1
  Charge       = 0
  Multiplicity = 1
  Basis Set: AUG-CC-PVTZ
    Blend: AUG-CC-PVTZ
  Basis Set: (AUG-CC-PVTZ AUX)
    Blend: AUG-CC-PVTZ-JKFIT

    Orbital Energies [Eh]
    ---------------------

    Doubly Occupied:

       1A    -20.518429     2A    -15.632507     3A    -15.592715
       4A    -15.560901     5A    -11.363710     6A    -11.307188
       7A    -11.271037     8A    -11.268950     9A    -11.255682
      10A    -11.253213    11A    -11.252092    12A     -1.380515
      13A     -1.338496    14A     -1.245995    15A     -1.186646
      16A     -1.032410    17A     -0.975237    18A     -0.967076
      19A     -0.939330    20A     -0.831836    21A     -0.810993
      22A     -0.740867    23A     -0.709997    24A     -0.661953
      25A     -0.655395    26A     -0.646015    27A     -0.638660
      28A     -0.606693    29A     -0.593525    30A     -0.574676
      31A     -0.561561    32A     -0.556815    33A     -0.554552
      34A     -0.553019    35A     -0.527461    36A     -0.522868
      37A     -0.451078    38A     -0.429313    39A     -0.389325
      40A     -0.373556    41A     -0.322816

  @DF-RHF Final Energy:  -509.85965116214976

   => Energetics <=

    Nuclear Repulsion Energy =            628.5892974987385742
    One-Electron Energy =               -1940.7876914889100135
    Two-Electron Energy =                 802.3387428280218501
    Total Energy =                       -509.8596511621497029
  Basis Set: (AUG-CC-PVTZ AUX)
    Blend: AUG-CC-PVTZ-RI
    Molecular point group: c1

    Geometry (in Angstrom), charge = 0, multiplicity = 1:

       Center              X                  Y                   Z               Mass
    ------------   -----------------  -----------------  -----------------  -----------------
         O           -0.798859623310     1.724330563733    -0.418091851822    15.994914619570
         N            1.654527376690     0.478185563733     0.156258148178    14.003074004430
         N           -1.960957623310    -0.188142436267     0.062793148178    14.003074004430
         N            0.732156376690    -1.505425436267    -0.330375851822    14.003074004430
         C            0.486470376690    -0.212659436267    -0.064881851822    12.000000000000
         C           -0.807391623310     0.508220563733    -0.144940851822    12.000000000000
         C            2.694639176690    -0.437368036267     0.036576148178    12.000000000000
         C            1.834855376690     1.899901563733     0.443112148178    12.000000000000
         C           -3.222272623310     0.506994563733    -0.142495851822    12.000000000000
         C           -2.082111623310    -1.542711436267     0.581937148178    12.000000000000
         C            2.089286376690    -1.635800436267    -0.262048851822    12.000000000000
         H            3.710049376690    -0.131956436267     0.186056148178     1.007825032230
         H            1.107692376690     2.222337563733     1.185538148178     1.007825032230
         H            2.846806376690     2.031291563733     0.829587148178     1.007825032230
         H            1.690259376690     2.487673563733    -0.462090851822     1.007825032230
         H           -3.878529623310    -0.111946436267    -0.762519851822     1.007825032230
         H           -3.023319623310     1.455473563733    -0.636951851822     1.007825032230
         H           -3.719443623310     0.694810563733     0.816453148178     1.007825032230
         H           -1.106042623310    -1.943980436267     0.832975148178     1.007825032230
         H           -2.541053623310    -2.194936436267    -0.169004851822     1.007825032230
         H           -2.725611623310    -1.523581436267     1.469208148178     1.007825032230
         H            2.573345376690    -2.588648436267    -0.432471851822     1.007825032230

  Basis Set: AUG-CC-PVTZ
    Blend: AUG-CC-PVTZ
  Basis Set: (AUG-CC-PVTZ AUX)
    Blend: AUG-CC-PVTZ-JKFIT
	 Reference Energy          =    -509.8596511621497598 [Eh]
	 Singles Energy            =      -0.0000000000000000 [Eh]
	 Same-Spin Energy          =      -0.5438428609957144 [Eh]
	 Opposite-Spin Energy      =      -1.6957056958365357 [Eh]
	 Correlation Energy        =      -2.2395485568322502 [Eh]
	 Total Energy              =    -512.0991997189820495 [Eh]

	 ================> DF-SCS-MP2 Energies <==================
	-----------------------------------------------------------
	 SCS Same-Spin Scale       =       0.3333333333333333 [-]
	 SCS Opposite-Spin Scale   =       1.2000000000000000 [-]
	 SCS Same-Spin Energy      =      -0.1812809536652381 [Eh]
	 SCS Opposite-Spin Energy  =      -2.0348468350038429 [Eh]
	 SCS Correlation Energy    =      -2.2161277886690809 [Eh]
	 SCS Total Energy          =    -512.0757789508188580 [Eh]
	-----------------------------------------------------------

  Dipole Moment: [D]
     X:     0.7237      Y:    -0.0213      Z:     1.7129     Total:     1.8597

*** Psi4 exiting successfully. Buy a developer a beer!
