                               Psi4 1.3.2 release

  ==> Input File <==

--------------------------------------------------------------------------
#psi4
#
memory 32 gb

molecule  {
0 1
  O       -0.7670850     1.7208920    -0.4354900
  N        1.6863020     0.4747470     0.1388600
  N       -1.9291830    -0.1915810     0.0453950
  N        0.7639310    -1.5088640    -0.3477740
  C        0.5182450    -0.2160980    -0.0822800
  C       -0.7756170     0.5047820    -0.1623390
  C        2.8610246    -0.5592972     0.0036888
  C        1.8666300     1.8964630     0.4257140
  C       -3.1904980     0.5035560    -0.1598940
  C       -2.0503370    -1.5461500     0.5645390
  C        2.1210610    -1.6392390    -0.2794470
  H        3.7418240    -0.1353950     0.1686580
  H        1.1394670     2.2188990     1.1681400
  H        2.8785810     2.0278530     0.8121890
  H        1.7220340     2.4842350    -0.4794890
  H       -3.8467550    -0.1153850    -0.7799180
  H       -2.9915450     1.4520350    -0.6543500
  H       -3.6876690     0.6913720     0.7990550
  H       -1.0742680    -1.9474190     0.8155770
  H       -2.5092790    -2.1983750    -0.1864030
  H       -2.6938370    -1.5270200     1.4518100
  H        2.6051200    -2.5920870    -0.4498700
units angstrom
no_reorient  #important for SAPT in psi4, default
symmetry c1  #important for SAPT in psi4, default
}

set PROPERTIES_ORIGIN ["COM"]
properties('MP2/aug-cc-pvtz', properties = ['dipole'])
--------------------------------------------------------------------------

    Molecular point group: c1
  Charge       = 0
  Multiplicity = 1
  Basis Set: AUG-CC-PVTZ
    Blend: AUG-CC-PVTZ
  Basis Set: (AUG-CC-PVTZ AUX)
    Blend: AUG-CC-PVTZ-JKFIT

    Orbital Energies [Eh]
    ---------------------

    Doubly Occupied:

       1A    -20.523476     2A    -15.619099     3A    -15.597070
       4A    -15.555765     5A    -11.368199     6A    -11.320036
       7A    -11.270477     8A    -11.262878     9A    -11.261121
      10A    -11.258036    11A    -11.255786    12A     -1.382283
      13A     -1.314084    14A     -1.249311    15A     -1.170057
      16A     -1.037940    17A     -0.971915    18A     -0.966541
      19A     -0.940062    20A     -0.835852    21A     -0.814629
      22A     -0.734519    23A     -0.713235    24A     -0.660294
      25A     -0.659442    26A     -0.648151    27A     -0.626651
      28A     -0.622716    29A     -0.587916    30A     -0.577283
      31A     -0.560863    32A     -0.556223    33A     -0.551506
      34A     -0.532377    35A     -0.521718    36A     -0.513836
      37A     -0.453124    38A     -0.432218    39A     -0.376301
      40A     -0.374661    41A     -0.339929

  @DF-RHF Final Energy:  -509.82144399255350

   => Energetics <=

    Nuclear Repulsion Energy =            625.2005311229764857
    One-Electron Energy =               -1934.0087859602635945
    Two-Electron Energy =                 798.9868108447337818
    Total Energy =                       -509.8214439925534407
  Basis Set: (AUG-CC-PVTZ AUX)
    Blend: AUG-CC-PVTZ-RI
    Molecular point group: c1

    Geometry (in Angstrom), charge = 0, multiplicity = 1:

       Center              X                  Y                   Z               Mass
    ------------   -----------------  -----------------  -----------------  -----------------
         O           -0.809411111736     1.733618467783    -0.416877728479    15.994914619570
         N            1.643975888264     0.487473467783     0.157472271521    14.003074004430
         N           -1.971509111736    -0.178854532217     0.064007271521    14.003074004430
         N            0.721604888264    -1.496137532217    -0.329161728479    14.003074004430
         C            0.475918888264    -0.203371532217    -0.063667728479    12.000000000000
         C           -0.817943111736     0.517508467783    -0.143726728479    12.000000000000
         C            2.818698488264    -0.546570732217     0.022301071521    12.000000000000
         C            1.824303888264     1.909189467783     0.444326271521    12.000000000000
         C           -3.232824111736     0.516282467783    -0.141281728479    12.000000000000
         C           -2.092663111736    -1.533423532217     0.583151271521    12.000000000000
         C            2.078734888264    -1.626512532217    -0.260834728479    12.000000000000
         H            3.699497888264    -0.122668532217     0.187270271521     1.007825032230
         H            1.097140888264     2.231625467783     1.186752271521     1.007825032230
         H            2.836254888264     2.040579467783     0.830801271521     1.007825032230
         H            1.679707888264     2.496961467783    -0.460876728479     1.007825032230
         H           -3.889081111736    -0.102658532217    -0.761305728479     1.007825032230
         H           -3.033871111736     1.464761467783    -0.635737728479     1.007825032230
         H           -3.729995111736     0.704098467783     0.817667271521     1.007825032230
         H           -1.116594111736    -1.934692532217     0.834189271521     1.007825032230
         H           -2.551605111736    -2.185648532217    -0.167790728479     1.007825032230
         H           -2.736163111736    -1.514293532217     1.470422271521     1.007825032230
         H            2.562793888264    -2.579360532217    -0.431257728479     1.007825032230

  Basis Set: AUG-CC-PVTZ
    Blend: AUG-CC-PVTZ
  Basis Set: (AUG-CC-PVTZ AUX)
    Blend: AUG-CC-PVTZ-JKFIT
	 Reference Energy          =    -509.8214439925534975 [Eh]
	 Singles Energy            =      -0.0000000000000000 [Eh]
	 Same-Spin Energy          =      -0.5433345379373202 [Eh]
	 Opposite-Spin Energy      =      -1.6985669727873427 [Eh]
	 Correlation Energy        =      -2.2419015107246629 [Eh]
	 Total Energy              =    -512.0633455032781285 [Eh]

	 ================> DF-SCS-MP2 Energies <==================
	-----------------------------------------------------------
	 SCS Same-Spin Scale       =       0.3333333333333333 [-]
	 SCS Opposite-Spin Scale   =       1.2000000000000000 [-]
	 SCS Same-Spin Energy      =      -0.1811115126457734 [Eh]
	 SCS Opposite-Spin Energy  =      -2.0382803673448113 [Eh]
	 SCS Correlation Energy    =      -2.2193918799905847 [Eh]
	 SCS Total Energy          =    -512.0408358725441076 [Eh]
	-----------------------------------------------------------

  Dipole Moment: [D]
     X:     0.5830      Y:    -0.1591      Z:     1.6778     Total:     1.7833

*** Psi4 exiting successfully. Buy a developer a beer!
