                               Psi4 1.3.2 release

  ==> Input File <==

--------------------------------------------------------------------------
#psi4
#
memory 32 gb

molecule  {
0 1
  O       -0.7670850     1.7208920    -0.4354900
  N        1.6863020     0.4747470     0.1388600
  N       -1.9291830    -0.1915810     0.0453950
  N        0.7639310    -1.5088640    -0.3477740
  C        0.5182450    -0.2160980    -0.0822800
  C       -0.7756170     0.5047820    -0.1623390
  C        2.7424836    -0.3922533     0.0295320
  C        1.8666300     1.8964630     0.4257140
  C       -3.1904980     0.5035560    -0.1598940
  C       -2.0503370    -1.5461500     0.5645390
  C        2.1210610    -1.6392390    -0.2794470
  H        3.7418240    -0.1353950     0.1686580
  H        1.1394670     2.2188990     1.1681400
  H        2.8785810     2.0278530     0.8121890
  H        1.7220340     2.4842350    -0.4794890
  H       -3.8467550    -0.1153850    -0.7799180
  H       -2.9915450     1.4520350    -0.6543500
  H       -3.6876690     0.6913720     0.7990550
  H       -1.0742680    -1.9474190     0.8155770
  H       -2.5092790    -2.1983750    -0.1864030
  H       -2.6938370    -1.5270200     1.4518100
  H        2.6051200    -2.5920870    -0.4498700
units angstrom
no_reorient  #important for SAPT in psi4, default
symmetry c1  #important for SAPT in psi4, default
}

set PROPERTIES_ORIGIN ["COM"]
properties('MP2/aug-cc-pvtz', properties = ['dipole'])
--------------------------------------------------------------------------

    Molecular point group: c1
  Charge       = 0
  Multiplicity = 1
  Basis Set: AUG-CC-PVTZ
    Blend: AUG-CC-PVTZ
  Basis Set: (AUG-CC-PVTZ AUX)
    Blend: AUG-CC-PVTZ-JKFIT

    Orbital Energies [Eh]
    ---------------------

    Doubly Occupied:

       1A    -20.517225     2A    -15.637333     3A    -15.591957
       4A    -15.563751     5A    -11.363032     6A    -11.305055
       7A    -11.271896     8A    -11.271569     9A    -11.257609
      10A    -11.255521    11A    -11.252784    12A     -1.380092
      13A     -1.340354    14A     -1.245464    15A     -1.190036
      16A     -1.028438    17A     -0.976287    18A     -0.966706
      19A     -0.938424    20A     -0.828488    21A     -0.817214
      22A     -0.740531    23A     -0.710864    24A     -0.664860
      25A     -0.655415    26A     -0.650997    27A     -0.639959
      28A     -0.609698    29A     -0.587769    30A     -0.574494
      31A     -0.564687    32A     -0.555536    33A     -0.554172
      34A     -0.552505    35A     -0.527132    36A     -0.522033
      37A     -0.451079    38A     -0.428835    39A     -0.393340
      40A     -0.373102    41A     -0.314440

  @DF-RHF Final Energy:  -509.85514260189586

   => Energetics <=

    Nuclear Repulsion Energy =            628.2921948729577935
    One-Electron Energy =               -1940.1533102921453064
    Two-Electron Energy =                 802.0059728172917630
    Total Energy =                       -509.8551426018958637
  Basis Set: (AUG-CC-PVTZ AUX)
    Blend: AUG-CC-PVTZ-RI
    Molecular point group: c1

    Geometry (in Angstrom), charge = 0, multiplicity = 1:

       Center              X                  Y                   Z               Mass
    ------------   -----------------  -----------------  -----------------  -----------------
         O           -0.800119257074     1.720524705785    -0.418903451717    15.994914619570
         N            1.653267742926     0.474379705785     0.155446548283    14.003074004430
         N           -1.962217257074    -0.191948294215     0.061981548283    14.003074004430
         N            0.730896742926    -1.509231294215    -0.331187451717    14.003074004430
         C            0.485210742926    -0.216465294215    -0.065693451717    12.000000000000
         C           -0.808651257074     0.504414705785    -0.145752451717    12.000000000000
         C            2.709449342926    -0.392620594215     0.046118548283    12.000000000000
         C            1.833595742926     1.896095705785     0.442300548283    12.000000000000
         C           -3.223532257074     0.503188705785    -0.143307451717    12.000000000000
         C           -2.083371257074    -1.546517294215     0.581125548283    12.000000000000
         C            2.088026742926    -1.639606294215    -0.262860451717    12.000000000000
         H            3.708789742926    -0.135762294215     0.185244548283     1.007825032230
         H            1.106432742926     2.218531705785     1.184726548283     1.007825032230
         H            2.845546742926     2.027485705785     0.828775548283     1.007825032230
         H            1.688999742926     2.483867705785    -0.462902451717     1.007825032230
         H           -3.879789257074    -0.115752294215    -0.763331451717     1.007825032230
         H           -3.024579257074     1.451667705785    -0.637763451717     1.007825032230
         H           -3.720703257074     0.691004705785     0.815641548283     1.007825032230
         H           -1.107302257074    -1.947786294215     0.832163548283     1.007825032230
         H           -2.542313257074    -2.198742294215    -0.169816451717     1.007825032230
         H           -2.726871257074    -1.527387294215     1.468396548283     1.007825032230
         H            2.572085742926    -2.592454294215    -0.433283451717     1.007825032230

  Basis Set: AUG-CC-PVTZ
    Blend: AUG-CC-PVTZ
  Basis Set: (AUG-CC-PVTZ AUX)
    Blend: AUG-CC-PVTZ-JKFIT
	 Reference Energy          =    -509.8551426018958637 [Eh]
	 Singles Energy            =      -0.0000000000000000 [Eh]
	 Same-Spin Energy          =      -0.5446217285530804 [Eh]
	 Opposite-Spin Energy      =      -1.6967370069683576 [Eh]
	 Correlation Energy        =      -2.2413587355214379 [Eh]
	 Total Energy              =    -512.0965013374172941 [Eh]

	 ================> DF-SCS-MP2 Energies <==================
	-----------------------------------------------------------
	 SCS Same-Spin Scale       =       0.3333333333333333 [-]
	 SCS Opposite-Spin Scale   =       1.2000000000000000 [-]
	 SCS Same-Spin Energy      =      -0.1815405761843601 [Eh]
	 SCS Opposite-Spin Energy  =      -2.0360844083620289 [Eh]
	 SCS Correlation Energy    =      -2.2176249845463891 [Eh]
	 SCS Total Energy          =    -512.0727675864422963 [Eh]
	-----------------------------------------------------------

  Dipole Moment: [D]
     X:     0.7405      Y:    -0.0014      Z:     1.7194     Total:     1.8721

*** Psi4 exiting successfully. Buy a developer a beer!
