                               Psi4 1.4a3.dev225

  ==> Input File <==

--------------------------------------------------------------------------
#psi4
#
memory 32 gb

molecule  {
0 1
  O       -0.7670850     1.7208920    -0.4354900
  N        1.6863020     0.4747470     0.1388600
  N       -1.9291830    -0.1915810     0.0453950
  N        0.7639310    -1.5088640    -0.3477740
  C        0.5182450    -0.2160980    -0.0822800
  C       -0.7756170     0.5047820    -0.1623390
  C        2.7114570    -0.4276410     0.0208990
  C        1.8690977     1.9159181     0.4296394
  C       -3.1904980     0.5035560    -0.1598940
  C       -2.0503370    -1.5461500     0.5645390
  C        2.1210610    -1.6392390    -0.2794470
  H        3.7418240    -0.1353950     0.1686580
  H        1.1394670     2.2188990     1.1681400
  H        2.8785810     2.0278530     0.8121890
  H        1.7220340     2.4842350    -0.4794890
  H       -3.8467550    -0.1153850    -0.7799180
  H       -2.9915450     1.4520350    -0.6543500
  H       -3.6876690     0.6913720     0.7990550
  H       -1.0742680    -1.9474190     0.8155770
  H       -2.5092790    -2.1983750    -0.1864030
  H       -2.6938370    -1.5270200     1.4518100
  H        2.6051200    -2.5920870    -0.4498700
units angstrom
no_reorient  #important for SAPT in psi4, default
symmetry c1  #important for SAPT in psi4, default
}

set PROPERTIES_ORIGIN ["COM"]
properties('MP2/aug-cc-pvtz', properties = ['dipole'])
--------------------------------------------------------------------------

    Molecular point group: c1
  Charge       = 0
  Multiplicity = 1
  Basis Set: AUG-CC-PVTZ
    Blend: AUG-CC-PVTZ
  Basis Set: (AUG-CC-PVTZ AUX)
    Blend: AUG-CC-PVTZ-JKFIT

    Orbital Energies [Eh]
    ---------------------

    Doubly Occupied:

       1A    -20.517491     2A    -15.633087     3A    -15.591885
       4A    -15.560870     5A    -11.362763     6A    -11.304623
       7A    -11.272762     8A    -11.268725     9A    -11.255135
      10A    -11.252700    11A    -11.250757    12A     -1.379992
      13A     -1.340167    14A     -1.245249    15A     -1.185795
      16A     -1.031107    17A     -0.976815    18A     -0.966504
      19A     -0.938787    20A     -0.831259    21A     -0.809799
      22A     -0.740331    23A     -0.709077    24A     -0.661869
      25A     -0.654885    26A     -0.645331    27A     -0.639697
      28A     -0.606214    29A     -0.588991    30A     -0.574424
      31A     -0.565603    32A     -0.558285    33A     -0.556087
      34A     -0.553108    35A     -0.527441    36A     -0.523040
      37A     -0.450117    38A     -0.428821    39A     -0.391588
      40A     -0.373028    41A     -0.319965

  @DF-RHF Final Energy:  -509.86012276288875

   => Energetics <=

    Nuclear Repulsion Energy =            628.5827909744651834
    One-Electron Energy =               -1940.7974798843602002
    Two-Electron Energy =                 802.3545661470061532
    Total Energy =                       -509.8601227628887500
  Basis Set: (AUG-CC-PVTZ AUX)
    Blend: AUG-CC-PVTZ-RI
    Molecular point group: c1

    Geometry (in Angstrom), charge = 0, multiplicity = 1:

       Center              X                  Y                   Z               Mass
    ------------   -----------------  -----------------  -----------------  -----------------
         O           -0.797880663270     1.721773585106    -0.418534445762    15.994914619570
         N            1.655506336730     0.475628585106     0.155815554238    14.003074004430
         N           -1.959978663270    -0.190699414894     0.062350554238    14.003074004430
         N            0.733135336730    -1.507982414894    -0.330818445762    14.003074004430
         C            0.487449336730    -0.215216414894    -0.065324445762    12.000000000000
         C           -0.806412663270     0.505663585106    -0.145383445762    12.000000000000
         C            2.680661336730    -0.426759414894     0.037854554238    12.000000000000
         C            1.838302036730     1.916799685106     0.446594954238    12.000000000000
         C           -3.221293663270     0.504437585106    -0.142938445762    12.000000000000
         C           -2.081132663270    -1.545268414894     0.581494554238    12.000000000000
         C            2.090265336730    -1.638357414894    -0.262491445762    12.000000000000
         H            3.711028336730    -0.134513414894     0.185613554238     1.007825032230
         H            1.108671336730     2.219780585106     1.185095554238     1.007825032230
         H            2.847785336730     2.028734585106     0.829144554238     1.007825032230
         H            1.691238336730     2.485116585106    -0.462533445762     1.007825032230
         H           -3.877550663270    -0.114503414894    -0.762962445762     1.007825032230
         H           -3.022340663270     1.452916585106    -0.637394445762     1.007825032230
         H           -3.718464663270     0.692253585106     0.816010554238     1.007825032230
         H           -1.105063663270    -1.946537414894     0.832532554238     1.007825032230
         H           -2.540074663270    -2.197493414894    -0.169447445762     1.007825032230
         H           -2.724632663270    -1.526138414894     1.468765554238     1.007825032230
         H            2.574324336730    -2.591205414894    -0.432914445762     1.007825032230

  Basis Set: AUG-CC-PVTZ
    Blend: AUG-CC-PVTZ
  Basis Set: (AUG-CC-PVTZ AUX)
    Blend: AUG-CC-PVTZ-JKFIT
	 Reference Energy          =    -509.8601227628887500 [Eh]
	 Singles Energy            =      -0.0000000000000000 [Eh]
	 Same-Spin Energy          =      -0.5438439348287771 [Eh]
	 Opposite-Spin Energy      =      -1.6954630658262100 [Eh]
	 Correlation Energy        =      -2.2393070006549873 [Eh]
	 Total Energy              =    -512.0994297635437533 [Eh]

	 ================> DF-SCS-MP2 Energies <==================
	-----------------------------------------------------------
	 SCS Same-Spin Scale       =       0.3333333333333333 [-]
	 SCS Opposite-Spin Scale   =       1.2000000000000000 [-]
	 SCS Same-Spin Energy      =      -0.1812813116095924 [Eh]
	 SCS Opposite-Spin Energy  =      -2.0345556789914521 [Eh]
	 SCS Correlation Energy    =      -2.2158369906010442 [Eh]
	 SCS Total Energy          =    -512.0759597534897694 [Eh]
	-----------------------------------------------------------

  Dipole Moment: [D]
     X:     0.7586      Y:     0.0465      Z:     1.7284     Total:     1.8881

*** Psi4 exiting successfully. Buy a developer a beer!
