                               Psi4 1.3.2 release

  ==> Input File <==

--------------------------------------------------------------------------
#psi4
#
memory 32 gb

molecule  {
0 1
  O       -0.7453745     1.7202692    -0.4367186
  N        1.6863020     0.4747470     0.1388600
  N       -1.9291830    -0.1915810     0.0453950
  N        0.7639310    -1.5088640    -0.3477740
  C        0.5182450    -0.2160980    -0.0822800
  C       -0.7756170     0.5047820    -0.1623390
  C        2.7114570    -0.4276410     0.0208990
  C        1.8666300     1.8964630     0.4257140
  C       -3.1904980     0.5035560    -0.1598940
  C       -2.0503370    -1.5461500     0.5645390
  C        2.1210610    -1.6392390    -0.2794470
  H        3.7418240    -0.1353950     0.1686580
  H        1.1394670     2.2188990     1.1681400
  H        2.8785810     2.0278530     0.8121890
  H        1.7220340     2.4842350    -0.4794890
  H       -3.8467550    -0.1153850    -0.7799180
  H       -2.9915450     1.4520350    -0.6543500
  H       -3.6876690     0.6913720     0.7990550
  H       -1.0742680    -1.9474190     0.8155770
  H       -2.5092790    -2.1983750    -0.1864030
  H       -2.6938370    -1.5270200     1.4518100
  H        2.6051200    -2.5920870    -0.4498700
units angstrom
no_reorient  #important for SAPT in psi4, default
symmetry c1  #important for SAPT in psi4, default
}

set PROPERTIES_ORIGIN ["COM"]
properties('MP2/aug-cc-pvtz', properties = ['dipole'])
--------------------------------------------------------------------------

    Molecular point group: c1
  Charge       = 0
  Multiplicity = 1
  Basis Set: AUG-CC-PVTZ
    Blend: AUG-CC-PVTZ
  Basis Set: (AUG-CC-PVTZ AUX)
    Blend: AUG-CC-PVTZ-JKFIT

    Orbital Energies [Eh]
    ---------------------

    Doubly Occupied:

       1A    -20.518206     2A    -15.633025     3A    -15.593169
       4A    -15.560803     5A    -11.363313     6A    -11.304574
       7A    -11.271298     8A    -11.268712     9A    -11.255987
      10A    -11.253819    11A    -11.250776    12A     -1.380735
      13A     -1.341225    14A     -1.246917    15A     -1.188112
      16A     -1.031240    17A     -0.976129    18A     -0.967409
      19A     -0.939185    20A     -0.831390    21A     -0.810348
      22A     -0.741779    23A     -0.709993    24A     -0.662452
      25A     -0.655672    26A     -0.645961    27A     -0.639865
      28A     -0.605176    29A     -0.591685    30A     -0.574470
      31A     -0.563612    32A     -0.557394    33A     -0.554930
      34A     -0.553339    35A     -0.528046    36A     -0.523100
      37A     -0.450299    38A     -0.428841    39A     -0.390866
      40A     -0.374105    41A     -0.319906

  @DF-RHF Final Energy:  -509.86034290558814

   => Energetics <=

    Nuclear Repulsion Energy =            629.1107387634492625
    One-Electron Energy =               -1941.8264365727893619
    Two-Electron Energy =                 802.8553549037519588
    Total Energy =                       -509.8603429055881406
  Basis Set: (AUG-CC-PVTZ AUX)
    Blend: AUG-CC-PVTZ-RI
    Molecular point group: c1

    Geometry (in Angstrom), charge = 0, multiplicity = 1:

       Center              X                  Y                   Z               Mass
    ------------   -----------------  -----------------  -----------------  -----------------
         O           -0.778245052250     1.722740846480    -0.419326988151    15.994914619570
         N            1.653431447750     0.477218646480     0.156251611849    14.003074004430
         N           -1.962053552250    -0.189109353520     0.062786611849    14.003074004430
         N            0.731060447750    -1.506392353520    -0.330382388151    14.003074004430
         C            0.485374447750    -0.213626353520    -0.064888388151    12.000000000000
         C           -0.808487552250     0.507253646480    -0.144947388151    12.000000000000
         C            2.678586447750    -0.425169353520     0.038290611849    12.000000000000
         C            1.833759447750     1.898934646480     0.443105611849    12.000000000000
         C           -3.223368552250     0.506027646480    -0.142502388151    12.000000000000
         C           -2.083207552250    -1.543678353520     0.581930611849    12.000000000000
         C            2.088190447750    -1.636767353520    -0.262055388151    12.000000000000
         H            3.708953447750    -0.132923353520     0.186049611849     1.007825032230
         H            1.106596447750     2.221370646480     1.185531611849     1.007825032230
         H            2.845710447750     2.030324646480     0.829580611849     1.007825032230
         H            1.689163447750     2.486706646480    -0.462097388151     1.007825032230
         H           -3.879625552250    -0.112913353520    -0.762526388151     1.007825032230
         H           -3.024415552250     1.454506646480    -0.636958388151     1.007825032230
         H           -3.720539552250     0.693843646480     0.816446611849     1.007825032230
         H           -1.107138552250    -1.944947353520     0.832968611849     1.007825032230
         H           -2.542149552250    -2.195903353520    -0.169011388151     1.007825032230
         H           -2.726707552250    -1.524548353520     1.469201611849     1.007825032230
         H            2.572249447750    -2.589615353520    -0.432478388151     1.007825032230

  Basis Set: AUG-CC-PVTZ
    Blend: AUG-CC-PVTZ
  Basis Set: (AUG-CC-PVTZ AUX)
    Blend: AUG-CC-PVTZ-JKFIT
	 Reference Energy          =    -509.8603429055881406 [Eh]
	 Singles Energy            =      -0.0000000000000000 [Eh]
	 Same-Spin Energy          =      -0.5439365354047230 [Eh]
	 Opposite-Spin Energy      =      -1.6955008857418157 [Eh]
	 Correlation Energy        =      -2.2394374211465387 [Eh]
	 Total Energy              =    -512.0997803267347308 [Eh]

	 ================> DF-SCS-MP2 Energies <==================
	-----------------------------------------------------------
	 SCS Same-Spin Scale       =       0.3333333333333333 [-]
	 SCS Opposite-Spin Scale   =       1.2000000000000000 [-]
	 SCS Same-Spin Energy      =      -0.1813121784682410 [Eh]
	 SCS Opposite-Spin Energy  =      -2.0346010628901787 [Eh]
	 SCS Correlation Energy    =      -2.2159132413584199 [Eh]
	 SCS Total Energy          =    -512.0762561469465481 [Eh]
	-----------------------------------------------------------

  Dipole Moment: [D]
     X:     0.6563      Y:     0.0003      Z:     1.7196     Total:     1.8406

*** Psi4 exiting successfully. Buy a developer a beer!
