                               Psi4 1.3.2 release

  ==> Input File <==

--------------------------------------------------------------------------
#psi4
#
memory 32 gb

molecule  {
0 1
  O       -0.7670850     1.7208920    -0.4354900
  N        1.6863020     0.4747470     0.1388600
  N       -1.9291830    -0.1915810     0.0453950
  N        0.7639310    -1.5088640    -0.3477740
  C        0.5182450    -0.2160980    -0.0822800
  C       -0.8628461     0.5533820    -0.1677364
  C        2.7114570    -0.4276410     0.0208990
  C        1.8666300     1.8964630     0.4257140
  C       -3.1904980     0.5035560    -0.1598940
  C       -2.0503370    -1.5461500     0.5645390
  C        2.1210610    -1.6392390    -0.2794470
  H        3.7418240    -0.1353950     0.1686580
  H        1.1394670     2.2188990     1.1681400
  H        2.8785810     2.0278530     0.8121890
  H        1.7220340     2.4842350    -0.4794890
  H       -3.8467550    -0.1153850    -0.7799180
  H       -2.9915450     1.4520350    -0.6543500
  H       -3.6876690     0.6913720     0.7990550
  H       -1.0742680    -1.9474190     0.8155770
  H       -2.5092790    -2.1983750    -0.1864030
  H       -2.6938370    -1.5270200     1.4518100
  H        2.6051200    -2.5920870    -0.4498700
units angstrom
no_reorient  #important for SAPT in psi4, default
symmetry c1  #important for SAPT in psi4, default
}

set PROPERTIES_ORIGIN ["COM"]
properties('MP2/aug-cc-pvtz', properties = ['dipole'])
--------------------------------------------------------------------------

    Molecular point group: c1
  Charge       = 0
  Multiplicity = 1
  Basis Set: AUG-CC-PVTZ
    Blend: AUG-CC-PVTZ
  Basis Set: (AUG-CC-PVTZ AUX)
    Blend: AUG-CC-PVTZ-JKFIT

    Orbital Energies [Eh]
    ---------------------

    Doubly Occupied:

       1A    -20.523332     2A    -15.625043     3A    -15.597376
       4A    -15.550942     5A    -11.363363     6A    -11.300789
       7A    -11.268891     8A    -11.262420     9A    -11.259956
      10A    -11.257376    11A    -11.243711    12A     -1.406345
      13A     -1.337531    14A     -1.267636    15A     -1.181042
      16A     -1.016713    17A     -0.975895    18A     -0.971558
      19A     -0.946670    20A     -0.812853    21A     -0.799851
      22A     -0.740828    23A     -0.713038    24A     -0.667591
      25A     -0.665184    26A     -0.648912    27A     -0.638961
      28A     -0.600290    29A     -0.586573    30A     -0.580596
      31A     -0.561610    32A     -0.560136    33A     -0.556907
      34A     -0.550350    35A     -0.538192    36A     -0.532054
      37A     -0.446753    38A     -0.421169    39A     -0.386278
      40A     -0.384417    41A     -0.312570

  @DF-RHF Final Energy:  -509.85554023243913

   => Energetics <=

    Nuclear Repulsion Energy =            628.8227913329204739
    One-Electron Energy =               -1941.2332626663410338
    Two-Electron Energy =                 802.5549311009813209
    Total Energy =                       -509.8555402324391252
  Basis Set: (AUG-CC-PVTZ AUX)
    Blend: AUG-CC-PVTZ-RI
    Molecular point group: c1

    Geometry (in Angstrom), charge = 0, multiplicity = 1:

       Center              X                  Y                   Z               Mass
    ------------   -----------------  -----------------  -----------------  -----------------
         O           -0.790849765696     1.719489057601    -0.417803676638    15.994914619570
         N            1.662537234304     0.473344057601     0.156546323362    14.003074004430
         N           -1.952947765696    -0.192983942399     0.063081323362    14.003074004430
         N            0.740166234304    -1.510266942399    -0.330087676638    14.003074004430
         C            0.494480234304    -0.217500942399    -0.064593676638    12.000000000000
         C           -0.886610865696     0.551979057601    -0.150050076638    12.000000000000
         C            2.687692234304    -0.429043942399     0.038585323362    12.000000000000
         C            1.842865234304     1.895060057601     0.443400323362    12.000000000000
         C           -3.214262765696     0.502153057601    -0.142207676638    12.000000000000
         C           -2.074101765696    -1.547552942399     0.582225323362    12.000000000000
         C            2.097296234304    -1.640641942399    -0.261760676638    12.000000000000
         H            3.718059234304    -0.136797942399     0.186344323362     1.007825032230
         H            1.115702234304     2.217496057601     1.185826323362     1.007825032230
         H            2.854816234304     2.026450057601     0.829875323362     1.007825032230
         H            1.698269234304     2.482832057601    -0.461802676638     1.007825032230
         H           -3.870519765696    -0.116787942399    -0.762231676638     1.007825032230
         H           -3.015309765696     1.450632057601    -0.636663676638     1.007825032230
         H           -3.711433765696     0.689969057601     0.816741323362     1.007825032230
         H           -1.098032765696    -1.948821942399     0.833263323362     1.007825032230
         H           -2.533043765696    -2.199777942399    -0.168716676638     1.007825032230
         H           -2.717601765696    -1.528422942399     1.469496323362     1.007825032230
         H            2.581355234304    -2.593489942399    -0.432183676638     1.007825032230

  Basis Set: AUG-CC-PVTZ
    Blend: AUG-CC-PVTZ
  Basis Set: (AUG-CC-PVTZ AUX)
    Blend: AUG-CC-PVTZ-JKFIT
	 Reference Energy          =    -509.8555402324391252 [Eh]
	 Singles Energy            =      -0.0000000000000000 [Eh]
	 Same-Spin Energy          =      -0.5420555184113628 [Eh]
	 Opposite-Spin Energy      =      -1.6923393338302049 [Eh]
	 Correlation Energy        =      -2.2343948522415675 [Eh]
	 Total Energy              =    -512.0899350846807465 [Eh]

	 ================> DF-SCS-MP2 Energies <==================
	-----------------------------------------------------------
	 SCS Same-Spin Scale       =       0.3333333333333333 [-]
	 SCS Opposite-Spin Scale   =       1.2000000000000000 [-]
	 SCS Same-Spin Energy      =      -0.1806851728037876 [Eh]
	 SCS Opposite-Spin Energy  =      -2.0308072005962456 [Eh]
	 SCS Correlation Energy    =      -2.2114923734000334 [Eh]
	 SCS Total Energy          =    -512.0670326058391311 [Eh]
	-----------------------------------------------------------

  Dipole Moment: [D]
     X:    -0.0108      Y:     0.1965      Z:     1.7235     Total:     1.7347

*** Psi4 exiting successfully. Buy a developer a beer!
