                               Psi4 1.3.2 release

  ==> Input File <==

--------------------------------------------------------------------------
#psi4
#
memory 32 gb

molecule  {
0 1
  O       -0.7670850     1.7208920    -0.4354900
  N        1.6863020     0.4747470     0.1388600
  N       -1.9291830    -0.1915810     0.0453950
  N        0.7639310    -1.5088640    -0.3477740
  C        0.5182450    -0.2160980    -0.0822800
  C       -0.7756170     0.5047820    -0.1623390
  C        2.8006402    -0.3183533     0.0471868
  C        1.8666300     1.8964630     0.4257140
  C       -3.1904980     0.5035560    -0.1598940
  C       -2.0503370    -1.5461500     0.5645390
  C        2.1210610    -1.6392390    -0.2794470
  H        3.7418240    -0.1353950     0.1686580
  H        1.1394670     2.2188990     1.1681400
  H        2.8785810     2.0278530     0.8121890
  H        1.7220340     2.4842350    -0.4794890
  H       -3.8467550    -0.1153850    -0.7799180
  H       -2.9915450     1.4520350    -0.6543500
  H       -3.6876690     0.6913720     0.7990550
  H       -1.0742680    -1.9474190     0.8155770
  H       -2.5092790    -2.1983750    -0.1864030
  H       -2.6938370    -1.5270200     1.4518100
  H        2.6051200    -2.5920870    -0.4498700
units angstrom
no_reorient  #important for SAPT in psi4, default
symmetry c1  #important for SAPT in psi4, default
}

set PROPERTIES_ORIGIN ["COM"]
properties('MP2/aug-cc-pvtz', properties = ['dipole'])
--------------------------------------------------------------------------

    Molecular point group: c1
  Charge       = 0
  Multiplicity = 1
  Basis Set: AUG-CC-PVTZ
    Blend: AUG-CC-PVTZ
  Basis Set: (AUG-CC-PVTZ AUX)
    Blend: AUG-CC-PVTZ-JKFIT

    Orbital Energies [Eh]
    ---------------------

    Doubly Occupied:

       1A    -20.516364     2A    -15.645150     3A    -15.591776
       4A    -15.568342     5A    -11.363085     6A    -11.304632
       7A    -11.276997     8A    -11.270907     9A    -11.268786
      10A    -11.255953    11A    -11.252743    12A     -1.379407
      13A     -1.338067    14A     -1.245457    15A     -1.193450
      16A     -1.023355    17A     -0.975542    18A     -0.966966
      19A     -0.938915    20A     -0.834407    21A     -0.819975
      22A     -0.740005    23A     -0.712690    24A     -0.677965
      25A     -0.657488    26A     -0.653611    27A     -0.640110
      28A     -0.614128    29A     -0.583705    30A     -0.574420
      31A     -0.562701    32A     -0.553885    33A     -0.553097
      34A     -0.545540    35A     -0.526536    36A     -0.520289
      37A     -0.450327    38A     -0.428559    39A     -0.397651
      40A     -0.373084    41A     -0.303476

  @DF-RHF Final Energy:  -509.82483611509559

   => Energetics <=

    Nuclear Repulsion Energy =            627.0618854831670888
    One-Electron Energy =               -1937.5743544122615276
    Two-Electron Energy =                 800.6876328139987891
    Total Energy =                       -509.8248361150956498
  Basis Set: (AUG-CC-PVTZ AUX)
    Blend: AUG-CC-PVTZ-RI
    Molecular point group: c1

    Geometry (in Angstrom), charge = 0, multiplicity = 1:

       Center              X                  Y                   Z               Mass
    ------------   -----------------  -----------------  -----------------  -----------------
         O           -0.804677871181     1.714732042829    -0.420287325952    15.994914619570
         N            1.648709128819     0.468587042829     0.154062674048    14.003074004430
         N           -1.966775871181    -0.197740957171     0.060597674048    14.003074004430
         N            0.726338128819    -1.515023957171    -0.332571325952    14.003074004430
         C            0.480652128819    -0.222257957171    -0.067077325952    12.000000000000
         C           -0.813209871181     0.498622042829    -0.147136325952    12.000000000000
         C            2.763047328819    -0.324513257171     0.062389474048    12.000000000000
         C            1.829037128819     1.890303042829     0.440916674048    12.000000000000
         C           -3.228090871181     0.497396042829    -0.144691325952    12.000000000000
         C           -2.087929871181    -1.552309957171     0.579741674048    12.000000000000
         C            2.083468128819    -1.645398957171    -0.264244325952    12.000000000000
         H            3.704231128819    -0.141554957171     0.183860674048     1.007825032230
         H            1.101874128819     2.212739042829     1.183342674048     1.007825032230
         H            2.840988128819     2.021693042829     0.827391674048     1.007825032230
         H            1.684441128819     2.478075042829    -0.464286325952     1.007825032230
         H           -3.884347871181    -0.121544957171    -0.764715325952     1.007825032230
         H           -3.029137871181     1.445875042829    -0.639147325952     1.007825032230
         H           -3.725261871181     0.685212042829     0.814257674048     1.007825032230
         H           -1.111860871181    -1.953578957171     0.830779674048     1.007825032230
         H           -2.546871871181    -2.204534957171    -0.171200325952     1.007825032230
         H           -2.731429871181    -1.533179957171     1.467012674048     1.007825032230
         H            2.567527128819    -2.598246957171    -0.434667325952     1.007825032230

  Basis Set: AUG-CC-PVTZ
    Blend: AUG-CC-PVTZ
  Basis Set: (AUG-CC-PVTZ AUX)
    Blend: AUG-CC-PVTZ-JKFIT
	 Reference Energy          =    -509.8248361150955930 [Eh]
	 Singles Energy            =      -0.0000000000000000 [Eh]
	 Same-Spin Energy          =      -0.5463568995279682 [Eh]
	 Opposite-Spin Energy      =      -1.7003610017470892 [Eh]
	 Correlation Energy        =      -2.2467179012750575 [Eh]
	 Total Energy              =    -512.0715540163706692 [Eh]

	 ================> DF-SCS-MP2 Energies <==================
	-----------------------------------------------------------
	 SCS Same-Spin Scale       =       0.3333333333333333 [-]
	 SCS Opposite-Spin Scale   =       1.2000000000000000 [-]
	 SCS Same-Spin Energy      =      -0.1821189665093227 [Eh]
	 SCS Opposite-Spin Energy  =      -2.0404332020965068 [Eh]
	 SCS Correlation Energy    =      -2.2225521686058296 [Eh]
	 SCS Total Energy          =    -512.0473882837013662 [Eh]
	-----------------------------------------------------------

  Dipole Moment: [D]
     X:     0.6893      Y:    -0.0164      Z:     1.7170     Total:     1.8503

*** Psi4 exiting successfully. Buy a developer a beer!
