                               Psi4 1.3.2 release

  ==> Input File <==

--------------------------------------------------------------------------
#psi4
#
memory 32 gb

molecule  {
0 1
  O       -0.7670850     1.7208920    -0.4354900
  N        1.8299117     0.4549069     0.1877064
  N       -1.9291830    -0.1915810     0.0453950
  N        0.7639310    -1.5088640    -0.3477740
  C        0.5182450    -0.2160980    -0.0822800
  C       -0.7756170     0.5047820    -0.1623390
  C        2.7114570    -0.4276410     0.0208990
  C        1.8666300     1.8964630     0.4257140
  C       -3.1904980     0.5035560    -0.1598940
  C       -2.0503370    -1.5461500     0.5645390
  C        2.1210610    -1.6392390    -0.2794470
  H        3.7418240    -0.1353950     0.1686580
  H        1.1394670     2.2188990     1.1681400
  H        2.8785810     2.0278530     0.8121890
  H        1.7220340     2.4842350    -0.4794890
  H       -3.8467550    -0.1153850    -0.7799180
  H       -2.9915450     1.4520350    -0.6543500
  H       -3.6876690     0.6913720     0.7990550
  H       -1.0742680    -1.9474190     0.8155770
  H       -2.5092790    -2.1983750    -0.1864030
  H       -2.6938370    -1.5270200     1.4518100
  H        2.6051200    -2.5920870    -0.4498700
units angstrom
no_reorient  #important for SAPT in psi4, default
symmetry c1  #important for SAPT in psi4, default
}

set PROPERTIES_ORIGIN ["COM"]
properties('MP2/aug-cc-pvtz', properties = ['dipole'])
--------------------------------------------------------------------------

    Molecular point group: c1
  Charge       = 0
  Multiplicity = 1
  Basis Set: AUG-CC-PVTZ
    Blend: AUG-CC-PVTZ
  Basis Set: (AUG-CC-PVTZ AUX)
    Blend: AUG-CC-PVTZ-JKFIT

    Orbital Energies [Eh]
    ---------------------

    Doubly Occupied:

       1A    -20.513909     2A    -15.635227     3A    -15.590049
       4A    -15.575966     5A    -11.362684     6A    -11.303013
       7A    -11.275031     8A    -11.272436     9A    -11.254892
      10A    -11.251803    11A    -11.242651    12A     -1.376548
      13A     -1.348623    14A     -1.243997    15A     -1.201989
      16A     -1.037160    17A     -0.978434    18A     -0.963978
      19A     -0.928854    20A     -0.834949    21A     -0.807290
      22A     -0.745737    23A     -0.711043    24A     -0.668471
      25A     -0.656859    26A     -0.647941    27A     -0.642156
      28A     -0.604718    29A     -0.595100    30A     -0.571502
      31A     -0.558470    32A     -0.554596    33A     -0.552448
      34A     -0.547678    35A     -0.526187    36A     -0.523749
      37A     -0.454688    38A     -0.427478    39A     -0.409581
      40A     -0.371886    41A     -0.304995

  @DF-RHF Final Energy:  -509.83275451145926

   => Energetics <=

    Nuclear Repulsion Energy =            627.4728507090904941
    One-Electron Energy =               -1938.4616811677537953
    Two-Electron Energy =                 801.1560759472041582
    Total Energy =                       -509.8327545114592567
  Basis Set: (AUG-CC-PVTZ AUX)
    Blend: AUG-CC-PVTZ-RI
    Molecular point group: c1

    Geometry (in Angstrom), charge = 0, multiplicity = 1:

       Center              X                  Y                   Z               Mass
    ------------   -----------------  -----------------  -----------------  -----------------
         O           -0.810823129226     1.725113338719    -0.422694704904    15.994914619570
         N            1.786173570774     0.459128238719     0.200501695096    14.003074004430
         N           -1.972921129226    -0.187359661281     0.058190295096    14.003074004430
         N            0.720192870774    -1.504642661281    -0.334978704904    14.003074004430
         C            0.474506870774    -0.211876661281    -0.069484704904    12.000000000000
         C           -0.819355129226     0.509003338719    -0.149543704904    12.000000000000
         C            2.667718870774    -0.423419661281     0.033694295096    12.000000000000
         C            1.822891870774     1.900684338719     0.438509295096    12.000000000000
         C           -3.234236129226     0.507777338719    -0.147098704904    12.000000000000
         C           -2.094075129226    -1.541928661281     0.577334295096    12.000000000000
         C            2.077322870774    -1.635017661281    -0.266651704904    12.000000000000
         H            3.698085870774    -0.131173661281     0.181453295096     1.007825032230
         H            1.095728870774     2.223120338719     1.180935295096     1.007825032230
         H            2.834842870774     2.032074338719     0.824984295096     1.007825032230
         H            1.678295870774     2.488456338719    -0.466693704904     1.007825032230
         H           -3.890493129226    -0.111163661281    -0.767122704904     1.007825032230
         H           -3.035283129226     1.456256338719    -0.641554704904     1.007825032230
         H           -3.731407129226     0.695593338719     0.811850295096     1.007825032230
         H           -1.118006129226    -1.943197661281     0.828372295096     1.007825032230
         H           -2.553017129226    -2.194153661281    -0.173607704904     1.007825032230
         H           -2.737575129226    -1.522798661281     1.464605295096     1.007825032230
         H            2.561381870774    -2.587865661281    -0.437074704904     1.007825032230

  Basis Set: AUG-CC-PVTZ
    Blend: AUG-CC-PVTZ
  Basis Set: (AUG-CC-PVTZ AUX)
    Blend: AUG-CC-PVTZ-JKFIT
	 Reference Energy          =    -509.8327545114592567 [Eh]
	 Singles Energy            =      -0.0000000000000000 [Eh]
	 Same-Spin Energy          =      -0.5450610321113928 [Eh]
	 Opposite-Spin Energy      =      -1.6968566588942608 [Eh]
	 Correlation Energy        =      -2.2419176910056535 [Eh]
	 Total Energy              =    -512.0746722024648534 [Eh]

	 ================> DF-SCS-MP2 Energies <==================
	-----------------------------------------------------------
	 SCS Same-Spin Scale       =       0.3333333333333333 [-]
	 SCS Opposite-Spin Scale   =       1.2000000000000000 [-]
	 SCS Same-Spin Energy      =      -0.1816870107037976 [Eh]
	 SCS Opposite-Spin Energy  =      -2.0362279906731131 [Eh]
	 SCS Correlation Energy    =      -2.2179150013769107 [Eh]
	 SCS Total Energy          =    -512.0506695128361798 [Eh]
	-----------------------------------------------------------

  Dipole Moment: [D]
     X:     0.7469      Y:     0.0617      Z:     1.6994     Total:     1.8573

*** Psi4 exiting successfully. Buy a developer a beer!
