                               Psi4 1.3.2 release

  ==> Input File <==

--------------------------------------------------------------------------
#psi4
#
memory 32 gb

molecule  {
0 1
  O       -0.7670850     1.7208920    -0.4354900
  N        1.6863020     0.4747470     0.1388600
  N       -1.9291830    -0.1915810     0.0453950
  N        0.7412867    -1.5118874    -0.3529731
  C        0.5182450    -0.2160980    -0.0822800
  C       -0.7756170     0.5047820    -0.1623390
  C        2.7114570    -0.4276410     0.0208990
  C        1.8666300     1.8964630     0.4257140
  C       -3.1904980     0.5035560    -0.1598940
  C       -2.0503370    -1.5461500     0.5645390
  C        2.1210610    -1.6392390    -0.2794470
  H        3.7418240    -0.1353950     0.1686580
  H        1.1394670     2.2188990     1.1681400
  H        2.8785810     2.0278530     0.8121890
  H        1.7220340     2.4842350    -0.4794890
  H       -3.8467550    -0.1153850    -0.7799180
  H       -2.9915450     1.4520350    -0.6543500
  H       -3.6876690     0.6913720     0.7990550
  H       -1.0742680    -1.9474190     0.8155770
  H       -2.5092790    -2.1983750    -0.1864030
  H       -2.6938370    -1.5270200     1.4518100
  H        2.6051200    -2.5920870    -0.4498700
units angstrom
no_reorient  #important for SAPT in psi4, default
symmetry c1  #important for SAPT in psi4, default
}

set PROPERTIES_ORIGIN ["COM"]
properties('MP2/aug-cc-pvtz', properties = ['dipole'])
--------------------------------------------------------------------------

    Molecular point group: c1
  Charge       = 0
  Multiplicity = 1
  Basis Set: AUG-CC-PVTZ
    Blend: AUG-CC-PVTZ
  Basis Set: (AUG-CC-PVTZ AUX)
    Blend: AUG-CC-PVTZ-JKFIT

    Orbital Energies [Eh]
    ---------------------

    Doubly Occupied:

       1A    -20.517796     2A    -15.633163     3A    -15.592093
       4A    -15.564349     5A    -11.362731     6A    -11.306890
       7A    -11.272239     8A    -11.270504     9A    -11.254948
      10A    -11.253445    11A    -11.252814    12A     -1.380403
      13A     -1.340143    14A     -1.245517    15A     -1.185959
      16A     -1.032293    17A     -0.975932    18A     -0.966503
      19A     -0.938546    20A     -0.832294    21A     -0.810687
      22A     -0.740254    23A     -0.709666    24A     -0.662208
      25A     -0.654865    26A     -0.645748    27A     -0.639872
      28A     -0.604191    29A     -0.592145    30A     -0.573561
      31A     -0.563430    32A     -0.556472    33A     -0.554327
      34A     -0.552722    35A     -0.527298    36A     -0.522547
      37A     -0.453432    38A     -0.428945    39A     -0.389844
      40A     -0.373019    41A     -0.321996

  @DF-RHF Final Energy:  -509.85914804762893

   => Energetics <=

    Nuclear Repulsion Energy =            628.7266058810984077
    One-Electron Energy =               -1941.0599312861027101
    Two-Electron Energy =                 802.4741773573755381
    Total Energy =                       -509.8591480476288780
  Basis Set: (AUG-CC-PVTZ AUX)
    Blend: AUG-CC-PVTZ-RI
    Molecular point group: c1

    Geometry (in Angstrom), charge = 0, multiplicity = 1:

       Center              X                  Y                   Z               Mass
    ------------   -----------------  -----------------  -----------------  -----------------
         O           -0.795615971072     1.723575124802    -0.417751193975    15.994914619570
         N            1.657771028928     0.477430124802     0.156598806025    14.003074004430
         N           -1.957713971072    -0.188897875198     0.063133806025    14.003074004430
         N            0.712755728928    -1.509204275198    -0.335234293975    14.003074004430
         C            0.489714028928    -0.213414875198    -0.064541193975    12.000000000000
         C           -0.804147971072     0.507465124802    -0.144600193975    12.000000000000
         C            2.682926028928    -0.424957875198     0.038637806025    12.000000000000
         C            1.838099028928     1.899146124802     0.443452806025    12.000000000000
         C           -3.219028971072     0.506239124802    -0.142155193975    12.000000000000
         C           -2.078867971072    -1.543466875198     0.582277806025    12.000000000000
         C            2.092530028928    -1.636555875198    -0.261708193975    12.000000000000
         H            3.713293028928    -0.132711875198     0.186396806025     1.007825032230
         H            1.110936028928     2.221582124802     1.185878806025     1.007825032230
         H            2.850050028928     2.030536124802     0.829927806025     1.007825032230
         H            1.693503028928     2.486918124802    -0.461750193975     1.007825032230
         H           -3.875285971072    -0.112701875198    -0.762179193975     1.007825032230
         H           -3.020075971072     1.454718124802    -0.636611193975     1.007825032230
         H           -3.716199971072     0.694055124802     0.816793806025     1.007825032230
         H           -1.102798971072    -1.944735875198     0.833315806025     1.007825032230
         H           -2.537809971072    -2.195691875198    -0.168664193975     1.007825032230
         H           -2.722367971072    -1.524336875198     1.469548806025     1.007825032230
         H            2.576589028928    -2.589403875198    -0.432131193975     1.007825032230

  Basis Set: AUG-CC-PVTZ
    Blend: AUG-CC-PVTZ
  Basis Set: (AUG-CC-PVTZ AUX)
    Blend: AUG-CC-PVTZ-JKFIT
	 Reference Energy          =    -509.8591480476289348 [Eh]
	 Singles Energy            =      -0.0000000000000000 [Eh]
	 Same-Spin Energy          =      -0.5438919078367909 [Eh]
	 Opposite-Spin Energy      =      -1.6959884582001061 [Eh]
	 Correlation Energy        =      -2.2398803660368971 [Eh]
	 Total Energy              =    -512.0990284136657920 [Eh]

	 ================> DF-SCS-MP2 Energies <==================
	-----------------------------------------------------------
	 SCS Same-Spin Scale       =       0.3333333333333333 [-]
	 SCS Opposite-Spin Scale   =       1.2000000000000000 [-]
	 SCS Same-Spin Energy      =      -0.1812973026122636 [Eh]
	 SCS Opposite-Spin Energy  =      -2.0351861498401274 [Eh]
	 SCS Correlation Energy    =      -2.2164834524523909 [Eh]
	 SCS Total Energy          =    -512.0756315000812720 [Eh]
	-----------------------------------------------------------

  Dipole Moment: [D]
     X:     0.7766      Y:     0.0171      Z:     1.7275     Total:     1.8941

*** Psi4 exiting successfully. Buy a developer a beer!
