                               Psi4 1.3.2 release

  ==> Input File <==

--------------------------------------------------------------------------
#psi4
#
memory 32 gb

molecule  {
0 1
  O       -0.7670850     1.7208920    -0.4354900
  N        1.6863020     0.4747470     0.1388600
  N       -1.9291830    -0.1915810     0.0453950
  N        0.7639310    -1.5088640    -0.3477740
  C        0.5182450    -0.2160980    -0.0822800
  C       -0.7756170     0.5047820    -0.1623390
  C        2.6110420    -0.5270419    -0.0040964
  C        1.8666300     1.8964630     0.4257140
  C       -3.1904980     0.5035560    -0.1598940
  C       -2.0503370    -1.5461500     0.5645390
  C        2.1210610    -1.6392390    -0.2794470
  H        3.7418240    -0.1353950     0.1686580
  H        1.1394670     2.2188990     1.1681400
  H        2.8785810     2.0278530     0.8121890
  H        1.7220340     2.4842350    -0.4794890
  H       -3.8467550    -0.1153850    -0.7799180
  H       -2.9915450     1.4520350    -0.6543500
  H       -3.6876690     0.6913720     0.7990550
  H       -1.0742680    -1.9474190     0.8155770
  H       -2.5092790    -2.1983750    -0.1864030
  H       -2.6938370    -1.5270200     1.4518100
  H        2.6051200    -2.5920870    -0.4498700
units angstrom
no_reorient  #important for SAPT in psi4, default
symmetry c1  #important for SAPT in psi4, default
}

set PROPERTIES_ORIGIN ["COM"]
properties('MP2/aug-cc-pvtz', properties = ['dipole'])
--------------------------------------------------------------------------

    Molecular point group: c1
  Charge       = 0
  Multiplicity = 1
  Basis Set: AUG-CC-PVTZ
    Blend: AUG-CC-PVTZ
  Basis Set: (AUG-CC-PVTZ AUX)
    Blend: AUG-CC-PVTZ-JKFIT

    Orbital Energies [Eh]
    ---------------------

    Doubly Occupied:

       1A    -20.519339     2A    -15.624982     3A    -15.592780
       4A    -15.556614     5A    -11.363468     6A    -11.307523
       7A    -11.273737     8A    -11.262124     9A    -11.255220
      10A    -11.253232    11A    -11.231646    12A     -1.382962
      13A     -1.349804    14A     -1.246013    15A     -1.188184
      16A     -1.046323    17A     -0.977467    18A     -0.967294
      19A     -0.942660    20A     -0.844904    21A     -0.792893
      22A     -0.746874    23A     -0.707215    24A     -0.662959
      25A     -0.657084    26A     -0.641974    27A     -0.637379
      28A     -0.612851    29A     -0.588509    30A     -0.574789
      31A     -0.561855    32A     -0.557540    33A     -0.553531
      34A     -0.540819    35A     -0.528380    36A     -0.524605
      37A     -0.447946    38A     -0.428607    39A     -0.388163
      40A     -0.373798    41A     -0.341015

  @DF-RHF Final Energy:  -509.83071188077736

   => Energetics <=

    Nuclear Repulsion Energy =            631.4244707762311464
    One-Electron Energy =               -1946.4002412437023395
    Two-Electron Energy =                 805.1450585866938354
    Total Energy =                       -509.8307118807773577
  Basis Set: (AUG-CC-PVTZ AUX)
    Blend: AUG-CC-PVTZ-RI
    Molecular point group: c1

    Geometry (in Angstrom), charge = 0, multiplicity = 1:

       Center              X                  Y                   Z               Mass
    ------------   -----------------  -----------------  -----------------  -----------------
         O           -0.789816186881     1.731090131092    -0.416267484370    15.994914619570
         N            1.663570813119     0.484945131092     0.158082515630    14.003074004430
         N           -1.951914186881    -0.181382868908     0.064617515630    14.003074004430
         N            0.741199813119    -1.498665868908    -0.328551484370    14.003074004430
         C            0.495513813119    -0.205899868908    -0.063057484370    12.000000000000
         C           -0.798348186881     0.514980131092    -0.143116484370    12.000000000000
         C            2.588310813119    -0.516843768908     0.015126115630    12.000000000000
         C            1.843898813119     1.906661131092     0.444936515630    12.000000000000
         C           -3.213229186881     0.513754131092    -0.140671484370    12.000000000000
         C           -2.073068186881    -1.535951868908     0.583761515630    12.000000000000
         C            2.098329813119    -1.629040868908    -0.260224484370    12.000000000000
         H            3.719092813119    -0.125196868908     0.187880515630     1.007825032230
         H            1.116735813119     2.229097131092     1.187362515630     1.007825032230
         H            2.855849813119     2.038051131092     0.831411515630     1.007825032230
         H            1.699302813119     2.494433131092    -0.460266484370     1.007825032230
         H           -3.869486186881    -0.105186868908    -0.760695484370     1.007825032230
         H           -3.014276186881     1.462233131092    -0.635127484370     1.007825032230
         H           -3.710400186881     0.701570131092     0.818277515630     1.007825032230
         H           -1.096999186881    -1.937220868908     0.834799515630     1.007825032230
         H           -2.532010186881    -2.188176868908    -0.167180484370     1.007825032230
         H           -2.716568186881    -1.516821868908     1.471032515630     1.007825032230
         H            2.582388813119    -2.581888868908    -0.430647484370     1.007825032230

  Basis Set: AUG-CC-PVTZ
    Blend: AUG-CC-PVTZ
  Basis Set: (AUG-CC-PVTZ AUX)
    Blend: AUG-CC-PVTZ-JKFIT
	 Reference Energy          =    -509.8307118807773577 [Eh]
	 Singles Energy            =      -0.0000000000000000 [Eh]
	 Same-Spin Energy          =      -0.5428187935277408 [Eh]
	 Opposite-Spin Energy      =      -1.6940477766404052 [Eh]
	 Correlation Energy        =      -2.2368665701681461 [Eh]
	 Total Energy              =    -512.0675784509454616 [Eh]

	 ================> DF-SCS-MP2 Energies <==================
	-----------------------------------------------------------
	 SCS Same-Spin Scale       =       0.3333333333333333 [-]
	 SCS Opposite-Spin Scale   =       1.2000000000000000 [-]
	 SCS Same-Spin Energy      =      -0.1809395978425802 [Eh]
	 SCS Opposite-Spin Energy  =      -2.0328573319684859 [Eh]
	 SCS Correlation Energy    =      -2.2137969298110662 [Eh]
	 SCS Total Energy          =    -512.0445088105884679 [Eh]
	-----------------------------------------------------------

  Dipole Moment: [D]
     X:     0.6340      Y:    -0.0599      Z:     1.6936     Total:     1.8094

*** Psi4 exiting successfully. Buy a developer a beer!
