                               Psi4 1.3.2 release

  ==> Input File <==

--------------------------------------------------------------------------
#psi4
#
memory 32 gb

molecule  {
0 1
  O       -0.7670850     1.7208920    -0.4354900
  N        1.6863020     0.4747470     0.1388600
  N       -1.9291830    -0.1915810     0.0453950
  N        0.8536911    -1.4928434    -0.3261850
  C        0.5182450    -0.2160980    -0.0822800
  C       -0.7756170     0.5047820    -0.1623390
  C        2.7114570    -0.4276410     0.0208990
  C        1.8666300     1.8964630     0.4257140
  C       -3.1904980     0.5035560    -0.1598940
  C       -2.0503370    -1.5461500     0.5645390
  C        2.1210610    -1.6392390    -0.2794470
  H        3.7418240    -0.1353950     0.1686580
  H        1.1394670     2.2188990     1.1681400
  H        2.8785810     2.0278530     0.8121890
  H        1.7220340     2.4842350    -0.4794890
  H       -3.8467550    -0.1153850    -0.7799180
  H       -2.9915450     1.4520350    -0.6543500
  H       -3.6876690     0.6913720     0.7990550
  H       -1.0742680    -1.9474190     0.8155770
  H       -2.5092790    -2.1983750    -0.1864030
  H       -2.6938370    -1.5270200     1.4518100
  H        2.6051200    -2.5920870    -0.4498700
units angstrom
no_reorient  #important for SAPT in psi4, default
symmetry c1  #important for SAPT in psi4, default
}

set PROPERTIES_ORIGIN ["COM"]
properties('MP2/aug-cc-pvtz', properties = ['dipole'])
--------------------------------------------------------------------------

    Molecular point group: c1
  Charge       = 0
  Multiplicity = 1
  Basis Set: AUG-CC-PVTZ
    Blend: AUG-CC-PVTZ
  Basis Set: (AUG-CC-PVTZ AUX)
    Blend: AUG-CC-PVTZ-JKFIT

    Orbital Energies [Eh]
    ---------------------

    Doubly Occupied:

       1A    -20.516906     2A    -15.636402     3A    -15.591761
       4A    -15.549719     5A    -11.364081     6A    -11.299486
       7A    -11.271056     8A    -11.265137     9A    -11.256847
      10A    -11.252763    11A    -11.242745    12A     -1.381779
      13A     -1.351163    14A     -1.245339    15A     -1.201560
      16A     -1.031010    17A     -0.979229    18A     -0.967293
      19A     -0.939961    20A     -0.830326    21A     -0.811821
      22A     -0.748468    23A     -0.710175    24A     -0.665216
      25A     -0.657678    26A     -0.646464    27A     -0.640640
      28A     -0.611821    29A     -0.593503    30A     -0.576775
      31A     -0.565298    32A     -0.560045    33A     -0.556503
      34A     -0.553852    35A     -0.527439    36A     -0.524391
      37A     -0.440740    38A     -0.424214    39A     -0.399574
      40A     -0.373496    41A     -0.314541

  @DF-RHF Final Energy:  -509.85444228148339

   => Energetics <=

    Nuclear Repulsion Energy =            630.1981702003595274
    One-Electron Energy =               -1943.9507881902852660
    Two-Electron Energy =                 803.8981757084422952
    Total Energy =                       -509.8544422814834434
  Basis Set: (AUG-CC-PVTZ AUX)
    Blend: AUG-CC-PVTZ-RI
    Molecular point group: c1

    Geometry (in Angstrom), charge = 0, multiplicity = 1:

       Center              X                  Y                   Z               Mass
    ------------   -----------------  -----------------  -----------------  -----------------
         O           -0.805897537158     1.721833181030    -0.420201486138    15.994914619570
         N            1.647489462842     0.475688181030     0.154148513862    14.003074004430
         N           -1.967995537158    -0.190639818970     0.060683513862    14.003074004430
         N            0.814878562842    -1.491902218970    -0.310896486138    14.003074004430
         C            0.479432462842    -0.215156818970    -0.066991486138    12.000000000000
         C           -0.814429537158     0.505723181030    -0.147050486138    12.000000000000
         C            2.672644462842    -0.426699818970     0.036187513862    12.000000000000
         C            1.827817462842     1.897404181030     0.441002513862    12.000000000000
         C           -3.229310537158     0.504497181030    -0.144605486138    12.000000000000
         C           -2.089149537158    -1.545208818970     0.579827513862    12.000000000000
         C            2.082248462842    -1.638297818970    -0.264158486138    12.000000000000
         H            3.703011462842    -0.134453818970     0.183946513862     1.007825032230
         H            1.100654462842     2.219840181030     1.183428513862     1.007825032230
         H            2.839768462842     2.028794181030     0.827477513862     1.007825032230
         H            1.683221462842     2.485176181030    -0.464200486138     1.007825032230
         H           -3.885567537158    -0.114443818970    -0.764629486138     1.007825032230
         H           -3.030357537158     1.452976181030    -0.639061486138     1.007825032230
         H           -3.726481537158     0.692313181030     0.814343513862     1.007825032230
         H           -1.113080537158    -1.946477818970     0.830865513862     1.007825032230
         H           -2.548091537158    -2.197433818970    -0.171114486138     1.007825032230
         H           -2.732649537158    -1.526078818970     1.467098513862     1.007825032230
         H            2.566307462842    -2.591145818970    -0.434581486138     1.007825032230

  Basis Set: AUG-CC-PVTZ
    Blend: AUG-CC-PVTZ
  Basis Set: (AUG-CC-PVTZ AUX)
    Blend: AUG-CC-PVTZ-JKFIT
	 Reference Energy          =    -509.8544422814833865 [Eh]
	 Singles Energy            =      -0.0000000000000000 [Eh]
	 Same-Spin Energy          =      -0.5443370162411928 [Eh]
	 Opposite-Spin Energy      =      -1.6940717923411452 [Eh]
	 Correlation Energy        =      -2.2384088085823381 [Eh]
	 Total Energy              =    -512.0928510900657784 [Eh]

	 ================> DF-SCS-MP2 Energies <==================
	-----------------------------------------------------------
	 SCS Same-Spin Scale       =       0.3333333333333333 [-]
	 SCS Opposite-Spin Scale   =       1.2000000000000000 [-]
	 SCS Same-Spin Energy      =      -0.1814456720803976 [Eh]
	 SCS Opposite-Spin Energy  =      -2.0328861508093743 [Eh]
	 SCS Correlation Energy    =      -2.2143318228897719 [Eh]
	 SCS Total Energy          =    -512.0687741043731194 [Eh]
	-----------------------------------------------------------

  Dipole Moment: [D]
     X:     0.5923      Y:    -0.1065      Z:     1.6706     Total:     1.7757

*** Psi4 exiting successfully. Buy a developer a beer!
