                               Psi4 1.3.2 release

  ==> Input File <==

--------------------------------------------------------------------------
#psi4
#
memory 32 gb

molecule  {
0 1
  O       -0.7670850     1.7208920    -0.4354900
  N        1.6863020     0.4747470     0.1388600
  N       -1.9291830    -0.1915810     0.0453950
  N        0.7639310    -1.5088640    -0.3477740
  C        0.5182450    -0.2160980    -0.0822800
  C       -0.7756170     0.5047820    -0.1623390
  C        2.6791814    -0.4619293     0.0124097
  C        1.8666300     1.8964630     0.4257140
  C       -3.1904980     0.5035560    -0.1598940
  C       -2.0503370    -1.5461500     0.5645390
  C        2.1210610    -1.6392390    -0.2794470
  H        3.7418240    -0.1353950     0.1686580
  H        1.1394670     2.2188990     1.1681400
  H        2.8785810     2.0278530     0.8121890
  H        1.7220340     2.4842350    -0.4794890
  H       -3.8467550    -0.1153850    -0.7799180
  H       -2.9915450     1.4520350    -0.6543500
  H       -3.6876690     0.6913720     0.7990550
  H       -1.0742680    -1.9474190     0.8155770
  H       -2.5092790    -2.1983750    -0.1864030
  H       -2.6938370    -1.5270200     1.4518100
  H        2.6051200    -2.5920870    -0.4498700
units angstrom
no_reorient  #important for SAPT in psi4, default
symmetry c1  #important for SAPT in psi4, default
}

set PROPERTIES_ORIGIN ["COM"]
properties('MP2/aug-cc-pvtz', properties = ['dipole'])
--------------------------------------------------------------------------

    Molecular point group: c1
  Charge       = 0
  Multiplicity = 1
  Basis Set: AUG-CC-PVTZ
    Blend: AUG-CC-PVTZ
  Basis Set: (AUG-CC-PVTZ AUX)
    Blend: AUG-CC-PVTZ-JKFIT

    Orbital Energies [Eh]
    ---------------------

    Doubly Occupied:

       1A    -20.518193     2A    -15.630508     3A    -15.592262
       4A    -15.559622     5A    -11.363125     6A    -11.305947
       7A    -11.272527     8A    -11.266851     9A    -11.255235
      10A    -11.252924    11A    -11.244930    12A     -1.381172
      13A     -1.344148    14A     -1.245618    15A     -1.187959
      16A     -1.036208    17A     -0.976890    18A     -0.966770
      19A     -0.939684    20A     -0.836054    21A     -0.804473
      22A     -0.743544    23A     -0.708791    24A     -0.662040
      25A     -0.655755    26A     -0.641978    27A     -0.639580
      28A     -0.602230    29A     -0.596082    30A     -0.574274
      31A     -0.560251    32A     -0.558377    33A     -0.555509
      34A     -0.553220    35A     -0.527487    36A     -0.523851
      37A     -0.450057    38A     -0.428838    39A     -0.389896
      40A     -0.373291    41A     -0.327176

  @DF-RHF Final Energy:  -509.85850409798832

   => Energetics <=

    Nuclear Repulsion Energy =            629.7413202554228064
    One-Electron Energy =               -1943.0929991644061374
    Two-Electron Energy =                 803.4931748109950149
    Total Energy =                       -509.8585040979883161
  Basis Set: (AUG-CC-PVTZ AUX)
    Blend: AUG-CC-PVTZ-RI
    Molecular point group: c1

    Geometry (in Angstrom), charge = 0, multiplicity = 1:

       Center              X                  Y                   Z               Mass
    ------------   -----------------  -----------------  -----------------  -----------------
         O           -0.795157304313     1.725986269847    -0.417561317577    15.994914619570
         N            1.658229695687     0.479841269847     0.156788682423    14.003074004430
         N           -1.957255304313    -0.186486730153     0.063323682423    14.003074004430
         N            0.735858695687    -1.503769730153    -0.329845317577    14.003074004430
         C            0.490172695687    -0.211003730153    -0.064351317577    12.000000000000
         C           -0.803689304313     0.509876269847    -0.144410317577    12.000000000000
         C            2.651109095687    -0.456835030153     0.030338382423    12.000000000000
         C            1.838557695687     1.901557269847     0.443642682423    12.000000000000
         C           -3.218570304313     0.508650269847    -0.141965317577    12.000000000000
         C           -2.078409304313    -1.541055730153     0.582467682423    12.000000000000
         C            2.092988695687    -1.634144730153    -0.261518317577    12.000000000000
         H            3.713751695687    -0.130300730153     0.186586682423     1.007825032230
         H            1.111394695687     2.223993269847     1.186068682423     1.007825032230
         H            2.850508695687     2.032947269847     0.830117682423     1.007825032230
         H            1.693961695687     2.489329269847    -0.461560317577     1.007825032230
         H           -3.874827304313    -0.110290730153    -0.761989317577     1.007825032230
         H           -3.019617304313     1.457129269847    -0.636421317577     1.007825032230
         H           -3.715741304313     0.696466269847     0.816983682423     1.007825032230
         H           -1.102340304313    -1.942324730153     0.833505682423     1.007825032230
         H           -2.537351304313    -2.193280730153    -0.168474317577     1.007825032230
         H           -2.721909304313    -1.521925730153     1.469738682423     1.007825032230
         H            2.577047695687    -2.586992730153    -0.431941317577     1.007825032230

  Basis Set: AUG-CC-PVTZ
    Blend: AUG-CC-PVTZ
  Basis Set: (AUG-CC-PVTZ AUX)
    Blend: AUG-CC-PVTZ-JKFIT
	 Reference Energy          =    -509.8585040979883161 [Eh]
	 Singles Energy            =      -0.0000000000000000 [Eh]
	 Same-Spin Energy          =      -0.5434182364760700 [Eh]
	 Opposite-Spin Energy      =      -1.6946376213854504 [Eh]
	 Correlation Energy        =      -2.2380558578615206 [Eh]
	 Total Energy              =    -512.0965599558497843 [Eh]

	 ================> DF-SCS-MP2 Energies <==================
	-----------------------------------------------------------
	 SCS Same-Spin Scale       =       0.3333333333333333 [-]
	 SCS Opposite-Spin Scale   =       1.2000000000000000 [-]
	 SCS Same-Spin Energy      =      -0.1811394121586900 [Eh]
	 SCS Opposite-Spin Energy  =      -2.0335651456625405 [Eh]
	 SCS Correlation Energy    =      -2.2147045578212303 [Eh]
	 SCS Total Energy          =    -512.0732086558095943 [Eh]
	-----------------------------------------------------------

  Dipole Moment: [D]
     X:     0.7295      Y:    -0.0126      Z:     1.7129     Total:     1.8618

*** Psi4 exiting successfully. Buy a developer a beer!
