                               Psi4 1.3.2 release

  ==> Input File <==

--------------------------------------------------------------------------
#psi4
#
memory 32 gb

molecule  {
0 1
  O       -0.7670850     1.7208920    -0.4354900
  N        1.7340298     0.4663886     0.1548187
  N       -1.9291830    -0.1915810     0.0453950
  N        0.7639310    -1.5088640    -0.3477740
  C        0.5182450    -0.2160980    -0.0822800
  C       -0.7756170     0.5047820    -0.1623390
  C        2.7114570    -0.4276410     0.0208990
  C        1.8666300     1.8964630     0.4257140
  C       -3.1904980     0.5035560    -0.1598940
  C       -2.0503370    -1.5461500     0.5645390
  C        2.1210610    -1.6392390    -0.2794470
  H        3.7418240    -0.1353950     0.1686580
  H        1.1394670     2.2188990     1.1681400
  H        2.8785810     2.0278530     0.8121890
  H        1.7220340     2.4842350    -0.4794890
  H       -3.8467550    -0.1153850    -0.7799180
  H       -2.9915450     1.4520350    -0.6543500
  H       -3.6876690     0.6913720     0.7990550
  H       -1.0742680    -1.9474190     0.8155770
  H       -2.5092790    -2.1983750    -0.1864030
  H       -2.6938370    -1.5270200     1.4518100
  H        2.6051200    -2.5920870    -0.4498700
units angstrom
no_reorient  #important for SAPT in psi4, default
symmetry c1  #important for SAPT in psi4, default
}

set PROPERTIES_ORIGIN ["COM"]
properties('MP2/aug-cc-pvtz', properties = ['dipole'])
--------------------------------------------------------------------------

    Molecular point group: c1
  Charge       = 0
  Multiplicity = 1
  Basis Set: AUG-CC-PVTZ
    Blend: AUG-CC-PVTZ
  Basis Set: (AUG-CC-PVTZ AUX)
    Blend: AUG-CC-PVTZ-JKFIT

    Orbital Energies [Eh]
    ---------------------

    Doubly Occupied:

       1A    -20.516489     2A    -15.634298     3A    -15.591475
       4A    -15.566559     5A    -11.363047     6A    -11.304782
       7A    -11.272353     8A    -11.270438     9A    -11.255254
      10A    -11.252538    11A    -11.248502    12A     -1.378962
      13A     -1.343247    14A     -1.245019    15A     -1.192439
      16A     -1.033281    17A     -0.977006    18A     -0.965826
      19A     -0.935605    20A     -0.832835    21A     -0.810013
      22A     -0.743177    23A     -0.710188    24A     -0.663375
      25A     -0.655818    26A     -0.647122    27A     -0.640369
      28A     -0.605131    29A     -0.588782    30A     -0.572834
      31A     -0.566592    32A     -0.556700    33A     -0.554624
      34A     -0.552877    35A     -0.526889    36A     -0.523472
      37A     -0.452056    38A     -0.428599    39A     -0.396611
      40A     -0.372775    41A     -0.315957

  @DF-RHF Final Energy:  -509.85699212635308

   => Energetics <=

    Nuclear Repulsion Energy =            628.4816574272300613
    One-Electron Energy =               -1940.5494640472579704
    Two-Electron Energy =                 802.2108144936750023
    Total Energy =                       -509.8569921263530205
  Basis Set: (AUG-CC-PVTZ AUX)
    Blend: AUG-CC-PVTZ-RI
    Molecular point group: c1

    Geometry (in Angstrom), charge = 0, multiplicity = 1:

       Center              X                  Y                   Z               Mass
    ------------   -----------------  -----------------  -----------------  -----------------
         O           -0.802052866752     1.724063114196    -0.419686485822    15.994914619570
         N            1.699061933248     0.469559714196     0.170622214178    14.003074004430
         N           -1.964150866752    -0.188409885804     0.061198514178    14.003074004430
         N            0.728963133248    -1.505692885804    -0.331970485822    14.003074004430
         C            0.483277133248    -0.212926885804    -0.066476485822    12.000000000000
         C           -0.810584866752     0.507953114196    -0.146535485822    12.000000000000
         C            2.676489133248    -0.424469885804     0.036702514178    12.000000000000
         C            1.831662133248     1.899634114196     0.441517514178    12.000000000000
         C           -3.225465866752     0.506727114196    -0.144090485822    12.000000000000
         C           -2.085304866752    -1.542978885804     0.580342514178    12.000000000000
         C            2.086093133248    -1.636067885804    -0.263643485822    12.000000000000
         H            3.706856133248    -0.132223885804     0.184461514178     1.007825032230
         H            1.104499133248     2.222070114196     1.183943514178     1.007825032230
         H            2.843613133248     2.031024114196     0.827992514178     1.007825032230
         H            1.687066133248     2.487406114196    -0.463685485822     1.007825032230
         H           -3.881722866752    -0.112213885804    -0.764114485822     1.007825032230
         H           -3.026512866752     1.455206114196    -0.638546485822     1.007825032230
         H           -3.722636866752     0.694543114196     0.814858514178     1.007825032230
         H           -1.109235866752    -1.944247885804     0.831380514178     1.007825032230
         H           -2.544246866752    -2.195203885804    -0.170599485822     1.007825032230
         H           -2.728804866752    -1.523848885804     1.467613514178     1.007825032230
         H            2.570152133248    -2.588915885804    -0.434066485822     1.007825032230

  Basis Set: AUG-CC-PVTZ
    Blend: AUG-CC-PVTZ
  Basis Set: (AUG-CC-PVTZ AUX)
    Blend: AUG-CC-PVTZ-JKFIT
	 Reference Energy          =    -509.8569921263530773 [Eh]
	 Singles Energy            =      -0.0000000000000000 [Eh]
	 Same-Spin Energy          =      -0.5442822903735122 [Eh]
	 Opposite-Spin Energy      =      -1.6957052606225251 [Eh]
	 Correlation Energy        =      -2.2399875509960374 [Eh]
	 Total Energy              =    -512.0969796773491680 [Eh]

	 ================> DF-SCS-MP2 Energies <==================
	-----------------------------------------------------------
	 SCS Same-Spin Scale       =       0.3333333333333333 [-]
	 SCS Opposite-Spin Scale   =       1.2000000000000000 [-]
	 SCS Same-Spin Energy      =      -0.1814274301245040 [Eh]
	 SCS Opposite-Spin Energy  =      -2.0348463127470300 [Eh]
	 SCS Correlation Energy    =      -2.2162737428715342 [Eh]
	 SCS Total Energy          =    -512.0732658692246559 [Eh]
	-----------------------------------------------------------

  Dipole Moment: [D]
     X:     0.7433      Y:     0.0085      Z:     1.7088     Total:     1.8635

*** Psi4 exiting successfully. Buy a developer a beer!
