                               Psi4 1.4a3.dev225

  ==> Input File <==

--------------------------------------------------------------------------
#psi4
#
memory 32 gb

molecule  {
0 1
  O       -0.7670850     1.7208920    -0.4354900
  N        1.6863020     0.4747470     0.1388600
  N       -1.9291830    -0.1915810     0.0453950
  N        0.7639310    -1.5088640    -0.3477740
  C        0.5352354    -0.2060491    -0.0790633
  C       -0.7756170     0.5047820    -0.1623390
  C        2.7114570    -0.4276410     0.0208990
  C        1.8666300     1.8964630     0.4257140
  C       -3.1904980     0.5035560    -0.1598940
  C       -2.0503370    -1.5461500     0.5645390
  C        2.1210610    -1.6392390    -0.2794470
  H        3.7418240    -0.1353950     0.1686580
  H        1.1394670     2.2188990     1.1681400
  H        2.8785810     2.0278530     0.8121890
  H        1.7220340     2.4842350    -0.4794890
  H       -3.8467550    -0.1153850    -0.7799180
  H       -2.9915450     1.4520350    -0.6543500
  H       -3.6876690     0.6913720     0.7990550
  H       -1.0742680    -1.9474190     0.8155770
  H       -2.5092790    -2.1983750    -0.1864030
  H       -2.6938370    -1.5270200     1.4518100
  H        2.6051200    -2.5920870    -0.4498700
units angstrom
no_reorient  #important for SAPT in psi4, default
symmetry c1  #important for SAPT in psi4, default
}

set PROPERTIES_ORIGIN ["COM"]
properties('MP2/aug-cc-pvtz', properties = ['dipole'])
--------------------------------------------------------------------------

    Molecular point group: c1
  Charge       = 0
  Multiplicity = 1
  Basis Set: AUG-CC-PVTZ
    Blend: AUG-CC-PVTZ
  Basis Set: (AUG-CC-PVTZ AUX)
    Blend: AUG-CC-PVTZ-JKFIT

    Orbital Energies [Eh]
    ---------------------

    Doubly Occupied:

       1A    -20.517550     2A    -15.635041     3A    -15.592346
       4A    -15.560077     5A    -11.363501     6A    -11.305197
       7A    -11.273210     8A    -11.267570     9A    -11.255076
      10A    -11.252975    11A    -11.251623    12A     -1.381216
      13A     -1.345359    14A     -1.245331    15A     -1.188608
      16A     -1.030841    17A     -0.977927    18A     -0.966728
      19A     -0.939604    20A     -0.830274    21A     -0.811764
      22A     -0.742462    23A     -0.710219    24A     -0.663106
      25A     -0.655329    26A     -0.645317    27A     -0.641301
      28A     -0.605156    29A     -0.593991    30A     -0.573228
      31A     -0.564377    32A     -0.556871    33A     -0.555100
      34A     -0.552994    35A     -0.527359    36A     -0.523164
      37A     -0.450343    38A     -0.428603    39A     -0.391443
      40A     -0.373104    41A     -0.320662

  @DF-RHF Final Energy:  -509.86068442792981

   => Energetics <=

    Nuclear Repulsion Energy =            629.0586647201556616
    One-Electron Energy =               -1941.7068105649721019
    Two-Electron Energy =                 802.7874614168867993
    Total Energy =                       -509.8606844279297547
  Basis Set: (AUG-CC-PVTZ AUX)
    Blend: AUG-CC-PVTZ-RI
    Molecular point group: c1

    Geometry (in Angstrom), charge = 0, multiplicity = 1:

       Center              X                  Y                   Z               Mass
    ------------   -----------------  -----------------  -----------------  -----------------
         O           -0.799019027361     1.722510891551    -0.418478894202    15.994914619570
         N            1.654367972639     0.476365891551     0.155871105798    14.003074004430
         N           -1.961117027361    -0.189962108449     0.062406105798    14.003074004430
         N            0.731996972639    -1.507245108449    -0.330762894202    14.003074004430
         C            0.503301372639    -0.204430208449    -0.062052194202    12.000000000000
         C           -0.807551027361     0.506400891551    -0.145327894202    12.000000000000
         C            2.679522972639    -0.426022108449     0.037910105798    12.000000000000
         C            1.834695972639     1.898081891551     0.442725105798    12.000000000000
         C           -3.222432027361     0.505174891551    -0.142882894202    12.000000000000
         C           -2.082271027361    -1.544531108449     0.581550105798    12.000000000000
         C            2.089126972639    -1.637620108449    -0.262435894202    12.000000000000
         H            3.709889972639    -0.133776108449     0.185669105798     1.007825032230
         H            1.107532972639     2.220517891551     1.185151105798     1.007825032230
         H            2.846646972639     2.029471891551     0.829200105798     1.007825032230
         H            1.690099972639     2.485853891551    -0.462477894202     1.007825032230
         H           -3.878689027361    -0.113766108449    -0.762906894202     1.007825032230
         H           -3.023479027361     1.453653891551    -0.637338894202     1.007825032230
         H           -3.719603027361     0.692990891551     0.816066105798     1.007825032230
         H           -1.106202027361    -1.945800108449     0.832588105798     1.007825032230
         H           -2.541213027361    -2.196756108449    -0.169391894202     1.007825032230
         H           -2.725771027361    -1.525401108449     1.468821105798     1.007825032230
         H            2.573185972639    -2.590468108449    -0.432858894202     1.007825032230

  Basis Set: AUG-CC-PVTZ
    Blend: AUG-CC-PVTZ
  Basis Set: (AUG-CC-PVTZ AUX)
    Blend: AUG-CC-PVTZ-JKFIT
	 Reference Energy          =    -509.8606844279298116 [Eh]
	 Singles Energy            =      -0.0000000000000000 [Eh]
	 Same-Spin Energy          =      -0.5437293624143846 [Eh]
	 Opposite-Spin Energy      =      -1.6951079660980990 [Eh]
	 Correlation Energy        =      -2.2388373285124836 [Eh]
	 Total Energy              =    -512.0995217564423001 [Eh]

	 ================> DF-SCS-MP2 Energies <==================
	-----------------------------------------------------------
	 SCS Same-Spin Scale       =       0.3333333333333333 [-]
	 SCS Opposite-Spin Scale   =       1.2000000000000000 [-]
	 SCS Same-Spin Energy      =      -0.1812431208047949 [Eh]
	 SCS Opposite-Spin Energy  =      -2.0341295593177189 [Eh]
	 SCS Correlation Energy    =      -2.2153726801225138 [Eh]
	 SCS Total Energy          =    -512.0760571080522823 [Eh]
	-----------------------------------------------------------

  Dipole Moment: [D]
     X:     0.7475      Y:     0.0381      Z:     1.7287     Total:     1.8838

*** Psi4 exiting successfully. Buy a developer a beer!
