                               Psi4 1.3.2 release

  ==> Input File <==

--------------------------------------------------------------------------
#psi4
#
memory 32 gb

molecule  {
0 1
  O       -0.7670850     1.7208920    -0.4354900
  N        1.6863020     0.4747470     0.1388600
  N       -1.9416268    -0.1716015     0.0419057
  N        0.7639310    -1.5088640    -0.3477740
  C        0.5182450    -0.2160980    -0.0822800
  C       -0.7756170     0.5047820    -0.1623390
  C        2.7114570    -0.4276410     0.0208990
  C        1.8666300     1.8964630     0.4257140
  C       -3.1904980     0.5035560    -0.1598940
  C       -2.0503370    -1.5461500     0.5645390
  C        2.1210610    -1.6392390    -0.2794470
  H        3.7418240    -0.1353950     0.1686580
  H        1.1394670     2.2188990     1.1681400
  H        2.8785810     2.0278530     0.8121890
  H        1.7220340     2.4842350    -0.4794890
  H       -3.8467550    -0.1153850    -0.7799180
  H       -2.9915450     1.4520350    -0.6543500
  H       -3.6876690     0.6913720     0.7990550
  H       -1.0742680    -1.9474190     0.8155770
  H       -2.5092790    -2.1983750    -0.1864030
  H       -2.6938370    -1.5270200     1.4518100
  H        2.6051200    -2.5920870    -0.4498700
units angstrom
no_reorient  #important for SAPT in psi4, default
symmetry c1  #important for SAPT in psi4, default
}

set PROPERTIES_ORIGIN ["COM"]
properties('MP2/aug-cc-pvtz', properties = ['dipole'])
--------------------------------------------------------------------------

    Molecular point group: c1
  Charge       = 0
  Multiplicity = 1
  Basis Set: AUG-CC-PVTZ
    Blend: AUG-CC-PVTZ
  Basis Set: (AUG-CC-PVTZ AUX)
    Blend: AUG-CC-PVTZ-JKFIT

    Orbital Energies [Eh]
    ---------------------

    Doubly Occupied:

       1A    -20.516683     2A    -15.634361     3A    -15.591477
       4A    -15.562085     5A    -11.362630     6A    -11.306393
       7A    -11.272171     8A    -11.269830     9A    -11.256596
      10A    -11.251804    11A    -11.250943    12A     -1.380698
      13A     -1.342505    14A     -1.244802    15A     -1.189258
      16A     -1.032693    17A     -0.977114    18A     -0.965998
      19A     -0.938474    20A     -0.832406    21A     -0.811189
      22A     -0.742045    23A     -0.710060    24A     -0.662545
      25A     -0.655358    26A     -0.645926    27A     -0.640217
      28A     -0.606124    29A     -0.592730    30A     -0.573078
      31A     -0.566062    32A     -0.558626    33A     -0.554223
      34A     -0.553107    35A     -0.525104    36A     -0.522532
      37A     -0.450852    38A     -0.429146    39A     -0.391858
      40A     -0.372227    41A     -0.321075

  @DF-RHF Final Energy:  -509.85998786841901

   => Energetics <=

    Nuclear Repulsion Energy =            628.9235204817757676
    One-Electron Energy =               -1941.4410079259309896
    Two-Electron Energy =                 802.6574995757362103
    Total Energy =                       -509.8599878684190116
  Basis Set: (AUG-CC-PVTZ AUX)
    Blend: AUG-CC-PVTZ-RI
    Molecular point group: c1

    Geometry (in Angstrom), charge = 0, multiplicity = 1:

       Center              X                  Y                   Z               Mass
    ------------   -----------------  -----------------  -----------------  -----------------
         O           -0.796549004964     1.721471062715    -0.417907588402    15.994914619570
         N            1.656837995036     0.475326062715     0.156442411598    14.003074004430
         N           -1.971090804964    -0.171022437285     0.059488111598    14.003074004430
         N            0.734466995036    -1.508284937285    -0.330191588402    14.003074004430
         C            0.488780995036    -0.215518937285    -0.064697588402    12.000000000000
         C           -0.805081004964     0.505361062715    -0.144756588402    12.000000000000
         C            2.681992995036    -0.427061937285     0.038481411598    12.000000000000
         C            1.837165995036     1.897042062715     0.443296411598    12.000000000000
         C           -3.219962004964     0.504135062715    -0.142311588402    12.000000000000
         C           -2.079801004964    -1.545570937285     0.582121411598    12.000000000000
         C            2.091596995036    -1.638659937285    -0.261864588402    12.000000000000
         H            3.712359995036    -0.134815937285     0.186240411598     1.007825032230
         H            1.110002995036     2.219478062715     1.185722411598     1.007825032230
         H            2.849116995036     2.028432062715     0.829771411598     1.007825032230
         H            1.692569995036     2.484814062715    -0.461906588402     1.007825032230
         H           -3.876219004964    -0.114805937285    -0.762335588402     1.007825032230
         H           -3.021009004964     1.452614062715    -0.636767588402     1.007825032230
         H           -3.717133004964     0.691951062715     0.816637411598     1.007825032230
         H           -1.103732004964    -1.946839937285     0.833159411598     1.007825032230
         H           -2.538743004964    -2.197795937285    -0.168820588402     1.007825032230
         H           -2.723301004964    -1.526440937285     1.469392411598     1.007825032230
         H            2.575655995036    -2.591507937285    -0.432287588402     1.007825032230

  Basis Set: AUG-CC-PVTZ
    Blend: AUG-CC-PVTZ
  Basis Set: (AUG-CC-PVTZ AUX)
    Blend: AUG-CC-PVTZ-JKFIT
	 Reference Energy          =    -509.8599878684190116 [Eh]
	 Singles Energy            =      -0.0000000000000000 [Eh]
	 Same-Spin Energy          =      -0.5439178429258680 [Eh]
	 Opposite-Spin Energy      =      -1.6954111449265623 [Eh]
	 Correlation Energy        =      -2.2393289878524305 [Eh]
	 Total Energy              =    -512.0993168562714573 [Eh]

	 ================> DF-SCS-MP2 Energies <==================
	-----------------------------------------------------------
	 SCS Same-Spin Scale       =       0.3333333333333333 [-]
	 SCS Opposite-Spin Scale   =       1.2000000000000000 [-]
	 SCS Same-Spin Energy      =      -0.1813059476419560 [Eh]
	 SCS Opposite-Spin Energy  =      -2.0344933739118747 [Eh]
	 SCS Correlation Energy    =      -2.2157993215538307 [Eh]
	 SCS Total Energy          =    -512.0757871899728570 [Eh]
	-----------------------------------------------------------

  Dipole Moment: [D]
     X:     0.7923      Y:    -0.0454      Z:     1.7238     Total:     1.8977

*** Psi4 exiting successfully. Buy a developer a beer!
