                               Psi4 1.4a3.dev225

  ==> Input File <==

--------------------------------------------------------------------------
#psi4
#
memory 32 gb

molecule  {
0 1
  O       -0.7670850     1.7208920    -0.4354900
  N        1.6863020     0.4747470     0.1388600
  N       -1.9291830    -0.1915810     0.0453950
  N        0.7639310    -1.5088640    -0.3477740
  C        0.5182450    -0.2160980    -0.0822800
  C       -0.7756170     0.5047820    -0.1623390
  C        2.7114570    -0.4276410     0.0208990
  C        1.8604609     1.8478252     0.4159005
  C       -3.1904980     0.5035560    -0.1598940
  C       -2.0503370    -1.5461500     0.5645390
  C        2.1210610    -1.6392390    -0.2794470
  H        3.7418240    -0.1353950     0.1686580
  H        1.1394670     2.2188990     1.1681400
  H        2.8785810     2.0278530     0.8121890
  H        1.7220340     2.4842350    -0.4794890
  H       -3.8467550    -0.1153850    -0.7799180
  H       -2.9915450     1.4520350    -0.6543500
  H       -3.6876690     0.6913720     0.7990550
  H       -1.0742680    -1.9474190     0.8155770
  H       -2.5092790    -2.1983750    -0.1864030
  H       -2.6938370    -1.5270200     1.4518100
  H        2.6051200    -2.5920870    -0.4498700
units angstrom
no_reorient  #important for SAPT in psi4, default
symmetry c1  #important for SAPT in psi4, default
}

set PROPERTIES_ORIGIN ["COM"]
properties('MP2/aug-cc-pvtz', properties = ['dipole'])
--------------------------------------------------------------------------

    Molecular point group: c1
  Charge       = 0
  Multiplicity = 1
  Basis Set: AUG-CC-PVTZ
    Blend: AUG-CC-PVTZ
  Basis Set: (AUG-CC-PVTZ AUX)
    Blend: AUG-CC-PVTZ-JKFIT

    Orbital Energies [Eh]
    ---------------------

    Doubly Occupied:

       1A    -20.518189     2A    -15.635107     3A    -15.592584
       4A    -15.563394     5A    -11.363772     6A    -11.307418
       7A    -11.270918     8A    -11.270809     9A    -11.255888
      10A    -11.253173    11A    -11.253044    12A     -1.382280
      13A     -1.347050    14A     -1.246218    15A     -1.196722
      16A     -1.034279    17A     -0.976662    18A     -0.967145
      19A     -0.938934    20A     -0.833502    21A     -0.813434
      22A     -0.746046    23A     -0.711437    24A     -0.664728
      25A     -0.656920    26A     -0.647262    27A     -0.641291
      28A     -0.605665    29A     -0.600500    30A     -0.574593
      31A     -0.560059    32A     -0.555098    33A     -0.553265
      34A     -0.547443    35A     -0.526918    36A     -0.521941
      37A     -0.452187    38A     -0.428776    39A     -0.390508
      40A     -0.373496    41A     -0.322199

  @DF-RHF Final Energy:  -509.85783484476110

   => Energetics <=

    Nuclear Repulsion Energy =            630.0263788004153866
    One-Electron Energy =               -1943.5667186238101749
    Two-Electron Energy =                 803.6825049786336876
    Total Energy =                       -509.8578348447611006
  Basis Set: (AUG-CC-PVTZ AUX)
    Blend: AUG-CC-PVTZ-RI
    Molecular point group: c1

    Geometry (in Angstrom), charge = 0, multiplicity = 1:

       Center              X                  Y                   Z               Mass
    ------------   -----------------  -----------------  -----------------  -----------------
         O           -0.797203666363     1.727111057629    -0.417457519955    15.994914619570
         N            1.656183333637     0.480966057629     0.156892480045    14.003074004430
         N           -1.959301666363    -0.185361942371     0.063427480045    14.003074004430
         N            0.733812333637    -1.502644942371    -0.329741519955    14.003074004430
         C            0.488126333637    -0.209878942371    -0.064247519955    12.000000000000
         C           -0.805735666363     0.511001057629    -0.144306519955    12.000000000000
         C            2.681338333637    -0.421421942371     0.038931480045    12.000000000000
         C            1.830342233637     1.854044257629     0.433932980045    12.000000000000
         C           -3.220616666363     0.509775057629    -0.141861519955    12.000000000000
         C           -2.080455666363    -1.539930942371     0.582571480045    12.000000000000
         C            2.090942333637    -1.633019942371    -0.261414519955    12.000000000000
         H            3.711705333637    -0.129175942371     0.186690480045     1.007825032230
         H            1.109348333637     2.225118057629     1.186172480045     1.007825032230
         H            2.848462333637     2.034072057629     0.830221480045     1.007825032230
         H            1.691915333637     2.490454057629    -0.461456519955     1.007825032230
         H           -3.876873666363    -0.109165942371    -0.761885519955     1.007825032230
         H           -3.021663666363     1.458254057629    -0.636317519955     1.007825032230
         H           -3.717787666363     0.697591057629     0.817087480045     1.007825032230
         H           -1.104386666363    -1.941199942371     0.833609480045     1.007825032230
         H           -2.539397666363    -2.192155942371    -0.168370519955     1.007825032230
         H           -2.723955666363    -1.520800942371     1.469842480045     1.007825032230
         H            2.575001333637    -2.585867942371    -0.431837519955     1.007825032230

  Basis Set: AUG-CC-PVTZ
    Blend: AUG-CC-PVTZ
  Basis Set: (AUG-CC-PVTZ AUX)
    Blend: AUG-CC-PVTZ-JKFIT
	 Reference Energy          =    -509.8578348447611006 [Eh]
	 Singles Energy            =      -0.0000000000000000 [Eh]
	 Same-Spin Energy          =      -0.5443383786610221 [Eh]
	 Opposite-Spin Energy      =      -1.6957697301368464 [Eh]
	 Correlation Energy        =      -2.2401081087978687 [Eh]
	 Total Energy              =    -512.0979429535589134 [Eh]

	 ================> DF-SCS-MP2 Energies <==================
	-----------------------------------------------------------
	 SCS Same-Spin Scale       =       0.3333333333333333 [-]
	 SCS Opposite-Spin Scale   =       1.2000000000000000 [-]
	 SCS Same-Spin Energy      =      -0.1814461262203407 [Eh]
	 SCS Opposite-Spin Energy  =      -2.0349236761642158 [Eh]
	 SCS Correlation Energy    =      -2.2163698023845564 [Eh]
	 SCS Total Energy          =    -512.0742046471456206 [Eh]
	-----------------------------------------------------------

  Dipole Moment: [D]
     X:     0.7074      Y:    -0.1273      Z:     1.6905     Total:     1.8369

*** Psi4 exiting successfully. Buy a developer a beer!
