                               Psi4 1.3.2 release

  ==> Input File <==

--------------------------------------------------------------------------
#psi4
#
memory 32 gb

molecule  {
0 1
  O       -0.7670850     1.7208920    -0.4354900
  N        1.6863020     0.4747470     0.1388600
  N       -1.9291830    -0.1915810     0.0453950
  N        0.8089881    -1.5016368    -0.3371347
  C        0.5182450    -0.2160980    -0.0822800
  C       -0.7756170     0.5047820    -0.1623390
  C        2.7114570    -0.4276410     0.0208990
  C        1.8666300     1.8964630     0.4257140
  C       -3.1904980     0.5035560    -0.1598940
  C       -2.0503370    -1.5461500     0.5645390
  C        2.1210610    -1.6392390    -0.2794470
  H        3.7418240    -0.1353950     0.1686580
  H        1.1394670     2.2188990     1.1681400
  H        2.8785810     2.0278530     0.8121890
  H        1.7220340     2.4842350    -0.4794890
  H       -3.8467550    -0.1153850    -0.7799180
  H       -2.9915450     1.4520350    -0.6543500
  H       -3.6876690     0.6913720     0.7990550
  H       -1.0742680    -1.9474190     0.8155770
  H       -2.5092790    -2.1983750    -0.1864030
  H       -2.6938370    -1.5270200     1.4518100
  H        2.6051200    -2.5920870    -0.4498700
units angstrom
no_reorient  #important for SAPT in psi4, default
symmetry c1  #important for SAPT in psi4, default
}

set PROPERTIES_ORIGIN ["COM"]
properties('MP2/aug-cc-pvtz', properties = ['dipole'])
--------------------------------------------------------------------------

    Molecular point group: c1
  Charge       = 0
  Multiplicity = 1
  Basis Set: AUG-CC-PVTZ
    Blend: AUG-CC-PVTZ
  Basis Set: (AUG-CC-PVTZ AUX)
    Blend: AUG-CC-PVTZ-JKFIT

    Orbital Energies [Eh]
    ---------------------

    Doubly Occupied:

       1A    -20.517374     2A    -15.635067     3A    -15.591988
       4A    -15.555816     5A    -11.363623     6A    -11.302475
       7A    -11.271549     8A    -11.267178     9A    -11.256126
      10A    -11.252835    11A    -11.247171    12A     -1.381014
      13A     -1.346308    14A     -1.245466    15A     -1.194902
      16A     -1.031450    17A     -0.977930    18A     -0.967024
      19A     -0.939402    20A     -0.831103    21A     -0.811238
      22A     -0.745258    23A     -0.709990    24A     -0.663605
      25A     -0.656507    26A     -0.646188    27A     -0.640262
      28A     -0.608677    29A     -0.592874    30A     -0.575713
      31A     -0.564716    32A     -0.558261    33A     -0.555874
      34A     -0.553526    35A     -0.527338    36A     -0.523707
      37A     -0.445252    38A     -0.427691    39A     -0.395226
      40A     -0.373384    41A     -0.317662

  @DF-RHF Final Energy:  -509.85988313776534

   => Energetics <=

    Nuclear Repulsion Energy =            629.5603480704928643
    One-Electron Energy =               -1942.7029632683629643
    Two-Electron Energy =                 803.2827320601047631
    Total Energy =                       -509.8598831377653369
  Basis Set: (AUG-CC-PVTZ AUX)
    Blend: AUG-CC-PVTZ-RI
    Molecular point group: c1

    Geometry (in Angstrom), charge = 0, multiplicity = 1:

       Center              X                  Y                   Z               Mass
    ------------   -----------------  -----------------  -----------------  -----------------
         O           -0.801808579352     1.722637508291    -0.419199923351    15.994914619570
         N            1.651578420648     0.476492508291     0.155150076649    14.003074004430
         N           -1.963906579352    -0.189835491709     0.061685076649    14.003074004430
         N            0.774264520648    -1.499891291709    -0.320844623351    14.003074004430
         C            0.483521420648    -0.214352491709    -0.065989923351    12.000000000000
         C           -0.810340579352     0.506527508291    -0.146048923351    12.000000000000
         C            2.676733420648    -0.425895491709     0.037189076649    12.000000000000
         C            1.831906420648     1.898208508291     0.442004076649    12.000000000000
         C           -3.225221579352     0.505301508291    -0.143603923351    12.000000000000
         C           -2.085060579352    -1.544404491709     0.580829076649    12.000000000000
         C            2.086337420648    -1.637493491709    -0.263156923351    12.000000000000
         H            3.707100420648    -0.133649491709     0.184948076649     1.007825032230
         H            1.104743420648     2.220644508291     1.184430076649     1.007825032230
         H            2.843857420648     2.029598508291     0.828479076649     1.007825032230
         H            1.687310420648     2.485980508291    -0.463198923351     1.007825032230
         H           -3.881478579352    -0.113639491709    -0.763627923351     1.007825032230
         H           -3.026268579352     1.453780508291    -0.638059923351     1.007825032230
         H           -3.722392579352     0.693117508291     0.815345076649     1.007825032230
         H           -1.108991579352    -1.945673491709     0.831867076649     1.007825032230
         H           -2.544002579352    -2.196629491709    -0.170112923351     1.007825032230
         H           -2.728560579352    -1.525274491709     1.468100076649     1.007825032230
         H            2.570396420648    -2.590341491709    -0.433579923351     1.007825032230

  Basis Set: AUG-CC-PVTZ
    Blend: AUG-CC-PVTZ
  Basis Set: (AUG-CC-PVTZ AUX)
    Blend: AUG-CC-PVTZ-JKFIT
	 Reference Energy          =    -509.8598831377653369 [Eh]
	 Singles Energy            =      -0.0000000000000000 [Eh]
	 Same-Spin Energy          =      -0.5441159704118896 [Eh]
	 Opposite-Spin Energy      =      -1.6946723807718351 [Eh]
	 Correlation Energy        =      -2.2387883511837248 [Eh]
	 Total Energy              =    -512.0986714889490941 [Eh]

	 ================> DF-SCS-MP2 Energies <==================
	-----------------------------------------------------------
	 SCS Same-Spin Scale       =       0.3333333333333333 [-]
	 SCS Opposite-Spin Scale   =       1.2000000000000000 [-]
	 SCS Same-Spin Energy      =      -0.1813719901372965 [Eh]
	 SCS Opposite-Spin Energy  =      -2.0336068569262022 [Eh]
	 SCS Correlation Energy    =      -2.2149788470634988 [Eh]
	 SCS Total Energy          =    -512.0748619848288854 [Eh]
	-----------------------------------------------------------

  Dipole Moment: [D]
     X:     0.6728      Y:    -0.0504      Z:     1.6955     Total:     1.8248

*** Psi4 exiting successfully. Buy a developer a beer!
