                               Psi4 1.3.2 release

  ==> Input File <==

--------------------------------------------------------------------------
#psi4
#
memory 32 gb

molecule  {
0 1
  O       -0.7670850     1.7208920    -0.4354900
  N        1.6625169     0.4795765     0.1310105
  N       -1.9291830    -0.1915810     0.0453950
  N        0.7639310    -1.5088640    -0.3477740
  C        0.5182450    -0.2160980    -0.0822800
  C       -0.7756170     0.5047820    -0.1623390
  C        2.7114570    -0.4276410     0.0208990
  C        1.8666300     1.8964630     0.4257140
  C       -3.1904980     0.5035560    -0.1598940
  C       -2.0503370    -1.5461500     0.5645390
  C        2.1210610    -1.6392390    -0.2794470
  H        3.7418240    -0.1353950     0.1686580
  H        1.1394670     2.2188990     1.1681400
  H        2.8785810     2.0278530     0.8121890
  H        1.7220340     2.4842350    -0.4794890
  H       -3.8467550    -0.1153850    -0.7799180
  H       -2.9915450     1.4520350    -0.6543500
  H       -3.6876690     0.6913720     0.7990550
  H       -1.0742680    -1.9474190     0.8155770
  H       -2.5092790    -2.1983750    -0.1864030
  H       -2.6938370    -1.5270200     1.4518100
  H        2.6051200    -2.5920870    -0.4498700
units angstrom
no_reorient  #important for SAPT in psi4, default
symmetry c1  #important for SAPT in psi4, default
}

set PROPERTIES_ORIGIN ["COM"]
properties('MP2/aug-cc-pvtz', properties = ['dipole'])
--------------------------------------------------------------------------

    Molecular point group: c1
  Charge       = 0
  Multiplicity = 1
  Basis Set: AUG-CC-PVTZ
    Blend: AUG-CC-PVTZ
  Basis Set: (AUG-CC-PVTZ AUX)
    Blend: AUG-CC-PVTZ-JKFIT

    Orbital Energies [Eh]
    ---------------------

    Doubly Occupied:

       1A    -20.518252     2A    -15.633520     3A    -15.592356
       4A    -15.559064     5A    -11.363000     6A    -11.305678
       7A    -11.272107     8A    -11.268844     9A    -11.255374
      10A    -11.252961    11A    -11.252835    12A     -1.381462
      13A     -1.341789    14A     -1.245748    15A     -1.187345
      16A     -1.031537    17A     -0.976617    18A     -0.967006
      19A     -0.940255    20A     -0.831465    21A     -0.811091
      22A     -0.741309    23A     -0.709607    24A     -0.662539
      25A     -0.655241    26A     -0.645128    27A     -0.639885
      28A     -0.605860    29A     -0.596028    30A     -0.574337
      31A     -0.560929    32A     -0.556973    33A     -0.554943
      34A     -0.553060    35A     -0.527448    36A     -0.522692
      37A     -0.450085    38A     -0.428893    39A     -0.389521
      40A     -0.373342    41A     -0.322494

  @DF-RHF Final Energy:  -509.85996448835158

   => Energetics <=

    Nuclear Repulsion Energy =            629.2424271153403197
    One-Electron Energy =               -1942.0875484811074330
    Two-Electron Energy =                 802.9851568774156476
    Total Energy =                       -509.8599644883515793
  Basis Set: (AUG-CC-PVTZ AUX)
    Blend: AUG-CC-PVTZ-RI
    Molecular point group: c1

    Geometry (in Angstrom), charge = 0, multiplicity = 1:

       Center              X                  Y                   Z               Mass
    ------------   -----------------  -----------------  -----------------  -----------------
         O           -0.795511622749     1.722856824537    -0.417508763405    15.994914619570
         N            1.634090277251     0.481541324537     0.148991736595    14.003074004430
         N           -1.957609622749    -0.189616175463     0.063376236595    14.003074004430
         N            0.735504377251    -1.506899175463    -0.329792763405    14.003074004430
         C            0.489818377251    -0.214133175463    -0.064298763405    12.000000000000
         C           -0.804043622749     0.506746824537    -0.144357763405    12.000000000000
         C            2.683030377251    -0.425676175463     0.038880236595    12.000000000000
         C            1.838203377251     1.898427824537     0.443695236595    12.000000000000
         C           -3.218924622749     0.505520824537    -0.141912763405    12.000000000000
         C           -2.078763622749    -1.544185175463     0.582520236595    12.000000000000
         C            2.092634377251    -1.637274175463    -0.261465763405    12.000000000000
         H            3.713397377251    -0.133430175463     0.186639236595     1.007825032230
         H            1.111040377251     2.220863824537     1.186121236595     1.007825032230
         H            2.850154377251     2.029817824537     0.830170236595     1.007825032230
         H            1.693607377251     2.486199824537    -0.461507763405     1.007825032230
         H           -3.875181622749    -0.113420175463    -0.761936763405     1.007825032230
         H           -3.019971622749     1.453999824537    -0.636368763405     1.007825032230
         H           -3.716095622749     0.693336824537     0.817036236595     1.007825032230
         H           -1.102694622749    -1.945454175463     0.833558236595     1.007825032230
         H           -2.537705622749    -2.196410175463    -0.168421763405     1.007825032230
         H           -2.722263622749    -1.525055175463     1.469791236595     1.007825032230
         H            2.576693377251    -2.590122175463    -0.431888763405     1.007825032230

  Basis Set: AUG-CC-PVTZ
    Blend: AUG-CC-PVTZ
  Basis Set: (AUG-CC-PVTZ AUX)
    Blend: AUG-CC-PVTZ-JKFIT
	 Reference Energy          =    -509.8599644883515793 [Eh]
	 Singles Energy            =      -0.0000000000000000 [Eh]
	 Same-Spin Energy          =      -0.5437934043275348 [Eh]
	 Opposite-Spin Energy      =      -1.6954685017904316 [Eh]
	 Correlation Energy        =      -2.2392619061179664 [Eh]
	 Total Energy              =    -512.0992263944694969 [Eh]

	 ================> DF-SCS-MP2 Energies <==================
	-----------------------------------------------------------
	 SCS Same-Spin Scale       =       0.3333333333333333 [-]
	 SCS Opposite-Spin Scale   =       1.2000000000000000 [-]
	 SCS Same-Spin Energy      =      -0.1812644681091782 [Eh]
	 SCS Opposite-Spin Energy  =      -2.0345622021485177 [Eh]
	 SCS Correlation Energy    =      -2.2158266702576959 [Eh]
	 SCS Total Energy          =    -512.0757911586092632 [Eh]
	-----------------------------------------------------------

  Dipole Moment: [D]
     X:     0.7444      Y:    -0.0046      Z:     1.7229     Total:     1.8768

*** Psi4 exiting successfully. Buy a developer a beer!
