                               Psi4 1.3.2 release

  ==> Input File <==

--------------------------------------------------------------------------
#psi4
#
memory 32 gb

molecule  {
0 1
  O       -0.7670850     1.7208920    -0.4354900
  N        1.7326842     0.3908044     0.1352832
  N       -1.9291830    -0.1915810     0.0453950
  N        0.7639310    -1.5088640    -0.3477740
  C        0.5182450    -0.2160980    -0.0822800
  C       -0.7756170     0.5047820    -0.1623390
  C        2.7114570    -0.4276410     0.0208990
  C        1.8666300     1.8964630     0.4257140
  C       -3.1904980     0.5035560    -0.1598940
  C       -2.0503370    -1.5461500     0.5645390
  C        2.1210610    -1.6392390    -0.2794470
  H        3.7418240    -0.1353950     0.1686580
  H        1.1394670     2.2188990     1.1681400
  H        2.8785810     2.0278530     0.8121890
  H        1.7220340     2.4842350    -0.4794890
  H       -3.8467550    -0.1153850    -0.7799180
  H       -2.9915450     1.4520350    -0.6543500
  H       -3.6876690     0.6913720     0.7990550
  H       -1.0742680    -1.9474190     0.8155770
  H       -2.5092790    -2.1983750    -0.1864030
  H       -2.6938370    -1.5270200     1.4518100
  H        2.6051200    -2.5920870    -0.4498700
units angstrom
no_reorient  #important for SAPT in psi4, default
symmetry c1  #important for SAPT in psi4, default
}

set PROPERTIES_ORIGIN ["COM"]
properties('MP2/aug-cc-pvtz', properties = ['dipole'])
--------------------------------------------------------------------------

    Molecular point group: c1
  Charge       = 0
  Multiplicity = 1
  Basis Set: AUG-CC-PVTZ
    Blend: AUG-CC-PVTZ
  Basis Set: (AUG-CC-PVTZ AUX)
    Blend: AUG-CC-PVTZ-JKFIT

    Orbital Energies [Eh]
    ---------------------

    Doubly Occupied:

       1A    -20.515570     2A    -15.634867     3A    -15.590989
       4A    -15.560344     5A    -11.363300     6A    -11.295860
       7A    -11.280582     8A    -11.264018     9A    -11.254271
      10A    -11.252194    11A    -11.243524    12A     -1.382289
      13A     -1.356093    14A     -1.244268    15A     -1.183433
      16A     -1.037552    17A     -0.972664    18A     -0.965304
      19A     -0.937599    20A     -0.832947    21A     -0.814109
      22A     -0.741227    23A     -0.711642    24A     -0.668260
      25A     -0.657030    26A     -0.649439    27A     -0.640408
      28A     -0.602108    29A     -0.581175    30A     -0.571088
      31A     -0.566645    32A     -0.559095    33A     -0.555022
      34A     -0.552316    35A     -0.527499    36A     -0.524657
      37A     -0.447611    38A     -0.427960    39A     -0.398328
      40A     -0.372334    41A     -0.314350

  @DF-RHF Final Energy:  -509.84883809087569

   => Energetics <=

    Nuclear Repulsion Energy =            629.4286112107272402
    One-Electron Energy =               -1942.4549628783063326
    Two-Electron Energy =                 803.1775135767034044
    Total Energy =                       -509.8488380908756881
  Basis Set: (AUG-CC-PVTZ AUX)
    Blend: AUG-CC-PVTZ-RI
    Molecular point group: c1

    Geometry (in Angstrom), charge = 0, multiplicity = 1:

       Center              X                  Y                   Z               Mass
    ------------   -----------------  -----------------  -----------------  -----------------
         O           -0.801929785490     1.730976757678    -0.417899584827    15.994914619570
         N            1.697839414510     0.400889157678     0.152873615173    14.003074004430
         N           -1.964027785490    -0.181496242322     0.062985415173    14.003074004430
         N            0.729086214510    -1.498779242322    -0.330183584827    14.003074004430
         C            0.483400214510    -0.206013242322    -0.064689584827    12.000000000000
         C           -0.810461785490     0.514866757678    -0.144748584827    12.000000000000
         C            2.676612214510    -0.417556242322     0.038489415173    12.000000000000
         C            1.831785214510     1.906547757678     0.443304415173    12.000000000000
         C           -3.225342785490     0.513640757678    -0.142303584827    12.000000000000
         C           -2.085181785490    -1.536065242322     0.582129415173    12.000000000000
         C            2.086216214510    -1.629154242322    -0.261856584827    12.000000000000
         H            3.706979214510    -0.125310242322     0.186248415173     1.007825032230
         H            1.104622214510     2.228983757678     1.185730415173     1.007825032230
         H            2.843736214510     2.037937757678     0.829779415173     1.007825032230
         H            1.687189214510     2.494319757678    -0.461898584827     1.007825032230
         H           -3.881599785490    -0.105300242322    -0.762327584827     1.007825032230
         H           -3.026389785490     1.462119757678    -0.636759584827     1.007825032230
         H           -3.722513785490     0.701456757678     0.816645415173     1.007825032230
         H           -1.109112785490    -1.937334242322     0.833167415173     1.007825032230
         H           -2.544123785490    -2.188290242322    -0.168812584827     1.007825032230
         H           -2.728681785490    -1.516935242322     1.469400415173     1.007825032230
         H            2.570275214510    -2.582002242322    -0.432279584827     1.007825032230

  Basis Set: AUG-CC-PVTZ
    Blend: AUG-CC-PVTZ
  Basis Set: (AUG-CC-PVTZ AUX)
    Blend: AUG-CC-PVTZ-JKFIT
	 Reference Energy          =    -509.8488380908756881 [Eh]
	 Singles Energy            =      -0.0000000000000000 [Eh]
	 Same-Spin Energy          =      -0.5440968105871760 [Eh]
	 Opposite-Spin Energy      =      -1.6946717089351122 [Eh]
	 Correlation Energy        =      -2.2387685195222882 [Eh]
	 Total Energy              =    -512.0876066103979838 [Eh]

	 ================> DF-SCS-MP2 Energies <==================
	-----------------------------------------------------------
	 SCS Same-Spin Scale       =       0.3333333333333333 [-]
	 SCS Opposite-Spin Scale   =       1.2000000000000000 [-]
	 SCS Same-Spin Energy      =      -0.1813656035290586 [Eh]
	 SCS Opposite-Spin Energy  =      -2.0336060507221347 [Eh]
	 SCS Correlation Energy    =      -2.2149716542511935 [Eh]
	 SCS Total Energy          =    -512.0638097451268322 [Eh]
	-----------------------------------------------------------

  Dipole Moment: [D]
     X:     0.8186      Y:     0.2335      Z:     1.7652     Total:     1.9597

*** Psi4 exiting successfully. Buy a developer a beer!
