                               Psi4 1.3.2 release

  ==> Input File <==

--------------------------------------------------------------------------
#psi4
#
memory 32 gb

molecule  {
0 1
  O       -0.7670850     1.7208920    -0.4354900
  N        1.6863020     0.4747470     0.1388600
  N       -1.9291830    -0.1915810     0.0453950
  N        0.7639310    -1.5088640    -0.3477740
  C        0.5058889    -0.1957427    -0.0793033
  C       -0.7756170     0.5047820    -0.1623390
  C        2.7114570    -0.4276410     0.0208990
  C        1.8666300     1.8964630     0.4257140
  C       -3.1904980     0.5035560    -0.1598940
  C       -2.0503370    -1.5461500     0.5645390
  C        2.1210610    -1.6392390    -0.2794470
  H        3.7418240    -0.1353950     0.1686580
  H        1.1394670     2.2188990     1.1681400
  H        2.8785810     2.0278530     0.8121890
  H        1.7220340     2.4842350    -0.4794890
  H       -3.8467550    -0.1153850    -0.7799180
  H       -2.9915450     1.4520350    -0.6543500
  H       -3.6876690     0.6913720     0.7990550
  H       -1.0742680    -1.9474190     0.8155770
  H       -2.5092790    -2.1983750    -0.1864030
  H       -2.6938370    -1.5270200     1.4518100
  H        2.6051200    -2.5920870    -0.4498700
units angstrom
no_reorient  #important for SAPT in psi4, default
symmetry c1  #important for SAPT in psi4, default
}

set PROPERTIES_ORIGIN ["COM"]
properties('MP2/aug-cc-pvtz', properties = ['dipole'])
--------------------------------------------------------------------------

    Molecular point group: c1
  Charge       = 0
  Multiplicity = 1
  Basis Set: AUG-CC-PVTZ
    Blend: AUG-CC-PVTZ
  Basis Set: (AUG-CC-PVTZ AUX)
    Blend: AUG-CC-PVTZ-JKFIT

    Orbital Energies [Eh]
    ---------------------

    Doubly Occupied:

       1A    -20.516834     2A    -15.636396     3A    -15.591816
       4A    -15.563256     5A    -11.361756     6A    -11.305452
       7A    -11.271982     8A    -11.270230     9A    -11.254949
      10A    -11.252668    11A    -11.252491    12A     -1.380769
      13A     -1.339832    14A     -1.245286    15A     -1.184511
      16A     -1.034044    17A     -0.976817    18A     -0.966400
      19A     -0.939150    20A     -0.835489    21A     -0.809805
      22A     -0.741524    23A     -0.709832    24A     -0.663231
      25A     -0.655893    26A     -0.646656    27A     -0.639811
      28A     -0.605276    29A     -0.591188    30A     -0.575527
      31A     -0.563877    32A     -0.557140    33A     -0.554195
      34A     -0.552789    35A     -0.526786    36A     -0.522646
      37A     -0.447502    38A     -0.430230    39A     -0.389865
      40A     -0.372960    41A     -0.320029

  @DF-RHF Final Energy:  -509.85768263641057

   => Energetics <=

    Nuclear Repulsion Energy =            628.9669186083297063
    One-Electron Energy =               -1941.5354145921212421
    Two-Electron Energy =                 802.7108133473809630
    Total Energy =                       -509.8576826364105727
  Basis Set: (AUG-CC-PVTZ AUX)
    Blend: AUG-CC-PVTZ-RI
    Molecular point group: c1

    Geometry (in Angstrom), charge = 0, multiplicity = 1:

       Center              X                  Y                   Z               Mass
    ------------   -----------------  -----------------  -----------------  -----------------
         O           -0.796718697409     1.721703022790    -0.418460081765    15.994914619570
         N            1.656668302591     0.475558022790     0.155889918235    14.003074004430
         N           -1.958816697409    -0.190769977210     0.062424918235    14.003074004430
         N            0.734297302591    -1.508052977210    -0.330744081765    14.003074004430
         C            0.476255202591    -0.194931677210    -0.062273381765    12.000000000000
         C           -0.805250697409     0.505593022790    -0.145309081765    12.000000000000
         C            2.681823302591    -0.426829977210     0.037928918235    12.000000000000
         C            1.836996302591     1.897274022790     0.442743918235    12.000000000000
         C           -3.220131697409     0.504367022790    -0.142864081765    12.000000000000
         C           -2.079970697409    -1.545338977210     0.581568918235    12.000000000000
         C            2.091427302591    -1.638427977210    -0.262417081765    12.000000000000
         H            3.712190302591    -0.134583977210     0.185687918235     1.007825032230
         H            1.109833302591     2.219710022790     1.185169918235     1.007825032230
         H            2.848947302591     2.028664022790     0.829218918235     1.007825032230
         H            1.692400302591     2.485046022790    -0.462459081765     1.007825032230
         H           -3.876388697409    -0.114573977210    -0.762888081765     1.007825032230
         H           -3.021178697409     1.452846022790    -0.637320081765     1.007825032230
         H           -3.717302697409     0.692183022790     0.816084918235     1.007825032230
         H           -1.103901697409    -1.946607977210     0.832606918235     1.007825032230
         H           -2.538912697409    -2.197563977210    -0.169373081765     1.007825032230
         H           -2.723470697409    -1.526208977210     1.468839918235     1.007825032230
         H            2.575486302591    -2.591275977210    -0.432840081765     1.007825032230

  Basis Set: AUG-CC-PVTZ
    Blend: AUG-CC-PVTZ
  Basis Set: (AUG-CC-PVTZ AUX)
    Blend: AUG-CC-PVTZ-JKFIT
	 Reference Energy          =    -509.8576826364105727 [Eh]
	 Singles Energy            =      -0.0000000000000000 [Eh]
	 Same-Spin Energy          =      -0.5447030201052867 [Eh]
	 Opposite-Spin Energy      =      -1.6967037606377979 [Eh]
	 Correlation Energy        =      -2.2414067807430849 [Eh]
	 Total Energy              =    -512.0990894171536638 [Eh]

	 ================> DF-SCS-MP2 Energies <==================
	-----------------------------------------------------------
	 SCS Same-Spin Scale       =       0.3333333333333333 [-]
	 SCS Opposite-Spin Scale   =       1.2000000000000000 [-]
	 SCS Same-Spin Energy      =      -0.1815676733684289 [Eh]
	 SCS Opposite-Spin Energy  =      -2.0360445127653573 [Eh]
	 SCS Correlation Energy    =      -2.2176121861337861 [Eh]
	 SCS Total Energy          =    -512.0752948225443788 [Eh]
	-----------------------------------------------------------

  Dipole Moment: [D]
     X:     0.8118      Y:    -0.0080      Z:     1.7231     Total:     1.9048

*** Psi4 exiting successfully. Buy a developer a beer!
