                               Psi4 1.3.2 release

  ==> Input File <==

--------------------------------------------------------------------------
#psi4
#
memory 32 gb

molecule  {
0 1
  O       -0.7670850     1.7208920    -0.4354900
  N        1.6863020     0.4747470     0.1388600
  N       -1.9291830    -0.1915810     0.0453950
  N        0.7639310    -1.5088640    -0.3477740
  C        0.5440208    -0.2561711    -0.0880305
  C       -0.7756170     0.5047820    -0.1623390
  C        2.7114570    -0.4276410     0.0208990
  C        1.8666300     1.8964630     0.4257140
  C       -3.1904980     0.5035560    -0.1598940
  C       -2.0503370    -1.5461500     0.5645390
  C        2.1210610    -1.6392390    -0.2794470
  H        3.7418240    -0.1353950     0.1686580
  H        1.1394670     2.2188990     1.1681400
  H        2.8785810     2.0278530     0.8121890
  H        1.7220340     2.4842350    -0.4794890
  H       -3.8467550    -0.1153850    -0.7799180
  H       -2.9915450     1.4520350    -0.6543500
  H       -3.6876690     0.6913720     0.7990550
  H       -1.0742680    -1.9474190     0.8155770
  H       -2.5092790    -2.1983750    -0.1864030
  H       -2.6938370    -1.5270200     1.4518100
  H        2.6051200    -2.5920870    -0.4498700
units angstrom
no_reorient  #important for SAPT in psi4, default
symmetry c1  #important for SAPT in psi4, default
}

set PROPERTIES_ORIGIN ["COM"]
properties('MP2/aug-cc-pvtz', properties = ['dipole'])
--------------------------------------------------------------------------

    Molecular point group: c1
  Charge       = 0
  Multiplicity = 1
  Basis Set: AUG-CC-PVTZ
    Blend: AUG-CC-PVTZ
  Basis Set: (AUG-CC-PVTZ AUX)
    Blend: AUG-CC-PVTZ-JKFIT

    Orbital Energies [Eh]
    ---------------------

    Doubly Occupied:

       1A    -20.519035     2A    -15.628745     3A    -15.592339
       4A    -15.558214     5A    -11.364879     6A    -11.305212
       7A    -11.272151     8A    -11.268019     9A    -11.256047
      10A    -11.252989    11A    -11.249597    12A     -1.380367
      13A     -1.347258    14A     -1.245731    15A     -1.198010
      16A     -1.028430    17A     -0.976128    18A     -0.967069
      19A     -0.938059    20A     -0.826173    21A     -0.811740
      22A     -0.742637    23A     -0.709709    24A     -0.661718
      25A     -0.654458    26A     -0.644147    27A     -0.640359
      28A     -0.606579    29A     -0.594480    30A     -0.571804
      31A     -0.563707    32A     -0.557250    33A     -0.555649
      34A     -0.553385    35A     -0.528103    36A     -0.523244
      37A     -0.457178    38A     -0.425269    39A     -0.395448
      40A     -0.373378    41A     -0.321479

  @DF-RHF Final Energy:  -509.86093900935469

   => Energetics <=

    Nuclear Repulsion Energy =            629.0682684460327891
    One-Electron Energy =               -1941.7260679693681595
    Two-Electron Energy =                 802.7968605139806186
    Total Energy =                       -509.8609390093547518
  Basis Set: (AUG-CC-PVTZ AUX)
    Blend: AUG-CC-PVTZ-RI
    Molecular point group: c1

    Geometry (in Angstrom), charge = 0, multiplicity = 1:

       Center              X                  Y                   Z               Mass
    ------------   -----------------  -----------------  -----------------  -----------------
         O           -0.799707672302     1.726439712292    -0.417775998840    15.994914619570
         N            1.653679327698     0.480294712292     0.156574001160    14.003074004430
         N           -1.961805672302    -0.186033287708     0.063109001160    14.003074004430
         N            0.731308327698    -1.503316287708    -0.330059998840    14.003074004430
         C            0.511398127698    -0.250623387708    -0.070316498840    12.000000000000
         C           -0.808239672302     0.510329712292    -0.144624998840    12.000000000000
         C            2.678834327698    -0.422093287708     0.038613001160    12.000000000000
         C            1.834007327698     1.902010712292     0.443428001160    12.000000000000
         C           -3.223120672302     0.509103712292    -0.142179998840    12.000000000000
         C           -2.082959672302    -1.540602287708     0.582253001160    12.000000000000
         C            2.088438327698    -1.633691287708    -0.261732998840    12.000000000000
         H            3.709201327698    -0.129847287708     0.186372001160     1.007825032230
         H            1.106844327698     2.224446712292     1.185854001160     1.007825032230
         H            2.845958327698     2.033400712292     0.829903001160     1.007825032230
         H            1.689411327698     2.489782712292    -0.461774998840     1.007825032230
         H           -3.879377672302    -0.109837287708    -0.762203998840     1.007825032230
         H           -3.024167672302     1.457582712292    -0.636635998840     1.007825032230
         H           -3.720291672302     0.696919712292     0.816769001160     1.007825032230
         H           -1.106890672302    -1.941871287708     0.833291001160     1.007825032230
         H           -2.541901672302    -2.192827287708    -0.168688998840     1.007825032230
         H           -2.726459672302    -1.521472287708     1.469524001160     1.007825032230
         H            2.572497327698    -2.586539287708    -0.432155998840     1.007825032230

  Basis Set: AUG-CC-PVTZ
    Blend: AUG-CC-PVTZ
  Basis Set: (AUG-CC-PVTZ AUX)
    Blend: AUG-CC-PVTZ-JKFIT
	 Reference Energy          =    -509.8609390093546949 [Eh]
	 Singles Energy            =      -0.0000000000000000 [Eh]
	 Same-Spin Energy          =      -0.5425894003704304 [Eh]
	 Opposite-Spin Energy      =      -1.6934099967165333 [Eh]
	 Correlation Energy        =      -2.2359993970869638 [Eh]
	 Total Energy              =    -512.0969384064416090 [Eh]

	 ================> DF-SCS-MP2 Energies <==================
	-----------------------------------------------------------
	 SCS Same-Spin Scale       =       0.3333333333333333 [-]
	 SCS Opposite-Spin Scale   =       1.2000000000000000 [-]
	 SCS Same-Spin Energy      =      -0.1808631334568101 [Eh]
	 SCS Opposite-Spin Energy  =      -2.0320919960598398 [Eh]
	 SCS Correlation Energy    =      -2.2129551295166499 [Eh]
	 SCS Total Energy          =    -512.0738941388713101 [Eh]
	-----------------------------------------------------------

  Dipole Moment: [D]
     X:     0.6175      Y:    -0.0029      Z:     1.7044     Total:     1.8128

*** Psi4 exiting successfully. Buy a developer a beer!
