                               Psi4 1.3.2 release

  ==> Input File <==

--------------------------------------------------------------------------
#psi4
#
memory 32 gb

molecule  {
0 1
  O       -0.7670850     1.7208920    -0.4354900
  N        1.7819191     0.4597726     0.1711074
  N       -1.9291830    -0.1915810     0.0453950
  N        0.7639310    -1.5088640    -0.3477740
  C        0.5182450    -0.2160980    -0.0822800
  C       -0.7756170     0.5047820    -0.1623390
  C        2.7114570    -0.4276410     0.0208990
  C        1.8666300     1.8964630     0.4257140
  C       -3.1904980     0.5035560    -0.1598940
  C       -2.0503370    -1.5461500     0.5645390
  C        2.1210610    -1.6392390    -0.2794470
  H        3.7418240    -0.1353950     0.1686580
  H        1.1394670     2.2188990     1.1681400
  H        2.8785810     2.0278530     0.8121890
  H        1.7220340     2.4842350    -0.4794890
  H       -3.8467550    -0.1153850    -0.7799180
  H       -2.9915450     1.4520350    -0.6543500
  H       -3.6876690     0.6913720     0.7990550
  H       -1.0742680    -1.9474190     0.8155770
  H       -2.5092790    -2.1983750    -0.1864030
  H       -2.6938370    -1.5270200     1.4518100
  H        2.6051200    -2.5920870    -0.4498700
units angstrom
no_reorient  #important for SAPT in psi4, default
symmetry c1  #important for SAPT in psi4, default
}

set PROPERTIES_ORIGIN ["COM"]
properties('MP2/aug-cc-pvtz', properties = ['dipole'])
--------------------------------------------------------------------------

    Molecular point group: c1
  Charge       = 0
  Multiplicity = 1
  Basis Set: AUG-CC-PVTZ
    Blend: AUG-CC-PVTZ
  Basis Set: (AUG-CC-PVTZ AUX)
    Blend: AUG-CC-PVTZ-JKFIT

    Orbital Energies [Eh]
    ---------------------

    Doubly Occupied:

       1A    -20.515209     2A    -15.634798     3A    -15.590781
       4A    -15.571360     5A    -11.362910     6A    -11.303957
       7A    -11.273374     8A    -11.271482     9A    -11.255092
      10A    -11.252184    11A    -11.245559    12A     -1.377604
      13A     -1.345454    14A     -1.244497    15A     -1.196955
      16A     -1.035022    17A     -0.977694    18A     -0.964874
      19A     -0.932171    20A     -0.833870    21A     -0.808802
      22A     -0.744457    23A     -0.710621    24A     -0.665363
      25A     -0.656321    26A     -0.647776    27A     -0.641103
      28A     -0.604768    29A     -0.591254    30A     -0.571607
      31A     -0.561818    32A     -0.555422    33A     -0.554341
      34A     -0.552601    35A     -0.526411    36A     -0.523931
      37A     -0.453412    38A     -0.428104    39A     -0.402861
      40A     -0.372339    41A     -0.310592

  @DF-RHF Final Energy:  -509.84772897046491

   => Energetics <=

    Nuclear Repulsion Energy =            627.9770603322334637
    One-Electron Energy =               -1939.5120726162656410
    Two-Electron Energy =                 801.6872833135673773
    Total Energy =                       -509.8477289704649138
  Basis Set: (AUG-CC-PVTZ AUX)
    Blend: AUG-CC-PVTZ-RI
    Molecular point group: c1

    Geometry (in Angstrom), charge = 0, multiplicity = 1:

       Center              X                  Y                   Z               Mass
    ------------   -----------------  -----------------  -----------------  -----------------
         O           -0.806433273593     1.724668275927    -0.421176403882    15.994914619570
         N            1.742570826407     0.463548875927     0.185420996118    14.003074004430
         N           -1.968531273593    -0.187804724073     0.059708596118    14.003074004430
         N            0.724582726407    -1.505087724073    -0.333460403882    14.003074004430
         C            0.478896726407    -0.212321724073    -0.067966403882    12.000000000000
         C           -0.814965273593     0.508558275927    -0.148025403882    12.000000000000
         C            2.672108726407    -0.423864724073     0.035212596118    12.000000000000
         C            1.827281726407     1.900239275927     0.440027596118    12.000000000000
         C           -3.229846273593     0.507332275927    -0.145580403882    12.000000000000
         C           -2.089685273593    -1.542373724073     0.578852596118    12.000000000000
         C            2.081712726407    -1.635462724073    -0.265133403882    12.000000000000
         H            3.702475726407    -0.131618724073     0.182971596118     1.007825032230
         H            1.100118726407     2.222675275927     1.182453596118     1.007825032230
         H            2.839232726407     2.031629275927     0.826502596118     1.007825032230
         H            1.682685726407     2.488011275927    -0.465175403882     1.007825032230
         H           -3.886103273593    -0.111608724073    -0.765604403882     1.007825032230
         H           -3.030893273593     1.455811275927    -0.640036403882     1.007825032230
         H           -3.727017273593     0.695148275927     0.813368596118     1.007825032230
         H           -1.113616273593    -1.943642724073     0.829890596118     1.007825032230
         H           -2.548627273593    -2.194598724073    -0.172089403882     1.007825032230
         H           -2.733185273593    -1.523243724073     1.466123596118     1.007825032230
         H            2.565771726407    -2.588310724073    -0.435556403882     1.007825032230

  Basis Set: AUG-CC-PVTZ
    Blend: AUG-CC-PVTZ
  Basis Set: (AUG-CC-PVTZ AUX)
    Blend: AUG-CC-PVTZ-JKFIT
	 Reference Energy          =    -509.8477289704649138 [Eh]
	 Singles Energy            =      -0.0000000000000000 [Eh]
	 Same-Spin Energy          =      -0.5446451719219330 [Eh]
	 Opposite-Spin Energy      =      -1.6961507335115584 [Eh]
	 Correlation Energy        =      -2.2407959054334912 [Eh]
	 Total Energy              =    -512.0885248758984289 [Eh]

	 ================> DF-SCS-MP2 Energies <==================
	-----------------------------------------------------------
	 SCS Same-Spin Scale       =       0.3333333333333333 [-]
	 SCS Opposite-Spin Scale   =       1.2000000000000000 [-]
	 SCS Same-Spin Energy      =      -0.1815483906406443 [Eh]
	 SCS Opposite-Spin Energy  =      -2.0353808802138702 [Eh]
	 SCS Correlation Energy    =      -2.2169292708545143 [Eh]
	 SCS Total Energy          =    -512.0646582413194210 [Eh]
	-----------------------------------------------------------

  Dipole Moment: [D]
     X:     0.7440      Y:     0.0306      Z:     1.7029     Total:     1.8586

*** Psi4 exiting successfully. Buy a developer a beer!
