                               Psi4 1.3.2 release

  ==> Input File <==

--------------------------------------------------------------------------
#psi4
#
memory 32 gb

molecule  {
0 1
  O       -0.7670850     1.7208920    -0.4354900
  N        1.6863020     0.4747470     0.1388600
  N       -1.9291830    -0.1915810     0.0453950
  N        0.7639310    -1.5088640    -0.3477740
  C        0.5182450    -0.2160980    -0.0822800
  C       -0.7756170     0.5047820    -0.1623390
  C        2.7114570    -0.4276410     0.0208990
  C        1.8666300     1.8964630     0.4257140
  C       -3.1904980     0.5035560    -0.1598940
  C       -2.0503370    -1.5461500     0.5645390
  C        2.1638170    -1.5514960    -0.2576962
  H        3.7418240    -0.1353950     0.1686580
  H        1.1394670     2.2188990     1.1681400
  H        2.8785810     2.0278530     0.8121890
  H        1.7220340     2.4842350    -0.4794890
  H       -3.8467550    -0.1153850    -0.7799180
  H       -2.9915450     1.4520350    -0.6543500
  H       -3.6876690     0.6913720     0.7990550
  H       -1.0742680    -1.9474190     0.8155770
  H       -2.5092790    -2.1983750    -0.1864030
  H       -2.6938370    -1.5270200     1.4518100
  H        2.6051200    -2.5920870    -0.4498700
units angstrom
no_reorient  #important for SAPT in psi4, default
symmetry c1  #important for SAPT in psi4, default
}

set PROPERTIES_ORIGIN ["COM"]
properties('MP2/aug-cc-pvtz', properties = ['dipole'])
--------------------------------------------------------------------------

    Molecular point group: c1
  Charge       = 0
  Multiplicity = 1
  Basis Set: AUG-CC-PVTZ
    Blend: AUG-CC-PVTZ
  Basis Set: (AUG-CC-PVTZ AUX)
    Blend: AUG-CC-PVTZ-JKFIT

    Orbital Energies [Eh]
    ---------------------

    Doubly Occupied:

       1A    -20.520325     2A    -15.624956     3A    -15.594287
       4A    -15.561144     5A    -11.364936     6A    -11.310343
       7A    -11.269579     8A    -11.256479     9A    -11.256330
      10A    -11.254189    11A    -11.243986    12A     -1.382705
      13A     -1.344679    14A     -1.247290    15A     -1.179960
      16A     -1.047830    17A     -0.974668    18A     -0.967645
      19A     -0.940709    20A     -0.838749    21A     -0.802519
      22A     -0.739608    23A     -0.711741    24A     -0.663546
      25A     -0.655425    26A     -0.647620    27A     -0.640909
      28A     -0.600450    29A     -0.590166    30A     -0.573217
      31A     -0.561313    32A     -0.555591    33A     -0.554492
      34A     -0.542470    35A     -0.527348    36A     -0.525345
      37A     -0.457044    38A     -0.431226    39A     -0.383519
      40A     -0.374524    41A     -0.339494

  @DF-RHF Final Energy:  -509.84767836273016

   => Energetics <=

    Nuclear Repulsion Energy =            630.1766395105615857
    One-Electron Energy =               -1943.9319255825228083
    Two-Electron Energy =                 803.9076077092308878
    Total Energy =                       -509.8476783627302211
  Basis Set: (AUG-CC-PVTZ AUX)
    Blend: AUG-CC-PVTZ-RI
    Molecular point group: c1

    Geometry (in Angstrom), charge = 0, multiplicity = 1:

       Center              X                  Y                   Z               Mass
    ------------   -----------------  -----------------  -----------------  -----------------
         O           -0.801038667911     1.716420827478    -0.419931692504    15.994914619570
         N            1.652348332089     0.470275827478     0.154418307496    14.003074004430
         N           -1.963136667911    -0.196052172522     0.060953307496    14.003074004430
         N            0.729977332089    -1.513335172522    -0.332215692504    14.003074004430
         C            0.484291332089    -0.220569172522    -0.066721692504    12.000000000000
         C           -0.809570667911     0.500310827478    -0.146780692504    12.000000000000
         C            2.677503332089    -0.432112172522     0.036457307496    12.000000000000
         C            1.832676332089     1.891991827478     0.441272307496    12.000000000000
         C           -3.224451667911     0.499084827478    -0.144335692504    12.000000000000
         C           -2.084290667911    -1.550621172522     0.580097307496    12.000000000000
         C            2.129863332089    -1.555967172522    -0.242137892504    12.000000000000
         H            3.707870332089    -0.139866172522     0.184216307496     1.007825032230
         H            1.105513332089     2.214427827478     1.183698307496     1.007825032230
         H            2.844627332089     2.023381827478     0.827747307496     1.007825032230
         H            1.688080332089     2.479763827478    -0.463930692504     1.007825032230
         H           -3.880708667911    -0.119856172522    -0.764359692504     1.007825032230
         H           -3.025498667911     1.447563827478    -0.638791692504     1.007825032230
         H           -3.721622667911     0.686900827478     0.814613307496     1.007825032230
         H           -1.108221667911    -1.951890172522     0.831135307496     1.007825032230
         H           -2.543232667911    -2.202846172522    -0.170844692504     1.007825032230
         H           -2.727790667911    -1.531491172522     1.467368307496     1.007825032230
         H            2.571166332089    -2.596558172522    -0.434311692504     1.007825032230

  Basis Set: AUG-CC-PVTZ
    Blend: AUG-CC-PVTZ
  Basis Set: (AUG-CC-PVTZ AUX)
    Blend: AUG-CC-PVTZ-JKFIT
	 Reference Energy          =    -509.8476783627301643 [Eh]
	 Singles Energy            =      -0.0000000000000000 [Eh]
	 Same-Spin Energy          =      -0.5427656218691503 [Eh]
	 Opposite-Spin Energy      =      -1.6945528731485746 [Eh]
	 Correlation Energy        =      -2.2373184950177247 [Eh]
	 Total Energy              =    -512.0849968577479103 [Eh]

	 ================> DF-SCS-MP2 Energies <==================
	-----------------------------------------------------------
	 SCS Same-Spin Scale       =       0.3333333333333333 [-]
	 SCS Opposite-Spin Scale   =       1.2000000000000000 [-]
	 SCS Same-Spin Energy      =      -0.1809218739563834 [Eh]
	 SCS Opposite-Spin Energy  =      -2.0334634477782894 [Eh]
	 SCS Correlation Energy    =      -2.2143853217346727 [Eh]
	 SCS Total Energy          =    -512.0620636844648743 [Eh]
	-----------------------------------------------------------

  Dipole Moment: [D]
     X:     0.6564      Y:     0.0607      Z:     1.7335     Total:     1.8546

*** Psi4 exiting successfully. Buy a developer a beer!
