                               Psi4 1.3.2 release

  ==> Input File <==

--------------------------------------------------------------------------
#psi4
#
memory 32 gb

molecule  {
0 1
  O       -0.7670850     1.7208920    -0.4354900
  N        1.6863020     0.4747470     0.1388600
  N       -1.9291830    -0.1915810     0.0453950
  N        0.7639310    -1.5088640    -0.3477740
  C        0.5182450    -0.2160980    -0.0822800
  C       -0.7756170     0.5047820    -0.1623390
  C        2.7114570    -0.4276410     0.0208990
  C        1.8789683     1.9937386     0.4453409
  C       -3.1904980     0.5035560    -0.1598940
  C       -2.0503370    -1.5461500     0.5645390
  C        2.1210610    -1.6392390    -0.2794470
  H        3.7418240    -0.1353950     0.1686580
  H        1.1394670     2.2188990     1.1681400
  H        2.8785810     2.0278530     0.8121890
  H        1.7220340     2.4842350    -0.4794890
  H       -3.8467550    -0.1153850    -0.7799180
  H       -2.9915450     1.4520350    -0.6543500
  H       -3.6876690     0.6913720     0.7990550
  H       -1.0742680    -1.9474190     0.8155770
  H       -2.5092790    -2.1983750    -0.1864030
  H       -2.6938370    -1.5270200     1.4518100
  H        2.6051200    -2.5920870    -0.4498700
units angstrom
no_reorient  #important for SAPT in psi4, default
symmetry c1  #important for SAPT in psi4, default
}

set PROPERTIES_ORIGIN ["COM"]
properties('MP2/aug-cc-pvtz', properties = ['dipole'])
--------------------------------------------------------------------------

    Molecular point group: c1
  Charge       = 0
  Multiplicity = 1
  Basis Set: AUG-CC-PVTZ
    Blend: AUG-CC-PVTZ
  Basis Set: (AUG-CC-PVTZ AUX)
    Blend: AUG-CC-PVTZ-JKFIT

    Orbital Energies [Eh]
    ---------------------

    Doubly Occupied:

       1A    -20.516636     2A    -15.629392     3A    -15.591010
       4A    -15.557930     5A    -11.361528     6A    -11.301238
       7A    -11.277315     8A    -11.266001     9A    -11.254221
      10A    -11.252114    11A    -11.248096    12A     -1.378019
      13A     -1.333300    14A     -1.244182    15A     -1.174890
      16A     -1.027681    17A     -0.978858    18A     -0.965691
      19A     -0.938479    20A     -0.828723    21A     -0.805662
      22A     -0.734570    23A     -0.706032    24A     -0.659834
      25A     -0.653352    26A     -0.643334    27A     -0.639975
      28A     -0.612177    29A     -0.582318    30A     -0.574259
      31A     -0.567449    32A     -0.561117    33A     -0.555844
      34A     -0.552513    35A     -0.527663    36A     -0.522623
      37A     -0.447548    38A     -0.428254    39A     -0.390854
      40A     -0.372403    41A     -0.317277

  @DF-RHF Final Energy:  -509.85273092992060

   => Energetics <=

    Nuclear Repulsion Energy =            627.0071906820987806
    One-Electron Energy =               -1937.7591150373291384
    Two-Electron Energy =                 800.8991934253097043
    Total Energy =                       -509.8527309299206536
  Basis Set: (AUG-CC-PVTZ AUX)
    Blend: AUG-CC-PVTZ-RI
    Molecular point group: c1

    Geometry (in Angstrom), charge = 0, multiplicity = 1:

       Center              X                  Y                   Z               Mass
    ------------   -----------------  -----------------  -----------------  -----------------
         O           -0.798654371781     1.715673613149    -0.419765210273    15.994914619570
         N            1.654732628219     0.469528613149     0.154584789727    14.003074004430
         N           -1.960752371781    -0.196799386851     0.061119789727    14.003074004430
         N            0.732361628219    -1.514082386851    -0.332049210273    14.003074004430
         C            0.486675628219    -0.221316386851    -0.066555210273    12.000000000000
         C           -0.807186371781     0.499563613149    -0.146614210273    12.000000000000
         C            2.679887628219    -0.432859386851     0.036623789727    12.000000000000
         C            1.847398928219     1.988520213149     0.461065689727    12.000000000000
         C           -3.222067371781     0.498337613149    -0.144169210273    12.000000000000
         C           -2.081906371781    -1.551368386851     0.580263789727    12.000000000000
         C            2.089491628219    -1.644457386851    -0.263722210273    12.000000000000
         H            3.710254628219    -0.140613386851     0.184382789727     1.007825032230
         H            1.107897628219     2.213680613149     1.183864789727     1.007825032230
         H            2.847011628219     2.022634613149     0.827913789727     1.007825032230
         H            1.690464628219     2.479016613149    -0.463764210273     1.007825032230
         H           -3.878324371781    -0.120603386851    -0.764193210273     1.007825032230
         H           -3.023114371781     1.446816613149    -0.638625210273     1.007825032230
         H           -3.719238371781     0.686153613149     0.814779789727     1.007825032230
         H           -1.105837371781    -1.952637386851     0.831301789727     1.007825032230
         H           -2.540848371781    -2.203593386851    -0.170678210273     1.007825032230
         H           -2.725406371781    -1.532238386851     1.467534789727     1.007825032230
         H            2.573550628219    -2.597305386851    -0.434145210273     1.007825032230

  Basis Set: AUG-CC-PVTZ
    Blend: AUG-CC-PVTZ
  Basis Set: (AUG-CC-PVTZ AUX)
    Blend: AUG-CC-PVTZ-JKFIT
	 Reference Energy          =    -509.8527309299205967 [Eh]
	 Singles Energy            =      -0.0000000000000000 [Eh]
	 Same-Spin Energy          =      -0.5436643672675995 [Eh]
	 Opposite-Spin Energy      =      -1.6957227269701940 [Eh]
	 Correlation Energy        =      -2.2393870942377934 [Eh]
	 Total Energy              =    -512.0921180241583670 [Eh]

	 ================> DF-SCS-MP2 Energies <==================
	-----------------------------------------------------------
	 SCS Same-Spin Scale       =       0.3333333333333333 [-]
	 SCS Opposite-Spin Scale   =       1.2000000000000000 [-]
	 SCS Same-Spin Energy      =      -0.1812214557558665 [Eh]
	 SCS Opposite-Spin Energy  =      -2.0348672723642327 [Eh]
	 SCS Correlation Energy    =      -2.2160887281200994 [Eh]
	 SCS Total Energy          =    -512.0688196580407521 [Eh]
	-----------------------------------------------------------

  Dipole Moment: [D]
     X:     0.8169      Y:     0.2454      Z:     1.7724     Total:     1.9670

*** Psi4 exiting successfully. Buy a developer a beer!
