                               Psi4 1.3.2 release

  ==> Input File <==

--------------------------------------------------------------------------
#psi4
#
memory 32 gb

molecule  {
0 1
  O       -0.7670850     1.7208920    -0.4354900
  N        1.6863020     0.4747470     0.1388600
  N       -1.9768125    -0.1104513     0.0310688
  N        0.7639310    -1.5088640    -0.3477740
  C        0.5182450    -0.2160980    -0.0822800
  C       -0.7756170     0.5047820    -0.1623390
  C        2.7114570    -0.4276410     0.0208990
  C        1.8666300     1.8964630     0.4257140
  C       -3.1904980     0.5035560    -0.1598940
  C       -2.0503370    -1.5461500     0.5645390
  C        2.1210610    -1.6392390    -0.2794470
  H        3.7418240    -0.1353950     0.1686580
  H        1.1394670     2.2188990     1.1681400
  H        2.8785810     2.0278530     0.8121890
  H        1.7220340     2.4842350    -0.4794890
  H       -3.8467550    -0.1153850    -0.7799180
  H       -2.9915450     1.4520350    -0.6543500
  H       -3.6876690     0.6913720     0.7990550
  H       -1.0742680    -1.9474190     0.8155770
  H       -2.5092790    -2.1983750    -0.1864030
  H       -2.6938370    -1.5270200     1.4518100
  H        2.6051200    -2.5920870    -0.4498700
units angstrom
no_reorient  #important for SAPT in psi4, default
symmetry c1  #important for SAPT in psi4, default
}

set PROPERTIES_ORIGIN ["COM"]
properties('MP2/aug-cc-pvtz', properties = ['dipole'])
--------------------------------------------------------------------------

    Molecular point group: c1
  Charge       = 0
  Multiplicity = 1
  Basis Set: AUG-CC-PVTZ
    Blend: AUG-CC-PVTZ
  Basis Set: (AUG-CC-PVTZ AUX)
    Blend: AUG-CC-PVTZ-JKFIT

    Orbital Energies [Eh]
    ---------------------

    Doubly Occupied:

       1A    -20.513840     2A    -15.636156     3A    -15.589604
       4A    -15.563633     5A    -11.362016     6A    -11.309354
       7A    -11.272695     8A    -11.271279     9A    -11.260175
      10A    -11.253042    11A    -11.245315    12A     -1.381550
      13A     -1.344087    14A     -1.245037    15A     -1.190830
      16A     -1.035012    17A     -0.979133    18A     -0.964601
      19A     -0.937024    20A     -0.834026    21A     -0.812247
      22A     -0.742475    23A     -0.711452    24A     -0.663053
      25A     -0.656117    26A     -0.646149    27A     -0.641331
      28A     -0.608374    29A     -0.593901    30A     -0.578432
      31A     -0.569070    32A     -0.559969    33A     -0.553839
      34A     -0.552426    35A     -0.521252    36A     -0.512563
      37A     -0.451344    38A     -0.429445    39A     -0.393075
      40A     -0.368655    41A     -0.322494

  @DF-RHF Final Energy:  -509.85026614161438

   => Energetics <=

    Nuclear Repulsion Energy =            628.7898405058582512
    One-Electron Energy =               -1941.1280674921683840
    Two-Electron Energy =                 802.4879608446956354
    Total Energy =                       -509.8502661416143837
  Basis Set: (AUG-CC-PVTZ AUX)
    Blend: AUG-CC-PVTZ-RI
    Molecular point group: c1

    Geometry (in Angstrom), charge = 0, multiplicity = 1:

       Center              X                  Y                   Z               Mass
    ------------   -----------------  -----------------  -----------------  -----------------
         O           -0.793330589139     1.715877688946    -0.416916343366    15.994914619570
         N            1.660056410861     0.469732688946     0.157433656634    14.003074004430
         N           -2.003058089139    -0.115465611054     0.049642456634    14.003074004430
         N            0.737685410861    -1.513878311054    -0.329200343366    14.003074004430
         C            0.491999410861    -0.221112311054    -0.063706343366    12.000000000000
         C           -0.801862589139     0.499767688946    -0.143765343366    12.000000000000
         C            2.685211410861    -0.432655311054     0.039472656634    12.000000000000
         C            1.840384410861     1.891448688946     0.444287656634    12.000000000000
         C           -3.216743589139     0.498541688946    -0.141320343366    12.000000000000
         C           -2.076582589139    -1.551164311054     0.583112656634    12.000000000000
         C            2.094815410861    -1.644253311054    -0.260873343366    12.000000000000
         H            3.715578410861    -0.140409311054     0.187231656634     1.007825032230
         H            1.113221410861     2.213884688946     1.186713656634     1.007825032230
         H            2.852335410861     2.022838688946     0.830762656634     1.007825032230
         H            1.695788410861     2.479220688946    -0.460915343366     1.007825032230
         H           -3.873000589139    -0.120399311054    -0.761344343366     1.007825032230
         H           -3.017790589139     1.447020688946    -0.635776343366     1.007825032230
         H           -3.713914589139     0.686357688946     0.817628656634     1.007825032230
         H           -1.100513589139    -1.952433311054     0.834150656634     1.007825032230
         H           -2.535524589139    -2.203389311054    -0.167829343366     1.007825032230
         H           -2.720082589139    -1.532034311054     1.470383656634     1.007825032230
         H            2.578874410861    -2.597101311054    -0.431296343366     1.007825032230

  Basis Set: AUG-CC-PVTZ
    Blend: AUG-CC-PVTZ
  Basis Set: (AUG-CC-PVTZ AUX)
    Blend: AUG-CC-PVTZ-JKFIT
	 Reference Energy          =    -509.8502661416143837 [Eh]
	 Singles Energy            =      -0.0000000000000000 [Eh]
	 Same-Spin Energy          =      -0.5441773039140061 [Eh]
	 Opposite-Spin Energy      =      -1.6958884955497164 [Eh]
	 Correlation Energy        =      -2.2400657994637223 [Eh]
	 Total Energy              =    -512.0903319410781478 [Eh]

	 ================> DF-SCS-MP2 Energies <==================
	-----------------------------------------------------------
	 SCS Same-Spin Scale       =       0.3333333333333333 [-]
	 SCS Opposite-Spin Scale   =       1.2000000000000000 [-]
	 SCS Same-Spin Energy      =      -0.1813924346380020 [Eh]
	 SCS Opposite-Spin Energy  =      -2.0350661946596595 [Eh]
	 SCS Correlation Energy    =      -2.2164586292976614 [Eh]
	 SCS Total Energy          =    -512.0667247709120602 [Eh]
	-----------------------------------------------------------

  Dipole Moment: [D]
     X:     0.9469      Y:    -0.1662      Z:     1.7398     Total:     1.9878

*** Psi4 exiting successfully. Buy a developer a beer!
