                               Psi4 1.3.2 release

  ==> Input File <==

--------------------------------------------------------------------------
#psi4
#
memory 32 gb

molecule  {
0 1
  O       -0.7670850     1.7208920    -0.4354900
  N        1.6863020     0.4747470     0.1388600
  N       -1.9291830    -0.1915810     0.0453950
  N        0.7639310    -1.5088640    -0.3477740
  C        0.5182450    -0.2160980    -0.0822800
  C       -0.7756170     0.5047820    -0.1623390
  C        2.7271288    -0.4100819     0.0251982
  C        1.8666300     1.8964630     0.4257140
  C       -3.1904980     0.5035560    -0.1598940
  C       -2.0503370    -1.5461500     0.5645390
  C        2.1210610    -1.6392390    -0.2794470
  H        3.7418240    -0.1353950     0.1686580
  H        1.1394670     2.2188990     1.1681400
  H        2.8785810     2.0278530     0.8121890
  H        1.7220340     2.4842350    -0.4794890
  H       -3.8467550    -0.1153850    -0.7799180
  H       -2.9915450     1.4520350    -0.6543500
  H       -3.6876690     0.6913720     0.7990550
  H       -1.0742680    -1.9474190     0.8155770
  H       -2.5092790    -2.1983750    -0.1864030
  H       -2.6938370    -1.5270200     1.4518100
  H        2.6051200    -2.5920870    -0.4498700
units angstrom
no_reorient  #important for SAPT in psi4, default
symmetry c1  #important for SAPT in psi4, default
}

set PROPERTIES_ORIGIN ["COM"]
properties('MP2/aug-cc-pvtz', properties = ['dipole'])
--------------------------------------------------------------------------

    Molecular point group: c1
  Charge       = 0
  Multiplicity = 1
  Basis Set: AUG-CC-PVTZ
    Blend: AUG-CC-PVTZ
  Basis Set: (AUG-CC-PVTZ AUX)
    Blend: AUG-CC-PVTZ-JKFIT

    Orbital Energies [Eh]
    ---------------------

    Doubly Occupied:

       1A    -20.517456     2A    -15.635523     3A    -15.592019
       4A    -15.562652     5A    -11.363039     6A    -11.305229
       7A    -11.271783     8A    -11.270630     9A    -11.255432
      10A    -11.254552    11A    -11.252808    12A     -1.380317
      13A     -1.341147    14A     -1.245486    15A     -1.189360
      16A     -1.030130    17A     -0.976450    18A     -0.966688
      19A     -0.938571    20A     -0.830036    21A     -0.814075
      22A     -0.741180    23A     -0.710317    24A     -0.663387
      25A     -0.655320    26A     -0.648554    27A     -0.639972
      28A     -0.607813    29A     -0.589909    30A     -0.574425
      31A     -0.564591    32A     -0.556341    33A     -0.554477
      34A     -0.552873    35A     -0.527215    36A     -0.522486
      37A     -0.450947    38A     -0.428856    39A     -0.392374
      40A     -0.373130    41A     -0.317473

  @DF-RHF Final Energy:  -509.85865718356774

   => Energetics <=

    Nuclear Repulsion Energy =            628.6332473145739641
    One-Electron Energy =               -1940.8537700012725509
    Two-Electron Energy =                 802.3618655031308435
    Total Energy =                       -509.8586571835677432
  Basis Set: (AUG-CC-PVTZ AUX)
    Blend: AUG-CC-PVTZ-RI
    Molecular point group: c1

    Geometry (in Angstrom), charge = 0, multiplicity = 1:

       Center              X                  Y                   Z               Mass
    ------------   -----------------  -----------------  -----------------  -----------------
         O           -0.798915668695     1.721922203360    -0.418563746133    15.994914619570
         N            1.654471331305     0.475777203360     0.155786253867    14.003074004430
         N           -1.961013668695    -0.190550796640     0.062321253867    14.003074004430
         N            0.732100331305    -1.507833796640    -0.330847746133    14.003074004430
         C            0.486414331305    -0.215067796640    -0.065353746133    12.000000000000
         C           -0.807447668695     0.505812203360    -0.145412746133    12.000000000000
         C            2.695298131305    -0.409051696640     0.042124453867    12.000000000000
         C            1.834799331305     1.897493203360     0.442640253867    12.000000000000
         C           -3.222328668695     0.504586203360    -0.142967746133    12.000000000000
         C           -2.082167668695    -1.545119796640     0.581465253867    12.000000000000
         C            2.089230331305    -1.638208796640    -0.262520746133    12.000000000000
         H            3.709993331305    -0.134364796640     0.185584253867     1.007825032230
         H            1.107636331305     2.219929203360     1.185066253867     1.007825032230
         H            2.846750331305     2.028883203360     0.829115253867     1.007825032230
         H            1.690203331305     2.485265203360    -0.462562746133     1.007825032230
         H           -3.878585668695    -0.114354796640    -0.762991746133     1.007825032230
         H           -3.023375668695     1.453065203360    -0.637423746133     1.007825032230
         H           -3.719499668695     0.692402203360     0.815981253867     1.007825032230
         H           -1.106098668695    -1.946388796640     0.832503253867     1.007825032230
         H           -2.541109668695    -2.197344796640    -0.169476746133     1.007825032230
         H           -2.725667668695    -1.525989796640     1.468736253867     1.007825032230
         H            2.573289331305    -2.591056796640    -0.432943746133     1.007825032230

  Basis Set: AUG-CC-PVTZ
    Blend: AUG-CC-PVTZ
  Basis Set: (AUG-CC-PVTZ AUX)
    Blend: AUG-CC-PVTZ-JKFIT
	 Reference Energy          =    -509.8586571835677432 [Eh]
	 Singles Energy            =      -0.0000000000000000 [Eh]
	 Same-Spin Energy          =      -0.5442690157284971 [Eh]
	 Opposite-Spin Energy      =      -1.6960674061988326 [Eh]
	 Correlation Energy        =      -2.2403364219273296 [Eh]
	 Total Energy              =    -512.0989936054950249 [Eh]

	 ================> DF-SCS-MP2 Energies <==================
	-----------------------------------------------------------
	 SCS Same-Spin Scale       =       0.3333333333333333 [-]
	 SCS Opposite-Spin Scale   =       1.2000000000000000 [-]
	 SCS Same-Spin Energy      =      -0.1814230052428323 [Eh]
	 SCS Opposite-Spin Energy  =      -2.0352808874385988 [Eh]
	 SCS Correlation Energy    =      -2.2167038926814313 [Eh]
	 SCS Total Energy          =    -512.0753610762491235 [Eh]
	-----------------------------------------------------------

  Dipole Moment: [D]
     X:     0.7443      Y:    -0.0013      Z:     1.7188     Total:     1.8730

*** Psi4 exiting successfully. Buy a developer a beer!
