                               Psi4 1.3.2 release

  ==> Input File <==

--------------------------------------------------------------------------
#psi4
#
memory 32 gb

molecule  {
0 1
  O       -0.7670850     1.7208920    -0.4354900
  N        1.6863020     0.4747470     0.1388600
  N       -1.9291830    -0.1915810     0.0453950
  N        0.7639310    -1.5088640    -0.3477740
  C        0.4495730    -0.0910289    -0.0634417
  C       -0.7756170     0.5047820    -0.1623390
  C        2.7114570    -0.4276410     0.0208990
  C        1.8666300     1.8964630     0.4257140
  C       -3.1904980     0.5035560    -0.1598940
  C       -2.0503370    -1.5461500     0.5645390
  C        2.1210610    -1.6392390    -0.2794470
  H        3.7418240    -0.1353950     0.1686580
  H        1.1394670     2.2188990     1.1681400
  H        2.8785810     2.0278530     0.8121890
  H        1.7220340     2.4842350    -0.4794890
  H       -3.8467550    -0.1153850    -0.7799180
  H       -2.9915450     1.4520350    -0.6543500
  H       -3.6876690     0.6913720     0.7990550
  H       -1.0742680    -1.9474190     0.8155770
  H       -2.5092790    -2.1983750    -0.1864030
  H       -2.6938370    -1.5270200     1.4518100
  H        2.6051200    -2.5920870    -0.4498700
units angstrom
no_reorient  #important for SAPT in psi4, default
symmetry c1  #important for SAPT in psi4, default
}

set PROPERTIES_ORIGIN ["COM"]
properties('MP2/aug-cc-pvtz', properties = ['dipole'])
--------------------------------------------------------------------------

    Molecular point group: c1
  Charge       = 0
  Multiplicity = 1
  Basis Set: AUG-CC-PVTZ
    Blend: AUG-CC-PVTZ
  Basis Set: (AUG-CC-PVTZ AUX)
    Blend: AUG-CC-PVTZ-JKFIT

    Orbital Energies [Eh]
    ---------------------

    Doubly Occupied:

       1A    -20.511119     2A    -15.649958     3A    -15.589178
       4A    -15.570851     5A    -11.352257     6A    -11.304493
       7A    -11.276264     8A    -11.272127     9A    -11.259012
      10A    -11.252462    11A    -11.251035    12A     -1.382296
      13A     -1.332395    14A     -1.242989    15A     -1.167500
      16A     -1.045864    17A     -0.978127    18A     -0.964140
      19A     -0.940275    20A     -0.854365    21A     -0.805328
      22A     -0.739010    23A     -0.710005    24A     -0.669485
      25A     -0.658660    26A     -0.648228    27A     -0.639158
      28A     -0.604773    29A     -0.586861    30A     -0.577506
      31A     -0.561921    32A     -0.556349    33A     -0.551930
      34A     -0.550993    35A     -0.523108    36A     -0.520502
      37A     -0.433952    38A     -0.430748    39A     -0.385640
      40A     -0.371096    41A     -0.315506

  @DF-RHF Final Energy:  -509.82174150297647

   => Energetics <=

    Nuclear Repulsion Energy =            629.0276913991057199
    One-Electron Energy =               -1941.6239394069657465
    Two-Electron Energy =                 802.7745065048836750
    Total Energy =                       -509.8217415029764652
  Basis Set: (AUG-CC-PVTZ AUX)
    Blend: AUG-CC-PVTZ-RI
    Molecular point group: c1

    Geometry (in Angstrom), charge = 0, multiplicity = 1:

       Center              X                  Y                   Z               Mass
    ------------   -----------------  -----------------  -----------------  -----------------
         O           -0.792304366857     1.713495015343    -0.419703395740    15.994914619570
         N            1.661082633143     0.467350015343     0.154646604260    14.003074004430
         N           -1.954402366857    -0.198977984657     0.061181604260    14.003074004430
         N            0.738711633143    -1.516260984657    -0.331987395740    14.003074004430
         C            0.424353633143    -0.098425884657    -0.047655095740    12.000000000000
         C           -0.800836366857     0.497385015343    -0.146552395740    12.000000000000
         C            2.686237633143    -0.435037984657     0.036685604260    12.000000000000
         C            1.841410633143     1.889066015343     0.441500604260    12.000000000000
         C           -3.215717366857     0.496159015343    -0.144107395740    12.000000000000
         C           -2.075556366857    -1.553546984657     0.580325604260    12.000000000000
         C            2.095841633143    -1.646635984657    -0.263660395740    12.000000000000
         H            3.716604633143    -0.142791984657     0.184444604260     1.007825032230
         H            1.114247633143     2.211502015343     1.183926604260     1.007825032230
         H            2.853361633143     2.020456015343     0.827975604260     1.007825032230
         H            1.696814633143     2.476838015343    -0.463702395740     1.007825032230
         H           -3.871974366857    -0.122781984657    -0.764131395740     1.007825032230
         H           -3.016764366857     1.444638015343    -0.638563395740     1.007825032230
         H           -3.712888366857     0.683975015343     0.814841604260     1.007825032230
         H           -1.099487366857    -1.954815984657     0.831363604260     1.007825032230
         H           -2.534498366857    -2.205771984657    -0.170616395740     1.007825032230
         H           -2.719056366857    -1.534416984657     1.467596604260     1.007825032230
         H            2.579900633143    -2.599483984657    -0.434083395740     1.007825032230

  Basis Set: AUG-CC-PVTZ
    Blend: AUG-CC-PVTZ
  Basis Set: (AUG-CC-PVTZ AUX)
    Blend: AUG-CC-PVTZ-JKFIT
	 Reference Energy          =    -509.8217415029764652 [Eh]
	 Singles Energy            =      -0.0000000000000000 [Eh]
	 Same-Spin Energy          =      -0.5491104031954726 [Eh]
	 Opposite-Spin Energy      =      -1.7043092055267959 [Eh]
	 Correlation Energy        =      -2.2534196087222682 [Eh]
	 Total Energy              =    -512.0751611116987760 [Eh]

	 ================> DF-SCS-MP2 Energies <==================
	-----------------------------------------------------------
	 SCS Same-Spin Scale       =       0.3333333333333333 [-]
	 SCS Opposite-Spin Scale   =       1.2000000000000000 [-]
	 SCS Same-Spin Energy      =      -0.1830368010651575 [Eh]
	 SCS Opposite-Spin Energy  =      -2.0451710466321549 [Eh]
	 SCS Correlation Energy    =      -2.2282078476973126 [Eh]
	 SCS Total Energy          =    -512.0499493506737281 [Eh]
	-----------------------------------------------------------

  Dipole Moment: [D]
     X:     1.1436      Y:    -0.0549      Z:     1.7425     Total:     2.0850

*** Psi4 exiting successfully. Buy a developer a beer!
