                               Psi4 1.4a3.dev225

  ==> Input File <==

--------------------------------------------------------------------------
#psi4
#
memory 32 gb

molecule  {
0 1
  O       -0.7670850     1.7208920    -0.4354900
  N        1.6863020     0.4747470     0.1388600
  N       -1.9291830    -0.1915810     0.0453950
  N        0.7639310    -1.5088640    -0.3477740
  C        0.5182450    -0.2160980    -0.0822800
  C       -0.7756170     0.5047820    -0.1623390
  C        2.7114570    -0.4276410     0.0208990
  C        1.8666300     1.8964630     0.4257140
  C       -3.1904980     0.5035560    -0.1598940
  C       -2.0503370    -1.5461500     0.5645390
  C        2.1424390    -1.5953675    -0.2685716
  H        3.7418240    -0.1353950     0.1686580
  H        1.1394670     2.2188990     1.1681400
  H        2.8785810     2.0278530     0.8121890
  H        1.7220340     2.4842350    -0.4794890
  H       -3.8467550    -0.1153850    -0.7799180
  H       -2.9915450     1.4520350    -0.6543500
  H       -3.6876690     0.6913720     0.7990550
  H       -1.0742680    -1.9474190     0.8155770
  H       -2.5092790    -2.1983750    -0.1864030
  H       -2.6938370    -1.5270200     1.4518100
  H        2.6051200    -2.5920870    -0.4498700
units angstrom
no_reorient  #important for SAPT in psi4, default
symmetry c1  #important for SAPT in psi4, default
}

set PROPERTIES_ORIGIN ["COM"]
properties('MP2/aug-cc-pvtz', properties = ['dipole'])
--------------------------------------------------------------------------

    Molecular point group: c1
  Charge       = 0
  Multiplicity = 1
  Basis Set: AUG-CC-PVTZ
    Blend: AUG-CC-PVTZ
  Basis Set: (AUG-CC-PVTZ AUX)
    Blend: AUG-CC-PVTZ-JKFIT

    Orbital Energies [Eh]
    ---------------------

    Doubly Occupied:

       1A    -20.519055     2A    -15.629344     3A    -15.593226
       4A    -15.561265     5A    -11.364035     6A    -11.307921
       7A    -11.270797     8A    -11.263113     9A    -11.255930
      10A    -11.253536    11A    -11.247743    12A     -1.381653
      13A     -1.343240    14A     -1.246430    15A     -1.184435
      16A     -1.039130    17A     -0.975437    18A     -0.967325
      19A     -0.939865    20A     -0.834934    21A     -0.806712
      22A     -0.741282    23A     -0.710811    24A     -0.662945
      25A     -0.655218    26A     -0.646716    27A     -0.640385
      28A     -0.598722    29A     -0.594106    30A     -0.573801
      31A     -0.561474    32A     -0.555180    33A     -0.554518
      34A     -0.551855    35A     -0.527633    36A     -0.524239
      37A     -0.454077    38A     -0.430273    39A     -0.387376
      40A     -0.373883    41A     -0.329629

  @DF-RHF Final Energy:  -509.85803634680974

   => Energetics <=

    Nuclear Repulsion Energy =            629.5668788162828378
    One-Electron Energy =               -1942.7313312881656202
    Two-Electron Energy =                 803.3064161250729285
    Total Energy =                       -509.8580363468097403
  Basis Set: (AUG-CC-PVTZ AUX)
    Blend: AUG-CC-PVTZ-RI
    Molecular point group: c1

    Geometry (in Angstrom), charge = 0, multiplicity = 1:

       Center              X                  Y                   Z               Mass
    ------------   -----------------  -----------------  -----------------  -----------------
         O           -0.799362950067     1.719859701807    -0.419079222589    15.994914619570
         N            1.654024049933     0.473714701807     0.155270777411    14.003074004430
         N           -1.961460950067    -0.192613298193     0.061805777411    14.003074004430
         N            0.731653049933    -1.509896298193    -0.331363222589    14.003074004430
         C            0.485967049933    -0.217130298193    -0.065869222589    12.000000000000
         C           -0.807894950067     0.503749701807    -0.145928222589    12.000000000000
         C            2.679179049933    -0.428673298193     0.037309777411    12.000000000000
         C            1.834352049933     1.895430701807     0.442124777411    12.000000000000
         C           -3.222775950067     0.502523701807    -0.143483222589    12.000000000000
         C           -2.082614950067    -1.547182298193     0.580949777411    12.000000000000
         C            2.110161049933    -1.596399798193    -0.252160822589    12.000000000000
         H            3.709546049933    -0.136427298193     0.185068777411     1.007825032230
         H            1.107189049933     2.217866701807     1.184550777411     1.007825032230
         H            2.846303049933     2.026820701807     0.828599777411     1.007825032230
         H            1.689756049933     2.483202701807    -0.463078222589     1.007825032230
         H           -3.879032950067    -0.116417298193    -0.763507222589     1.007825032230
         H           -3.023822950067     1.451002701807    -0.637939222589     1.007825032230
         H           -3.719946950067     0.690339701807     0.815465777411     1.007825032230
         H           -1.106545950067    -1.948451298193     0.831987777411     1.007825032230
         H           -2.541556950067    -2.199407298193    -0.169992222589     1.007825032230
         H           -2.726114950067    -1.528052298193     1.468220777411     1.007825032230
         H            2.572842049933    -2.593119298193    -0.433459222589     1.007825032230

  Basis Set: AUG-CC-PVTZ
    Blend: AUG-CC-PVTZ
  Basis Set: (AUG-CC-PVTZ AUX)
    Blend: AUG-CC-PVTZ-JKFIT
	 Reference Energy          =    -509.8580363468097403 [Eh]
	 Singles Energy            =      -0.0000000000000000 [Eh]
	 Same-Spin Energy          =      -0.5433222327658304 [Eh]
	 Opposite-Spin Energy      =      -1.6948984273893464 [Eh]
	 Correlation Energy        =      -2.2382206601551768 [Eh]
	 Total Energy              =    -512.0962570069649473 [Eh]

	 ================> DF-SCS-MP2 Energies <==================
	-----------------------------------------------------------
	 SCS Same-Spin Scale       =       0.3333333333333333 [-]
	 SCS Opposite-Spin Scale   =       1.2000000000000000 [-]
	 SCS Same-Spin Energy      =      -0.1811074109219434 [Eh]
	 SCS Opposite-Spin Energy  =      -2.0338781128672156 [Eh]
	 SCS Correlation Energy    =      -2.2149855237891591 [Eh]
	 SCS Total Energy          =    -512.0730218705989500 [Eh]
	-----------------------------------------------------------

  Dipole Moment: [D]
     X:     0.7042      Y:     0.0317      Z:     1.7263     Total:     1.8647

*** Psi4 exiting successfully. Buy a developer a beer!
