                               Psi4 1.3.2 release

  ==> Input File <==

--------------------------------------------------------------------------
#psi4
#
memory 32 gb

molecule  {
0 1
  O       -0.7670850     1.7208920    -0.4354900
  N        1.7552417     0.3504792     0.1161040
  N       -1.9291830    -0.1915810     0.0453950
  N        0.7639310    -1.5088640    -0.3477740
  C        0.5182450    -0.2160980    -0.0822800
  C       -0.7756170     0.5047820    -0.1623390
  C        2.7114570    -0.4276410     0.0208990
  C        1.8666300     1.8964630     0.4257140
  C       -3.1904980     0.5035560    -0.1598940
  C       -2.0503370    -1.5461500     0.5645390
  C        2.1210610    -1.6392390    -0.2794470
  H        3.7418240    -0.1353950     0.1686580
  H        1.1394670     2.2188990     1.1681400
  H        2.8785810     2.0278530     0.8121890
  H        1.7220340     2.4842350    -0.4794890
  H       -3.8467550    -0.1153850    -0.7799180
  H       -2.9915450     1.4520350    -0.6543500
  H       -3.6876690     0.6913720     0.7990550
  H       -1.0742680    -1.9474190     0.8155770
  H       -2.5092790    -2.1983750    -0.1864030
  H       -2.6938370    -1.5270200     1.4518100
  H        2.6051200    -2.5920870    -0.4498700
units angstrom
no_reorient  #important for SAPT in psi4, default
symmetry c1  #important for SAPT in psi4, default
}

set PROPERTIES_ORIGIN ["COM"]
properties('MP2/aug-cc-pvtz', properties = ['dipole'])
--------------------------------------------------------------------------

    Molecular point group: c1
  Charge       = 0
  Multiplicity = 1
  Basis Set: AUG-CC-PVTZ
    Blend: AUG-CC-PVTZ
  Basis Set: (AUG-CC-PVTZ AUX)
    Blend: AUG-CC-PVTZ-JKFIT

    Orbital Energies [Eh]
    ---------------------

    Doubly Occupied:

       1A    -20.514181     2A    -15.635156     3A    -15.590210
       4A    -15.559670     5A    -11.363191     6A    -11.291074
       7A    -11.284837     8A    -11.261266     9A    -11.253614
      10A    -11.251729    11A    -11.239760    12A     -1.386671
      13A     -1.362389    14A     -1.243494    15A     -1.182977
      16A     -1.039683    17A     -0.971109    18A     -0.964289
      19A     -0.936997    20A     -0.833610    21A     -0.816088
      22A     -0.740408    23A     -0.712984    24A     -0.673992
      25A     -0.658957    26A     -0.649245    27A     -0.641457
      28A     -0.600657    29A     -0.585513    30A     -0.570017
      31A     -0.565647    32A     -0.555812    33A     -0.551923
      34A     -0.547821    35A     -0.527955    36A     -0.524439
      37A     -0.445791    38A     -0.427387    39A     -0.401693
      40A     -0.371776    41A     -0.310827

  @DF-RHF Final Energy:  -509.83134007488405

   => Energetics <=

    Nuclear Repulsion Energy =            629.7719152568580512
    One-Electron Energy =               -1943.1139169133589348
    Two-Electron Energy =                 803.5106615816168869
    Total Energy =                       -509.8313400748841104
  Basis Set: (AUG-CC-PVTZ AUX)
    Blend: AUG-CC-PVTZ-RI
    Molecular point group: c1

    Geometry (in Angstrom), charge = 0, multiplicity = 1:

       Center              X                  Y                   Z               Mass
    ------------   -----------------  -----------------  -----------------  -----------------
         O           -0.803993107095     1.734665280624    -0.416145274388    15.994914619570
         N            1.718333592905     0.364252480624     0.135448725612    14.003074004430
         N           -1.966091107095    -0.177807719376     0.064739725612    14.003074004430
         N            0.727022892905    -1.495090719376    -0.328429274388    14.003074004430
         C            0.481336892905    -0.202324719376    -0.062935274388    12.000000000000
         C           -0.812525107095     0.518555280624    -0.142994274388    12.000000000000
         C            2.674548892905    -0.413867719376     0.040243725612    12.000000000000
         C            1.829721892905     1.910236280624     0.445058725612    12.000000000000
         C           -3.227406107095     0.517329280624    -0.140549274388    12.000000000000
         C           -2.087245107095    -1.532376719376     0.583883725612    12.000000000000
         C            2.084152892905    -1.625465719376    -0.260102274388    12.000000000000
         H            3.704915892905    -0.121621719376     0.188002725612     1.007825032230
         H            1.102558892905     2.232672280624     1.187484725612     1.007825032230
         H            2.841672892905     2.041626280624     0.831533725612     1.007825032230
         H            1.685125892905     2.498008280624    -0.460144274388     1.007825032230
         H           -3.883663107095    -0.101611719376    -0.760573274388     1.007825032230
         H           -3.028453107095     1.465808280624    -0.635005274388     1.007825032230
         H           -3.724577107095     0.705145280624     0.818399725612     1.007825032230
         H           -1.111176107095    -1.933645719376     0.834921725612     1.007825032230
         H           -2.546187107095    -2.184601719376    -0.167058274388     1.007825032230
         H           -2.730745107095    -1.513246719376     1.471154725612     1.007825032230
         H            2.568211892905    -2.578313719376    -0.430525274388     1.007825032230

  Basis Set: AUG-CC-PVTZ
    Blend: AUG-CC-PVTZ
  Basis Set: (AUG-CC-PVTZ AUX)
    Blend: AUG-CC-PVTZ-JKFIT
	 Reference Energy          =    -509.8313400748840536 [Eh]
	 Singles Energy            =      -0.0000000000000000 [Eh]
	 Same-Spin Energy          =      -0.5443808026933047 [Eh]
	 Opposite-Spin Energy      =      -1.6947517438111279 [Eh]
	 Correlation Energy        =      -2.2391325465044325 [Eh]
	 Total Energy              =    -512.0704726213884896 [Eh]

	 ================> DF-SCS-MP2 Energies <==================
	-----------------------------------------------------------
	 SCS Same-Spin Scale       =       0.3333333333333333 [-]
	 SCS Opposite-Spin Scale   =       1.2000000000000000 [-]
	 SCS Same-Spin Energy      =      -0.1814602675644349 [Eh]
	 SCS Opposite-Spin Energy  =      -2.0337020925733533 [Eh]
	 SCS Correlation Energy    =      -2.2151623601377883 [Eh]
	 SCS Total Energy          =    -512.0465024350218073 [Eh]
	-----------------------------------------------------------

  Dipole Moment: [D]
     X:     0.8816      Y:     0.3472      Z:     1.7964     Total:     2.0309

*** Psi4 exiting successfully. Buy a developer a beer!
