                               Psi4 1.3.2 release

  ==> Input File <==

--------------------------------------------------------------------------
#psi4
#
memory 32 gb

molecule  {
0 1
  O       -0.7670850     1.7208920    -0.4354900
  N        1.5915634     0.4966479     0.1080101
  N       -1.9291830    -0.1915810     0.0453950
  N        0.7639310    -1.5088640    -0.3477740
  C        0.5182450    -0.2160980    -0.0822800
  C       -0.7756170     0.5047820    -0.1623390
  C        2.7114570    -0.4276410     0.0208990
  C        1.8666300     1.8964630     0.4257140
  C       -3.1904980     0.5035560    -0.1598940
  C       -2.0503370    -1.5461500     0.5645390
  C        2.1210610    -1.6392390    -0.2794470
  H        3.7418240    -0.1353950     0.1686580
  H        1.1394670     2.2188990     1.1681400
  H        2.8785810     2.0278530     0.8121890
  H        1.7220340     2.4842350    -0.4794890
  H       -3.8467550    -0.1153850    -0.7799180
  H       -2.9915450     1.4520350    -0.6543500
  H       -3.6876690     0.6913720     0.7990550
  H       -1.0742680    -1.9474190     0.8155770
  H       -2.5092790    -2.1983750    -0.1864030
  H       -2.6938370    -1.5270200     1.4518100
  H        2.6051200    -2.5920870    -0.4498700
units angstrom
no_reorient  #important for SAPT in psi4, default
symmetry c1  #important for SAPT in psi4, default
}

set PROPERTIES_ORIGIN ["COM"]
properties('MP2/aug-cc-pvtz', properties = ['dipole'])
--------------------------------------------------------------------------

    Molecular point group: c1
  Charge       = 0
  Multiplicity = 1
  Basis Set: AUG-CC-PVTZ
    Blend: AUG-CC-PVTZ
  Basis Set: (AUG-CC-PVTZ AUX)
    Blend: AUG-CC-PVTZ-JKFIT

    Orbital Energies [Eh]
    ---------------------

    Doubly Occupied:

       1A    -20.519678     2A    -15.632725     3A    -15.592934
       4A    -15.551438     5A    -11.362533     6A    -11.306042
       7A    -11.273422     8A    -11.267461     9A    -11.256944
      10A    -11.255300    11A    -11.253182    12A     -1.384526
      13A     -1.342207    14A     -1.246298    15A     -1.184773
      16A     -1.031059    17A     -0.977856    18A     -0.967109
      19A     -0.943399    20A     -0.830367    21A     -0.811239
      22A     -0.739590    23A     -0.709265    24A     -0.663405
      25A     -0.655082    26A     -0.643236    27A     -0.639405
      28A     -0.608532    29A     -0.606156    30A     -0.573969
      31A     -0.558295    32A     -0.555899    33A     -0.553639
      34A     -0.545129    35A     -0.527542    36A     -0.521968
      37A     -0.448273    38A     -0.428539    39A     -0.386974
      40A     -0.373708    41A     -0.325599

  @DF-RHF Final Energy:  -509.84998555710240

   => Energetics <=

    Nuclear Repulsion Energy =            630.0060007315973962
    One-Electron Energy =               -1943.6025803348093177
    Two-Electron Energy =                 803.7465940461095215
    Total Energy =                       -509.8499855571024000
  Basis Set: (AUG-CC-PVTZ AUX)
    Blend: AUG-CC-PVTZ-RI
    Molecular point group: c1

    Geometry (in Angstrom), charge = 0, multiplicity = 1:

       Center              X                  Y                   Z               Mass
    ------------   -----------------  -----------------  -----------------  -----------------
         O           -0.789021546745     1.721295313357    -0.415404929991    15.994914619570
         N            1.569626853255     0.497051213357     0.128095170009    14.003074004430
         N           -1.951119546745    -0.191177686643     0.065480070009    14.003074004430
         N            0.741994453255    -1.508460686643    -0.327688929991    14.003074004430
         C            0.496308453255    -0.215694686643    -0.062194929991    12.000000000000
         C           -0.797553546745     0.505185313357    -0.142253929991    12.000000000000
         C            2.689520453255    -0.427237686643     0.040984070009    12.000000000000
         C            1.844693453255     1.896866313357     0.445799070009    12.000000000000
         C           -3.212434546745     0.503959313357    -0.139808929991    12.000000000000
         C           -2.072273546745    -1.545746686643     0.584624070009    12.000000000000
         C            2.099124453255    -1.638835686643    -0.259361929991    12.000000000000
         H            3.719887453255    -0.134991686643     0.188743070009     1.007825032230
         H            1.117530453255     2.219302313357     1.188225070009     1.007825032230
         H            2.856644453255     2.028256313357     0.832274070009     1.007825032230
         H            1.700097453255     2.484638313357    -0.459403929991     1.007825032230
         H           -3.868691546745    -0.114981686643    -0.759832929991     1.007825032230
         H           -3.013481546745     1.452438313357    -0.634264929991     1.007825032230
         H           -3.709605546745     0.691775313357     0.819140070009     1.007825032230
         H           -1.096204546745    -1.947015686643     0.835662070009     1.007825032230
         H           -2.531215546745    -2.197971686643    -0.166317929991     1.007825032230
         H           -2.715773546745    -1.526616686643     1.471895070009     1.007825032230
         H            2.583183453255    -2.591683686643    -0.429784929991     1.007825032230

  Basis Set: AUG-CC-PVTZ
    Blend: AUG-CC-PVTZ
  Basis Set: (AUG-CC-PVTZ AUX)
    Blend: AUG-CC-PVTZ-JKFIT
	 Reference Energy          =    -509.8499855571024000 [Eh]
	 Singles Energy            =      -0.0000000000000000 [Eh]
	 Same-Spin Energy          =      -0.5433774684670221 [Eh]
	 Opposite-Spin Energy      =      -1.6956779269183238 [Eh]
	 Correlation Energy        =      -2.2390553953853458 [Eh]
	 Total Energy              =    -512.0890409524877214 [Eh]

	 ================> DF-SCS-MP2 Energies <==================
	-----------------------------------------------------------
	 SCS Same-Spin Scale       =       0.3333333333333333 [-]
	 SCS Opposite-Spin Scale   =       1.2000000000000000 [-]
	 SCS Same-Spin Energy      =      -0.1811258228223407 [Eh]
	 SCS Opposite-Spin Energy  =      -2.0348135123019886 [Eh]
	 SCS Correlation Energy    =      -2.2159393351243293 [Eh]
	 SCS Total Energy          =    -512.0659248922266897 [Eh]
	-----------------------------------------------------------

  Dipole Moment: [D]
     X:     0.7442      Y:     0.0090      Z:     1.7428     Total:     1.8951

*** Psi4 exiting successfully. Buy a developer a beer!
