                               Psi4 1.3.2 release

  ==> Input File <==

--------------------------------------------------------------------------
#psi4
#
memory 32 gb

molecule  {
0 1
  O       -0.7670850     1.7208920    -0.4354900
  N        1.6863020     0.4747470     0.1388600
  N       -1.9291830    -0.1915810     0.0453950
  N        0.7639310    -1.5088640    -0.3477740
  C        0.5997145    -0.3335981    -0.0986955
  C       -0.7756170     0.5047820    -0.1623390
  C        2.7114570    -0.4276410     0.0208990
  C        1.8666300     1.8964630     0.4257140
  C       -3.1904980     0.5035560    -0.1598940
  C       -2.0503370    -1.5461500     0.5645390
  C        2.1210610    -1.6392390    -0.2794470
  H        3.7418240    -0.1353950     0.1686580
  H        1.1394670     2.2188990     1.1681400
  H        2.8785810     2.0278530     0.8121890
  H        1.7220340     2.4842350    -0.4794890
  H       -3.8467550    -0.1153850    -0.7799180
  H       -2.9915450     1.4520350    -0.6543500
  H       -3.6876690     0.6913720     0.7990550
  H       -1.0742680    -1.9474190     0.8155770
  H       -2.5092790    -2.1983750    -0.1864030
  H       -2.6938370    -1.5270200     1.4518100
  H        2.6051200    -2.5920870    -0.4498700
units angstrom
no_reorient  #important for SAPT in psi4, default
symmetry c1  #important for SAPT in psi4, default
}

set PROPERTIES_ORIGIN ["COM"]
properties('MP2/aug-cc-pvtz', properties = ['dipole'])
--------------------------------------------------------------------------

    Molecular point group: c1
  Charge       = 0
  Multiplicity = 1
  Basis Set: AUG-CC-PVTZ
    Blend: AUG-CC-PVTZ
  Basis Set: (AUG-CC-PVTZ AUX)
    Blend: AUG-CC-PVTZ-JKFIT

    Orbital Energies [Eh]
    ---------------------

    Doubly Occupied:

       1A    -20.519848     2A    -15.619906     3A    -15.591413
       4A    -15.551744     5A    -11.364748     6A    -11.304496
       7A    -11.272796     8A    -11.267054     9A    -11.256878
      10A    -11.252366    11A    -11.247817    12A     -1.383222
      13A     -1.359166    14A     -1.245211    15A     -1.218026
      16A     -1.024237    17A     -0.974653    18A     -0.966846
      19A     -0.935835    20A     -0.826910    21A     -0.802699
      22A     -0.744008    23A     -0.709746    24A     -0.661606
      25A     -0.652427    26A     -0.642530    27A     -0.639623
      28A     -0.609777    29A     -0.597273    30A     -0.571489
      31A     -0.561626    32A     -0.560524    33A     -0.554166
      34A     -0.550059    35A     -0.528865    36A     -0.521993
      37A     -0.470180    38A     -0.413841    39A     -0.406025
      40A     -0.372761    41A     -0.322503

  @DF-RHF Final Energy:  -509.83968516831123

   => Energetics <=

    Nuclear Repulsion Energy =            629.3854995707966964
    One-Electron Energy =               -1942.2965858104132622
    Two-Electron Energy =                 803.0714010713052176
    Total Energy =                       -509.8396851683112345
  Basis Set: (AUG-CC-PVTZ AUX)
    Blend: AUG-CC-PVTZ-RI
    Molecular point group: c1

    Geometry (in Angstrom), charge = 0, multiplicity = 1:

       Center              X                  Y                   Z               Mass
    ------------   -----------------  -----------------  -----------------  -----------------
         O           -0.804073231610     1.732508839690    -0.416940021162    15.994914619570
         N            1.649313768390     0.486363839690     0.157409978838    14.003074004430
         N           -1.966171231610    -0.179964160310     0.063944978838    14.003074004430
         N            0.726942768390    -1.497247160310    -0.329224021162    14.003074004430
         C            0.562726268390    -0.321981260310    -0.080145521162    12.000000000000
         C           -0.812605231610     0.516398839690    -0.143789021162    12.000000000000
         C            2.674468768390    -0.416024160310     0.039448978838    12.000000000000
         C            1.829641768390     1.908079839690     0.444263978838    12.000000000000
         C           -3.227486231610     0.515172839690    -0.141344021162    12.000000000000
         C           -2.087325231610    -1.534533160310     0.583088978838    12.000000000000
         C            2.084072768390    -1.627622160310    -0.260897021162    12.000000000000
         H            3.704835768390    -0.123778160310     0.187207978838     1.007825032230
         H            1.102478768390     2.230515839690     1.186689978838     1.007825032230
         H            2.841592768390     2.039469839690     0.830738978838     1.007825032230
         H            1.685045768390     2.495851839690    -0.460939021162     1.007825032230
         H           -3.883743231610    -0.103768160310    -0.761368021162     1.007825032230
         H           -3.028533231610     1.463651839690    -0.635800021162     1.007825032230
         H           -3.724657231610     0.702988839690     0.817604978838     1.007825032230
         H           -1.111256231610    -1.935802160310     0.834126978838     1.007825032230
         H           -2.546267231610    -2.186758160310    -0.167853021162     1.007825032230
         H           -2.730825231610    -1.515403160310     1.470359978838     1.007825032230
         H            2.568131768390    -2.580470160310    -0.431320021162     1.007825032230

  Basis Set: AUG-CC-PVTZ
    Blend: AUG-CC-PVTZ
  Basis Set: (AUG-CC-PVTZ AUX)
    Blend: AUG-CC-PVTZ-JKFIT
	 Reference Energy          =    -509.8396851683112345 [Eh]
	 Singles Energy            =      -0.0000000000000000 [Eh]
	 Same-Spin Energy          =      -0.5405027899444814 [Eh]
	 Opposite-Spin Energy      =      -1.6905938501122080 [Eh]
	 Correlation Energy        =      -2.2310966400566894 [Eh]
	 Total Energy              =    -512.0707818083678831 [Eh]

	 ================> DF-SCS-MP2 Energies <==================
	-----------------------------------------------------------
	 SCS Same-Spin Scale       =       0.3333333333333333 [-]
	 SCS Opposite-Spin Scale   =       1.2000000000000000 [-]
	 SCS Same-Spin Energy      =      -0.1801675966481605 [Eh]
	 SCS Opposite-Spin Energy  =      -2.0287126201346495 [Eh]
	 SCS Correlation Energy    =      -2.2088802167828101 [Eh]
	 SCS Total Energy          =    -512.0485653850940935 [Eh]
	-----------------------------------------------------------

  Dipole Moment: [D]
     X:     0.4373      Y:    -0.0536      Z:     1.6716     Total:     1.7286

*** Psi4 exiting successfully. Buy a developer a beer!
