                               Psi4 1.3.2 release

  ==> Input File <==

--------------------------------------------------------------------------
#psi4
#
memory 32 gb

molecule  {
0 1
  O       -0.7670850     1.7208920    -0.4354900
  N        1.6863020     0.4747470     0.1388600
  N       -1.9291830    -0.1915810     0.0453950
  N        0.7865004    -1.5054468    -0.3424940
  C        0.5182450    -0.2160980    -0.0822800
  C       -0.7756170     0.5047820    -0.1623390
  C        2.7114570    -0.4276410     0.0208990
  C        1.8666300     1.8964630     0.4257140
  C       -3.1904980     0.5035560    -0.1598940
  C       -2.0503370    -1.5461500     0.5645390
  C        2.1210610    -1.6392390    -0.2794470
  H        3.7418240    -0.1353950     0.1686580
  H        1.1394670     2.2188990     1.1681400
  H        2.8785810     2.0278530     0.8121890
  H        1.7220340     2.4842350    -0.4794890
  H       -3.8467550    -0.1153850    -0.7799180
  H       -2.9915450     1.4520350    -0.6543500
  H       -3.6876690     0.6913720     0.7990550
  H       -1.0742680    -1.9474190     0.8155770
  H       -2.5092790    -2.1983750    -0.1864030
  H       -2.6938370    -1.5270200     1.4518100
  H        2.6051200    -2.5920870    -0.4498700
units angstrom
no_reorient  #important for SAPT in psi4, default
symmetry c1  #important for SAPT in psi4, default
}

set PROPERTIES_ORIGIN ["COM"]
properties('MP2/aug-cc-pvtz', properties = ['dipole'])
--------------------------------------------------------------------------

    Molecular point group: c1
  Charge       = 0
  Multiplicity = 1
  Basis Set: AUG-CC-PVTZ
    Blend: AUG-CC-PVTZ
  Basis Set: (AUG-CC-PVTZ AUX)
    Blend: AUG-CC-PVTZ-JKFIT

    Orbital Energies [Eh]
    ---------------------

    Doubly Occupied:

       1A    -20.517553     2A    -15.634415     3A    -15.592055
       4A    -15.558746     5A    -11.363353     6A    -11.303961
       7A    -11.271785     8A    -11.268256     9A    -11.255746
      10A    -11.252846    11A    -11.249317    12A     -1.380767
      13A     -1.344095    14A     -1.245502    15A     -1.191764
      16A     -1.031710    17A     -0.977269    18A     -0.966865
      19A     -0.939116    20A     -0.831496    21A     -0.811018
      22A     -0.743595    23A     -0.709891    24A     -0.663034
      25A     -0.655936    26A     -0.646039    27A     -0.640111
      28A     -0.607112    29A     -0.592605    30A     -0.575065
      31A     -0.564335    32A     -0.557625    33A     -0.555382
      34A     -0.553314    35A     -0.527310    36A     -0.523333
      37A     -0.447955    38A     -0.428485    39A     -0.393267
      40A     -0.373290    41A     -0.319164

  @DF-RHF Final Energy:  -509.86071115686593

   => Energetics <=

    Nuclear Repulsion Energy =            629.2661548005476106
    One-Electron Energy =               -1942.1247697162048098
    Two-Electron Energy =                 802.9979037587912671
    Total Energy =                       -509.8607111568659320
  Basis Set: (AUG-CC-PVTZ AUX)
    Blend: AUG-CC-PVTZ-RI
    Molecular point group: c1

    Geometry (in Angstrom), charge = 0, multiplicity = 1:

       Center              X                  Y                   Z               Mass
    ------------   -----------------  -----------------  -----------------  -----------------
         O           -0.799751642314     1.722986006809    -0.418709711250    15.994914619570
         N            1.653635357686     0.476841006809     0.155640288750    14.003074004430
         N           -1.961849642314    -0.189486993191     0.062175288750    14.003074004430
         N            0.753833757686    -1.503352793191    -0.325713711250    14.003074004430
         C            0.485578357686    -0.214003993191    -0.065499711250    12.000000000000
         C           -0.808283642314     0.506876006809    -0.145558711250    12.000000000000
         C            2.678790357686    -0.425546993191     0.037679288750    12.000000000000
         C            1.833963357686     1.898557006809     0.442494288750    12.000000000000
         C           -3.223164642314     0.505650006809    -0.143113711250    12.000000000000
         C           -2.083003642314    -1.544055993191     0.581319288750    12.000000000000
         C            2.088394357686    -1.637144993191    -0.262666711250    12.000000000000
         H            3.709157357686    -0.133300993191     0.185438288750     1.007825032230
         H            1.106800357686     2.220993006809     1.184920288750     1.007825032230
         H            2.845914357686     2.029947006809     0.828969288750     1.007825032230
         H            1.689367357686     2.486329006809    -0.462708711250     1.007825032230
         H           -3.879421642314    -0.113290993191    -0.763137711250     1.007825032230
         H           -3.024211642314     1.454129006809    -0.637569711250     1.007825032230
         H           -3.720335642314     0.693466006809     0.815835288750     1.007825032230
         H           -1.106934642314    -1.945324993191     0.832357288750     1.007825032230
         H           -2.541945642314    -2.196280993191    -0.169622711250     1.007825032230
         H           -2.726503642314    -1.524925993191     1.468590288750     1.007825032230
         H            2.572453357686    -2.589992993191    -0.433089711250     1.007825032230

  Basis Set: AUG-CC-PVTZ
    Blend: AUG-CC-PVTZ
  Basis Set: (AUG-CC-PVTZ AUX)
    Blend: AUG-CC-PVTZ-JKFIT
	 Reference Energy          =    -509.8607111568659320 [Eh]
	 Singles Energy            =      -0.0000000000000000 [Eh]
	 Same-Spin Energy          =      -0.5440253824903012 [Eh]
	 Opposite-Spin Energy      =      -1.6950557310989582 [Eh]
	 Correlation Energy        =      -2.2390811135892594 [Eh]
	 Total Energy              =    -512.0997922704551684 [Eh]

	 ================> DF-SCS-MP2 Energies <==================
	-----------------------------------------------------------
	 SCS Same-Spin Scale       =       0.3333333333333333 [-]
	 SCS Opposite-Spin Scale   =       1.2000000000000000 [-]
	 SCS Same-Spin Energy      =      -0.1813417941634337 [Eh]
	 SCS Opposite-Spin Energy  =      -2.0340668773187498 [Eh]
	 SCS Correlation Energy    =      -2.2154086714821837 [Eh]
	 SCS Total Energy          =    -512.0761198283481690 [Eh]
	-----------------------------------------------------------

  Dipole Moment: [D]
     X:     0.7094      Y:    -0.0256      Z:     1.7068     Total:     1.8486

*** Psi4 exiting successfully. Buy a developer a beer!
