                               Psi4 1.4a3.dev225

  ==> Input File <==

--------------------------------------------------------------------------
#psi4
#
memory 32 gb

molecule  {
0 1
  O       -0.7670850     1.7208920    -0.4354900
  N        1.6863020     0.4747470     0.1388600
  N       -1.9291830    -0.1915810     0.0453950
  N        0.7639310    -1.5088640    -0.3477740
  C        0.5182450    -0.2160980    -0.0822800
  C       -0.8192315     0.5290820    -0.1650377
  C        2.7114570    -0.4276410     0.0208990
  C        1.8666300     1.8964630     0.4257140
  C       -3.1904980     0.5035560    -0.1598940
  C       -2.0503370    -1.5461500     0.5645390
  C        2.1210610    -1.6392390    -0.2794470
  H        3.7418240    -0.1353950     0.1686580
  H        1.1394670     2.2188990     1.1681400
  H        2.8785810     2.0278530     0.8121890
  H        1.7220340     2.4842350    -0.4794890
  H       -3.8467550    -0.1153850    -0.7799180
  H       -2.9915450     1.4520350    -0.6543500
  H       -3.6876690     0.6913720     0.7990550
  H       -1.0742680    -1.9474190     0.8155770
  H       -2.5092790    -2.1983750    -0.1864030
  H       -2.6938370    -1.5270200     1.4518100
  H        2.6051200    -2.5920870    -0.4498700
units angstrom
no_reorient  #important for SAPT in psi4, default
symmetry c1  #important for SAPT in psi4, default
}

set PROPERTIES_ORIGIN ["COM"]
properties('MP2/aug-cc-pvtz', properties = ['dipole'])
--------------------------------------------------------------------------

    Molecular point group: c1
  Charge       = 0
  Multiplicity = 1
  Basis Set: AUG-CC-PVTZ
    Blend: AUG-CC-PVTZ
  Basis Set: (AUG-CC-PVTZ AUX)
    Blend: AUG-CC-PVTZ-JKFIT

    Orbital Energies [Eh]
    ---------------------

    Doubly Occupied:

       1A    -20.520354     2A    -15.629454     3A    -15.594644
       4A    -15.556284     5A    -11.362938     6A    -11.303847
       7A    -11.270476     8A    -11.264579     9A    -11.258878
      10A    -11.255025    11A    -11.247544    12A     -1.392728
      13A     -1.340640    14A     -1.256351    15A     -1.185004
      16A     -1.023813    17A     -0.973759    18A     -0.970812
      19A     -0.943403    20A     -0.821918    21A     -0.805712
      22A     -0.740883    23A     -0.711858    24A     -0.663919
      25A     -0.659893    26A     -0.647889    27A     -0.639959
      28A     -0.602978    29A     -0.589350    30A     -0.577117
      31A     -0.562619    32A     -0.557688    33A     -0.555788
      34A     -0.552604    35A     -0.532064    36A     -0.529144
      37A     -0.449015    38A     -0.426113    39A     -0.388433
      40A     -0.379226    41A     -0.316708

  @DF-RHF Final Energy:  -509.86107988243918

   => Energetics <=

    Nuclear Repulsion Energy =            628.8960207792729307
    One-Electron Energy =               -1941.3913844011460696
    Two-Electron Energy =                 802.6342837394339540
    Total Energy =                       -509.8610798824391850
  Basis Set: (AUG-CC-PVTZ AUX)
    Blend: AUG-CC-PVTZ-RI
    Molecular point group: c1

    Geometry (in Angstrom), charge = 0, multiplicity = 1:

       Center              X                  Y                   Z               Mass
    ------------   -----------------  -----------------  -----------------  -----------------
         O           -0.794268502879     1.721393816869    -0.418015214656    15.994914619570
         N            1.659118497121     0.475248816869     0.156334785344    14.003074004430
         N           -1.956366502879    -0.191079183131     0.062869785344    14.003074004430
         N            0.736747497121    -1.508362183131    -0.330299214656    14.003074004430
         C            0.491061497121    -0.215596183131    -0.064805214656    12.000000000000
         C           -0.846415002879     0.529583816869    -0.147562914656    12.000000000000
         C            2.684273497121    -0.427139183131     0.038373785344    12.000000000000
         C            1.839446497121     1.896964816869     0.443188785344    12.000000000000
         C           -3.217681502879     0.504057816869    -0.142419214656    12.000000000000
         C           -2.077520502879    -1.545648183131     0.582013785344    12.000000000000
         C            2.093877497121    -1.638737183131    -0.261972214656    12.000000000000
         H            3.714640497121    -0.134893183131     0.186132785344     1.007825032230
         H            1.112283497121     2.219400816869     1.185614785344     1.007825032230
         H            2.851397497121     2.028354816869     0.829663785344     1.007825032230
         H            1.694850497121     2.484736816869    -0.462014214656     1.007825032230
         H           -3.873938502879    -0.114883183131    -0.762443214656     1.007825032230
         H           -3.018728502879     1.452536816869    -0.636875214656     1.007825032230
         H           -3.714852502879     0.691873816869     0.816529785344     1.007825032230
         H           -1.101451502879    -1.946917183131     0.833051785344     1.007825032230
         H           -2.536462502879    -2.197873183131    -0.168928214656     1.007825032230
         H           -2.721020502879    -1.526518183131     1.469284785344     1.007825032230
         H            2.577936497121    -2.591585183131    -0.432395214656     1.007825032230

  Basis Set: AUG-CC-PVTZ
    Blend: AUG-CC-PVTZ
  Basis Set: (AUG-CC-PVTZ AUX)
    Blend: AUG-CC-PVTZ-JKFIT
	 Reference Energy          =    -509.8610798824391850 [Eh]
	 Singles Energy            =      -0.0000000000000000 [Eh]
	 Same-Spin Energy          =      -0.5428330091106275 [Eh]
	 Opposite-Spin Energy      =      -1.6936102403337521 [Eh]
	 Correlation Energy        =      -2.2364432494443793 [Eh]
	 Total Energy              =    -512.0975231318835768 [Eh]

	 ================> DF-SCS-MP2 Energies <==================
	-----------------------------------------------------------
	 SCS Same-Spin Scale       =       0.3333333333333333 [-]
	 SCS Opposite-Spin Scale   =       1.2000000000000000 [-]
	 SCS Same-Spin Energy      =      -0.1809443363702092 [Eh]
	 SCS Opposite-Spin Energy  =      -2.0323322884005024 [Eh]
	 SCS Correlation Energy    =      -2.2132766247707116 [Eh]
	 SCS Total Energy          =    -512.0743565072099273 [Eh]
	-----------------------------------------------------------

  Dipole Moment: [D]
     X:     0.3717      Y:     0.0925      Z:     1.7214     Total:     1.7635

*** Psi4 exiting successfully. Buy a developer a beer!
