                               Psi4 1.3.2 release

  ==> Input File <==

--------------------------------------------------------------------------
#psi4
#
memory 32 gb

molecule  {
0 1
  O       -0.7670850     1.7208920    -0.4354900
  N        1.6863020     0.4747470     0.1388600
  N       -1.9291830    -0.1915810     0.0453950
  N        0.6271849    -1.5210697    -0.3777011
  C        0.5182450    -0.2160980    -0.0822800
  C       -0.7756170     0.5047820    -0.1623390
  C        2.7114570    -0.4276410     0.0208990
  C        1.8666300     1.8964630     0.4257140
  C       -3.1904980     0.5035560    -0.1598940
  C       -2.0503370    -1.5461500     0.5645390
  C        2.1210610    -1.6392390    -0.2794470
  H        3.7418240    -0.1353950     0.1686580
  H        1.1394670     2.2188990     1.1681400
  H        2.8785810     2.0278530     0.8121890
  H        1.7220340     2.4842350    -0.4794890
  H       -3.8467550    -0.1153850    -0.7799180
  H       -2.9915450     1.4520350    -0.6543500
  H       -3.6876690     0.6913720     0.7990550
  H       -1.0742680    -1.9474190     0.8155770
  H       -2.5092790    -2.1983750    -0.1864030
  H       -2.6938370    -1.5270200     1.4518100
  H        2.6051200    -2.5920870    -0.4498700
units angstrom
no_reorient  #important for SAPT in psi4, default
symmetry c1  #important for SAPT in psi4, default
}

set PROPERTIES_ORIGIN ["COM"]
properties('MP2/aug-cc-pvtz', properties = ['dipole'])
--------------------------------------------------------------------------

    Molecular point group: c1
  Charge       = 0
  Multiplicity = 1
  Basis Set: AUG-CC-PVTZ
    Blend: AUG-CC-PVTZ
  Basis Set: (AUG-CC-PVTZ AUX)
    Blend: AUG-CC-PVTZ-JKFIT

    Orbital Energies [Eh]
    ---------------------

    Doubly Occupied:

       1A    -20.517741     2A    -15.630482     3A    -15.591637
       4A    -15.576834     5A    -11.360724     6A    -11.313842
       7A    -11.276454     8A    -11.273309     9A    -11.262622
      10A    -11.252770    11A    -11.252441    12A     -1.379686
      13A     -1.332823    14A     -1.245254    15A     -1.174634
      16A     -1.034004    17A     -0.972501    18A     -0.965434
      19A     -0.937254    20A     -0.834460    21A     -0.810126
      22A     -0.732624    23A     -0.708926    24A     -0.661136
      25A     -0.652634    26A     -0.645281    27A     -0.639573
      28A     -0.599639    29A     -0.591231    30A     -0.569542
      31A     -0.561432    32A     -0.552687    33A     -0.551944
      34A     -0.549006    35A     -0.527617    36A     -0.520457
      37A     -0.463820    38A     -0.426672    39A     -0.384464
      40A     -0.371836    41A     -0.327652

  @DF-RHF Final Energy:  -509.84084778956651

   => Energetics <=

    Nuclear Repulsion Energy =            627.6553228603740990
    One-Electron Energy =               -1938.9259356877414575
    Two-Electron Energy =                 801.4297650378008484
    Total Energy =                       -509.8408477895665101
  Basis Set: (AUG-CC-PVTZ AUX)
    Blend: AUG-CC-PVTZ-RI
    Molecular point group: c1

    Geometry (in Angstrom), charge = 0, multiplicity = 1:

       Center              X                  Y                   Z               Mass
    ------------   -----------------  -----------------  -----------------  -----------------
         O           -0.785179144780     1.724415024524    -0.415489337978    15.994914619570
         N            1.668207855220     0.478270024524     0.158860662022    14.003074004430
         N           -1.947277144780    -0.188057975476     0.065395662022    14.003074004430
         N            0.609090755220    -1.517546675476    -0.357700437978    14.003074004430
         C            0.500150855220    -0.212574975476    -0.062279337978    12.000000000000
         C           -0.793711144780     0.508305024524    -0.142338337978    12.000000000000
         C            2.693362855220    -0.424117975476     0.040899662022    12.000000000000
         C            1.848535855220     1.899986024524     0.445714662022    12.000000000000
         C           -3.208592144780     0.507079024524    -0.139893337978    12.000000000000
         C           -2.068431144780    -1.542626975476     0.584539662022    12.000000000000
         C            2.102966855220    -1.635715975476    -0.259446337978    12.000000000000
         H            3.723729855220    -0.131871975476     0.188658662022     1.007825032230
         H            1.121372855220     2.222422024524     1.188140662022     1.007825032230
         H            2.860486855220     2.031376024524     0.832189662022     1.007825032230
         H            1.703939855220     2.487758024524    -0.459488337978     1.007825032230
         H           -3.864849144780    -0.111861975476    -0.759917337978     1.007825032230
         H           -3.009639144780     1.455558024524    -0.634349337978     1.007825032230
         H           -3.705763144780     0.694895024524     0.819055662022     1.007825032230
         H           -1.092362144780    -1.943895975476     0.835577662022     1.007825032230
         H           -2.527373144780    -2.194851975476    -0.166402337978     1.007825032230
         H           -2.711931144780    -1.523496975476     1.471810662022     1.007825032230
         H            2.587025855220    -2.588563975476    -0.429869337978     1.007825032230

  Basis Set: AUG-CC-PVTZ
    Blend: AUG-CC-PVTZ
  Basis Set: (AUG-CC-PVTZ AUX)
    Blend: AUG-CC-PVTZ-JKFIT
	 Reference Energy          =    -509.8408477895665101 [Eh]
	 Singles Energy            =      -0.0000000000000000 [Eh]
	 Same-Spin Energy          =      -0.5439155587398632 [Eh]
	 Opposite-Spin Energy      =      -1.6992680048591180 [Eh]
	 Correlation Energy        =      -2.2431835635989810 [Eh]
	 Total Energy              =    -512.0840313531655283 [Eh]

	 ================> DF-SCS-MP2 Energies <==================
	-----------------------------------------------------------
	 SCS Same-Spin Scale       =       0.3333333333333333 [-]
	 SCS Opposite-Spin Scale   =       1.2000000000000000 [-]
	 SCS Same-Spin Energy      =      -0.1813051862466211 [Eh]
	 SCS Opposite-Spin Energy  =      -2.0391216058309416 [Eh]
	 SCS Correlation Energy    =      -2.2204267920775624 [Eh]
	 SCS Total Energy          =    -512.0612745816440565 [Eh]
	-----------------------------------------------------------

  Dipole Moment: [D]
     X:     0.9189      Y:     0.0853      Z:     1.7673     Total:     1.9938

*** Psi4 exiting successfully. Buy a developer a beer!
