                               Psi4 1.3.2 release

  ==> Input File <==

--------------------------------------------------------------------------
#psi4
#
memory 32 gb

molecule  {
0 1
  O       -0.7670850     1.7208920    -0.4354900
  N        1.6863020     0.4747470     0.1388600
  N       -1.9291830    -0.1915810     0.0453950
  N        0.8979853    -1.4824945    -0.3149381
  C        0.5182450    -0.2160980    -0.0822800
  C       -0.7756170     0.5047820    -0.1623390
  C        2.7114570    -0.4276410     0.0208990
  C        1.8666300     1.8964630     0.4257140
  C       -3.1904980     0.5035560    -0.1598940
  C       -2.0503370    -1.5461500     0.5645390
  C        2.1210610    -1.6392390    -0.2794470
  H        3.7418240    -0.1353950     0.1686580
  H        1.1394670     2.2188990     1.1681400
  H        2.8785810     2.0278530     0.8121890
  H        1.7220340     2.4842350    -0.4794890
  H       -3.8467550    -0.1153850    -0.7799180
  H       -2.9915450     1.4520350    -0.6543500
  H       -3.6876690     0.6913720     0.7990550
  H       -1.0742680    -1.9474190     0.8155770
  H       -2.5092790    -2.1983750    -0.1864030
  H       -2.6938370    -1.5270200     1.4518100
  H        2.6051200    -2.5920870    -0.4498700
units angstrom
no_reorient  #important for SAPT in psi4, default
symmetry c1  #important for SAPT in psi4, default
}

set PROPERTIES_ORIGIN ["COM"]
properties('MP2/aug-cc-pvtz', properties = ['dipole'])
--------------------------------------------------------------------------

    Molecular point group: c1
  Charge       = 0
  Multiplicity = 1
  Basis Set: AUG-CC-PVTZ
    Blend: AUG-CC-PVTZ
  Basis Set: (AUG-CC-PVTZ AUX)
    Blend: AUG-CC-PVTZ-JKFIT

    Orbital Energies [Eh]
    ---------------------

    Doubly Occupied:

       1A    -20.516303     2A    -15.637746     3A    -15.591418
       4A    -15.543358     5A    -11.364439     6A    -11.296511
       7A    -11.270527     8A    -11.263280     9A    -11.257522
      10A    -11.252629    11A    -11.238204    12A     -1.383263
      13A     -1.356363    14A     -1.245153    15A     -1.208568
      16A     -1.030705    17A     -0.980491    18A     -0.967496
      19A     -0.940485    20A     -0.829549    21A     -0.812631
      22A     -0.751390    23A     -0.710371    24A     -0.667639
      25A     -0.658831    26A     -0.646676    27A     -0.641133
      28A     -0.614774    29A     -0.594253    30A     -0.577545
      31A     -0.565672    32A     -0.562552    33A     -0.556714
      34A     -0.554092    35A     -0.527606    36A     -0.524958
      37A     -0.438067    38A     -0.417674    39A     -0.404377
      40A     -0.373524    41A     -0.311337

  @DF-RHF Final Energy:  -509.84311443041275

   => Energetics <=

    Nuclear Repulsion Energy =            630.9024444454610148
    One-Electron Energy =               -1945.3194592869358530
    Two-Electron Energy =                 804.5739004110620272
    Total Energy =                       -509.8431144304128111
  Basis Set: (AUG-CC-PVTZ AUX)
    Blend: AUG-CC-PVTZ-RI
    Molecular point group: c1

    Geometry (in Angstrom), charge = 0, multiplicity = 1:

       Center              X                  Y                   Z               Mass
    ------------   -----------------  -----------------  -----------------  -----------------
         O           -0.809949102261     1.720886573075    -0.421230233639    15.994914619570
         N            1.643437897739     0.474741573075     0.153119766361    14.003074004430
         N           -1.972047102261    -0.191586426925     0.059654766361    14.003074004430
         N            0.855121197739    -1.482499926925    -0.300678333639    14.003074004430
         C            0.475380897739    -0.216103426925    -0.068020233639    12.000000000000
         C           -0.818481102261     0.504776573075    -0.148079233639    12.000000000000
         C            2.668592897739    -0.427646426925     0.035158766361    12.000000000000
         C            1.823765897739     1.896457573075     0.439973766361    12.000000000000
         C           -3.233362102261     0.503550573075    -0.145634233639    12.000000000000
         C           -2.093201102261    -1.546155426925     0.578798766361    12.000000000000
         C            2.078196897739    -1.639244426925    -0.265187233639    12.000000000000
         H            3.698959897739    -0.135400426925     0.182917766361     1.007825032230
         H            1.096602897739     2.218893573075     1.182399766361     1.007825032230
         H            2.835716897739     2.027847573075     0.826448766361     1.007825032230
         H            1.679169897739     2.484229573075    -0.465229233639     1.007825032230
         H           -3.889619102261    -0.115390426925    -0.765658233639     1.007825032230
         H           -3.034409102261     1.452029573075    -0.640090233639     1.007825032230
         H           -3.730533102261     0.691366573075     0.813314766361     1.007825032230
         H           -1.117132102261    -1.947424426925     0.829836766361     1.007825032230
         H           -2.552143102261    -2.198380426925    -0.172143233639     1.007825032230
         H           -2.736701102261    -1.527025426925     1.466069766361     1.007825032230
         H            2.562255897739    -2.592092426925    -0.435610233639     1.007825032230

  Basis Set: AUG-CC-PVTZ
    Blend: AUG-CC-PVTZ
  Basis Set: (AUG-CC-PVTZ AUX)
    Blend: AUG-CC-PVTZ-JKFIT
	 Reference Energy          =    -509.8431144304127542 [Eh]
	 Singles Energy            =      -0.0000000000000000 [Eh]
	 Same-Spin Energy          =      -0.5446031174937425 [Eh]
	 Opposite-Spin Energy      =      -1.6936905531464206 [Eh]
	 Correlation Energy        =      -2.2382936706401630 [Eh]
	 Total Energy              =    -512.0814081010529435 [Eh]

	 ================> DF-SCS-MP2 Energies <==================
	-----------------------------------------------------------
	 SCS Same-Spin Scale       =       0.3333333333333333 [-]
	 SCS Opposite-Spin Scale   =       1.2000000000000000 [-]
	 SCS Same-Spin Energy      =      -0.1815343724979142 [Eh]
	 SCS Opposite-Spin Energy  =      -2.0324286637757045 [Eh]
	 SCS Correlation Energy    =      -2.2139630362736185 [Eh]
	 SCS Total Energy          =    -512.0570774666863372 [Eh]
	-----------------------------------------------------------

  Dipole Moment: [D]
     X:     0.5006      Y:    -0.1707      Z:     1.6431     Total:     1.7262

*** Psi4 exiting successfully. Buy a developer a beer!
