                               Psi4 1.3.2 release

  ==> Input File <==

--------------------------------------------------------------------------
#psi4
#
memory 32 gb

molecule  {
0 1
  O       -0.7670850     1.7208920    -0.4354900
  N        1.6863020     0.4747470     0.1388600
  N       -1.9291830    -0.1915810     0.0453950
  N        0.7639310    -1.5088640    -0.3477740
  C        0.5182450    -0.2160980    -0.0822800
  C       -0.7756170     0.5047820    -0.1623390
  C        2.7862408    -0.4934691     0.0122939
  C        1.8666300     1.8964630     0.4257140
  C       -3.1904980     0.5035560    -0.1598940
  C       -2.0503370    -1.5461500     0.5645390
  C        2.1210610    -1.6392390    -0.2794470
  H        3.7418240    -0.1353950     0.1686580
  H        1.1394670     2.2188990     1.1681400
  H        2.8785810     2.0278530     0.8121890
  H        1.7220340     2.4842350    -0.4794890
  H       -3.8467550    -0.1153850    -0.7799180
  H       -2.9915450     1.4520350    -0.6543500
  H       -3.6876690     0.6913720     0.7990550
  H       -1.0742680    -1.9474190     0.8155770
  H       -2.5092790    -2.1983750    -0.1864030
  H       -2.6938370    -1.5270200     1.4518100
  H        2.6051200    -2.5920870    -0.4498700
units angstrom
no_reorient  #important for SAPT in psi4, default
symmetry c1  #important for SAPT in psi4, default
}

set PROPERTIES_ORIGIN ["COM"]
properties('MP2/aug-cc-pvtz', properties = ['dipole'])
--------------------------------------------------------------------------

    Molecular point group: c1
  Charge       = 0
  Multiplicity = 1
  Basis Set: AUG-CC-PVTZ
    Blend: AUG-CC-PVTZ
  Basis Set: (AUG-CC-PVTZ AUX)
    Blend: AUG-CC-PVTZ-JKFIT

    Orbital Energies [Eh]
    ---------------------

    Doubly Occupied:

       1A    -20.521028     2A    -15.627002     3A    -15.594935
       4A    -15.558389     5A    -11.366025     6A    -11.313575
       7A    -11.268386     8A    -11.267310     9A    -11.256864
      10A    -11.255403    11A    -11.254537    12A     -1.381146
      13A     -1.325992    14A     -1.247696    15A     -1.178673
      16A     -1.034574    17A     -0.971556    18A     -0.967893
      19A     -0.940555    20A     -0.833030    21A     -0.811644
      22A     -0.737354    23A     -0.711087    24A     -0.660598
      25A     -0.656515    26A     -0.647022    27A     -0.633140
      28A     -0.615000    29A     -0.592174    30A     -0.576005
      31A     -0.559918    32A     -0.555132    33A     -0.553257
      34A     -0.543330    35A     -0.527297    36A     -0.522334
      37A     -0.452218    38A     -0.430880    39A     -0.381742
      40A     -0.374927    41A     -0.331159

  @DF-RHF Final Energy:  -509.84862266798837

   => Energetics <=

    Nuclear Repulsion Energy =            627.0446662676581582
    One-Electron Energy =               -1937.7119707209385524
    Two-Electron Energy =                 800.8186817852920285
    Total Energy =                       -509.8486226679883657
  Basis Set: (AUG-CC-PVTZ AUX)
    Blend: AUG-CC-PVTZ-RI
    Molecular point group: c1

    Geometry (in Angstrom), charge = 0, multiplicity = 1:

       Center              X                  Y                   Z               Mass
    ------------   -----------------  -----------------  -----------------  -----------------
         O           -0.803549171979     1.728458521960    -0.417552240576    15.994914619570
         N            1.649837828021     0.482313521960     0.156797759424    14.003074004430
         N           -1.965647171979    -0.184014478040     0.063332759424    14.003074004430
         N            0.727466828021    -1.501297478040    -0.329836240576    14.003074004430
         C            0.481780828021    -0.208531478040    -0.064342240576    12.000000000000
         C           -0.812081171979     0.512348521960    -0.144401240576    12.000000000000
         C            2.749776628021    -0.485902578040     0.030231659424    12.000000000000
         C            1.830165828021     1.904029521960     0.443651759424    12.000000000000
         C           -3.226962171979     0.511122521960    -0.141956240576    12.000000000000
         C           -2.086801171979    -1.538583478040     0.582476759424    12.000000000000
         C            2.084596828021    -1.631672478040    -0.261509240576    12.000000000000
         H            3.705359828021    -0.127828478040     0.186595759424     1.007825032230
         H            1.103002828021     2.226465521960     1.186077759424     1.007825032230
         H            2.842116828021     2.035419521960     0.830126759424     1.007825032230
         H            1.685569828021     2.491801521960    -0.461551240576     1.007825032230
         H           -3.883219171979    -0.107818478040    -0.761980240576     1.007825032230
         H           -3.028009171979     1.459601521960    -0.636412240576     1.007825032230
         H           -3.724133171979     0.698938521960     0.816992759424     1.007825032230
         H           -1.110732171979    -1.939852478040     0.833514759424     1.007825032230
         H           -2.545743171979    -2.190808478040    -0.168465240576     1.007825032230
         H           -2.730301171979    -1.519453478040     1.469747759424     1.007825032230
         H            2.568655828021    -2.584520478040    -0.431932240576     1.007825032230

  Basis Set: AUG-CC-PVTZ
    Blend: AUG-CC-PVTZ
  Basis Set: (AUG-CC-PVTZ AUX)
    Blend: AUG-CC-PVTZ-JKFIT
	 Reference Energy          =    -509.8486226679883657 [Eh]
	 Singles Energy            =      -0.0000000000000000 [Eh]
	 Same-Spin Energy          =      -0.5434903307046401 [Eh]
	 Opposite-Spin Energy      =      -1.6967579434999047 [Eh]
	 Correlation Energy        =      -2.2402482742045446 [Eh]
	 Total Energy              =    -512.0888709421928979 [Eh]

	 ================> DF-SCS-MP2 Energies <==================
	-----------------------------------------------------------
	 SCS Same-Spin Scale       =       0.3333333333333333 [-]
	 SCS Opposite-Spin Scale   =       1.2000000000000000 [-]
	 SCS Same-Spin Energy      =      -0.1811634435682134 [Eh]
	 SCS Opposite-Spin Energy  =      -2.0361095321998857 [Eh]
	 SCS Correlation Energy    =      -2.2172729757680991 [Eh]
	 SCS Total Energy          =    -512.0658956437564484 [Eh]
	-----------------------------------------------------------

  Dipole Moment: [D]
     X:     0.6524      Y:    -0.0875      Z:     1.6962     Total:     1.8195

*** Psi4 exiting successfully. Buy a developer a beer!
