                               Psi4 1.3.2 release

  ==> Input File <==

--------------------------------------------------------------------------
#psi4
#
memory 32 gb

molecule  {
0 1
  O       -0.7670850     1.7208920    -0.4354900
  N        1.6863020     0.4747470     0.1388600
  N       -1.9291830    -0.1915810     0.0453950
  N        0.7639310    -1.5088640    -0.3477740
  C        0.5440761    -0.2560165    -0.0888058
  C       -0.7756170     0.5047820    -0.1623390
  C        2.7114570    -0.4276410     0.0208990
  C        1.8666300     1.8964630     0.4257140
  C       -3.1904980     0.5035560    -0.1598940
  C       -2.0503370    -1.5461500     0.5645390
  C        2.1210610    -1.6392390    -0.2794470
  H        3.7418240    -0.1353950     0.1686580
  H        1.1394670     2.2188990     1.1681400
  H        2.8785810     2.0278530     0.8121890
  H        1.7220340     2.4842350    -0.4794890
  H       -3.8467550    -0.1153850    -0.7799180
  H       -2.9915450     1.4520350    -0.6543500
  H       -3.6876690     0.6913720     0.7990550
  H       -1.0742680    -1.9474190     0.8155770
  H       -2.5092790    -2.1983750    -0.1864030
  H       -2.6938370    -1.5270200     1.4518100
  H        2.6051200    -2.5920870    -0.4498700
units angstrom
no_reorient  #important for SAPT in psi4, default
symmetry c1  #important for SAPT in psi4, default
}

set PROPERTIES_ORIGIN ["COM"]
properties('MP2/aug-cc-pvtz', properties = ['dipole'])
--------------------------------------------------------------------------

    Molecular point group: c1
  Charge       = 0
  Multiplicity = 1
  Basis Set: AUG-CC-PVTZ
    Blend: AUG-CC-PVTZ
  Basis Set: (AUG-CC-PVTZ AUX)
    Blend: AUG-CC-PVTZ-JKFIT

    Orbital Energies [Eh]
    ---------------------

    Doubly Occupied:

       1A    -20.519031     2A    -15.628743     3A    -15.592345
       4A    -15.558206     5A    -11.364872     6A    -11.305212
       7A    -11.272151     8A    -11.268015     9A    -11.256048
      10A    -11.252993    11A    -11.249593    12A     -1.380371
      13A     -1.347258    14A     -1.245732    15A     -1.198011
      16A     -1.028431    17A     -0.976129    18A     -0.967070
      19A     -0.938059    20A     -0.826183    21A     -0.811746
      22A     -0.742638    23A     -0.709715    24A     -0.661714
      25A     -0.654461    26A     -0.644141    27A     -0.640368
      28A     -0.606582    29A     -0.594479    30A     -0.571804
      31A     -0.563709    32A     -0.557258    33A     -0.555656
      34A     -0.553388    35A     -0.528105    36A     -0.523236
      37A     -0.457172    38A     -0.425266    39A     -0.395451
      40A     -0.373380    41A     -0.321476

  @DF-RHF Final Energy:  -509.86095191231425

   => Energetics <=

    Nuclear Repulsion Energy =            629.0687227190962858
    One-Electron Energy =               -1941.7269510835667461
    Two-Electron Energy =                 802.7972764521562112
    Total Energy =                       -509.8609519123142491
  Basis Set: (AUG-CC-PVTZ AUX)
    Blend: AUG-CC-PVTZ-RI
    Molecular point group: c1

    Geometry (in Angstrom), charge = 0, multiplicity = 1:

       Center              X                  Y                   Z               Mass
    ------------   -----------------  -----------------  -----------------  -----------------
         O           -0.799712007001     1.726427593947    -0.417715226829    15.994914619570
         N            1.653674992999     0.480282593947     0.156634773171    14.003074004430
         N           -1.961810007001    -0.186045406053     0.063169773171    14.003074004430
         N            0.731303992999    -1.503328406053    -0.329999226829    14.003074004430
         C            0.511449092999    -0.250480906053    -0.071031026829    12.000000000000
         C           -0.808244007001     0.510317593947    -0.144564226829    12.000000000000
         C            2.678829992999    -0.422105406053     0.038673773171    12.000000000000
         C            1.834002992999     1.901998593947     0.443488773171    12.000000000000
         C           -3.223125007001     0.509091593947    -0.142119226829    12.000000000000
         C           -2.082964007001    -1.540614406053     0.582313773171    12.000000000000
         C            2.088433992999    -1.633703406053    -0.261672226829    12.000000000000
         H            3.709196992999    -0.129859406053     0.186432773171     1.007825032230
         H            1.106839992999     2.224434593947     1.185914773171     1.007825032230
         H            2.845953992999     2.033388593947     0.829963773171     1.007825032230
         H            1.689406992999     2.489770593947    -0.461714226829     1.007825032230
         H           -3.879382007001    -0.109849406053    -0.762143226829     1.007825032230
         H           -3.024172007001     1.457570593947    -0.636575226829     1.007825032230
         H           -3.720296007001     0.696907593947     0.816829773171     1.007825032230
         H           -1.106895007001    -1.941883406053     0.833351773171     1.007825032230
         H           -2.541906007001    -2.192839406053    -0.168628226829     1.007825032230
         H           -2.726464007001    -1.521484406053     1.469584773171     1.007825032230
         H            2.572492992999    -2.586551406053    -0.432095226829     1.007825032230

  Basis Set: AUG-CC-PVTZ
    Blend: AUG-CC-PVTZ
  Basis Set: (AUG-CC-PVTZ AUX)
    Blend: AUG-CC-PVTZ-JKFIT
	 Reference Energy          =    -509.8609519123142491 [Eh]
	 Singles Energy            =      -0.0000000000000000 [Eh]
	 Same-Spin Energy          =      -0.5425871541300180 [Eh]
	 Opposite-Spin Energy      =      -1.6934062540334556 [Eh]
	 Correlation Energy        =      -2.2359934081634734 [Eh]
	 Total Energy              =    -512.0969453204777437 [Eh]

	 ================> DF-SCS-MP2 Energies <==================
	-----------------------------------------------------------
	 SCS Same-Spin Scale       =       0.3333333333333333 [-]
	 SCS Opposite-Spin Scale   =       1.2000000000000000 [-]
	 SCS Same-Spin Energy      =      -0.1808623847100060 [Eh]
	 SCS Opposite-Spin Energy  =      -2.0320875048401468 [Eh]
	 SCS Correlation Energy    =      -2.2129498895501527 [Eh]
	 SCS Total Energy          =    -512.0739018018643947 [Eh]
	-----------------------------------------------------------

  Dipole Moment: [D]
     X:     0.6173      Y:    -0.0029      Z:     1.7042     Total:     1.8125

*** Psi4 exiting successfully. Buy a developer a beer!
