                               Psi4 1.3.2 release

  ==> Input File <==

--------------------------------------------------------------------------
#psi4
#
memory 32 gb

molecule  {
0 1
  O       -0.7670850     1.7208920    -0.4354900
  N        1.6863020     0.4747470     0.1388600
  N       -1.9291830    -0.1915810     0.0453950
  N        0.7639310    -1.5088640    -0.3477740
  C        0.5182450    -0.2160980    -0.0822800
  C       -0.7756170     0.5047820    -0.1623390
  C        2.6456961    -0.4950764     0.0040746
  C        1.8666300     1.8964630     0.4257140
  C       -3.1904980     0.5035560    -0.1598940
  C       -2.0503370    -1.5461500     0.5645390
  C        2.1210610    -1.6392390    -0.2794470
  H        3.7418240    -0.1353950     0.1686580
  H        1.1394670     2.2188990     1.1681400
  H        2.8785810     2.0278530     0.8121890
  H        1.7220340     2.4842350    -0.4794890
  H       -3.8467550    -0.1153850    -0.7799180
  H       -2.9915450     1.4520350    -0.6543500
  H       -3.6876690     0.6913720     0.7990550
  H       -1.0742680    -1.9474190     0.8155770
  H       -2.5092790    -2.1983750    -0.1864030
  H       -2.6938370    -1.5270200     1.4518100
  H        2.6051200    -2.5920870    -0.4498700
units angstrom
no_reorient  #important for SAPT in psi4, default
symmetry c1  #important for SAPT in psi4, default
}

set PROPERTIES_ORIGIN ["COM"]
properties('MP2/aug-cc-pvtz', properties = ['dipole'])
--------------------------------------------------------------------------

    Molecular point group: c1
  Charge       = 0
  Multiplicity = 1
  Basis Set: AUG-CC-PVTZ
    Blend: AUG-CC-PVTZ
  Basis Set: (AUG-CC-PVTZ AUX)
    Blend: AUG-CC-PVTZ-JKFIT

    Orbital Energies [Eh]
    ---------------------

    Doubly Occupied:

       1A    -20.518735     2A    -15.627560     3A    -15.592485
       4A    -15.557929     5A    -11.363255     6A    -11.306628
       7A    -11.273102     8A    -11.264403     9A    -11.255182
      10A    -11.253050    11A    -11.238291    12A     -1.381945
      13A     -1.346724    14A     -1.245776    15A     -1.187711
      16A     -1.041024    17A     -0.977168    18A     -0.966963
      19A     -0.940973    20A     -0.840475    21A     -0.798459
      22A     -0.745223    23A     -0.707928    24A     -0.662256
      25A     -0.656324    26A     -0.641446    27A     -0.638012
      28A     -0.606575    29A     -0.592586    30A     -0.574424
      31A     -0.559878    32A     -0.557063    33A     -0.553405
      34A     -0.551698    35A     -0.527800    36A     -0.524595
      37A     -0.449133    38A     -0.428760    39A     -0.388737
      40A     -0.373491    41A     -0.334031

  @DF-RHF Final Energy:  -509.84880998878828

   => Energetics <=

    Nuclear Repulsion Energy =            630.5529818963806292
    One-Electron Energy =               -1944.7011870792821355
    Two-Electron Energy =                 804.2993951941133446
    Total Energy =                       -509.8488099887882754
  Basis Set: (AUG-CC-PVTZ AUX)
    Blend: AUG-CC-PVTZ-RI
    Molecular point group: c1

    Geometry (in Angstrom), charge = 0, multiplicity = 1:

       Center              X                  Y                   Z               Mass
    ------------   -----------------  -----------------  -----------------  -----------------
         O           -0.792532553881     1.728584510419    -0.416907969472    15.994914619570
         N            1.660854446119     0.482439510419     0.157442030528    14.003074004430
         N           -1.954630553881    -0.183888489581     0.063977030528    14.003074004430
         N            0.738483446119    -1.501171489581    -0.329191969472    14.003074004430
         C            0.492797446119    -0.208405489581    -0.063697969472    12.000000000000
         C           -0.801064553881     0.512474510419    -0.143756969472    12.000000000000
         C            2.620248546119    -0.487383889581     0.022656630528    12.000000000000
         C            1.841182446119     1.904155510419     0.444296030528    12.000000000000
         C           -3.215945553881     0.511248510419    -0.141311969472    12.000000000000
         C           -2.075784553881    -1.538457489581     0.583121030528    12.000000000000
         C            2.095613446119    -1.631546489581    -0.260864969472    12.000000000000
         H            3.716376446119    -0.127702489581     0.187240030528     1.007825032230
         H            1.114019446119     2.226591510419     1.186722030528     1.007825032230
         H            2.853133446119     2.035545510419     0.830771030528     1.007825032230
         H            1.696586446119     2.491927510419    -0.460906969472     1.007825032230
         H           -3.872202553881    -0.107692489581    -0.761335969472     1.007825032230
         H           -3.016992553881     1.459727510419    -0.635767969472     1.007825032230
         H           -3.713116553881     0.699064510419     0.817637030528     1.007825032230
         H           -1.099715553881    -1.939726489581     0.834159030528     1.007825032230
         H           -2.534726553881    -2.190682489581    -0.167820969472     1.007825032230
         H           -2.719284553881    -1.519327489581     1.470392030528     1.007825032230
         H            2.579672446119    -2.584394489581    -0.431287969472     1.007825032230

  Basis Set: AUG-CC-PVTZ
    Blend: AUG-CC-PVTZ
  Basis Set: (AUG-CC-PVTZ AUX)
    Blend: AUG-CC-PVTZ-JKFIT
	 Reference Energy          =    -509.8488099887882754 [Eh]
	 Singles Energy            =      -0.0000000000000000 [Eh]
	 Same-Spin Energy          =      -0.5430367126022622 [Eh]
	 Opposite-Spin Energy      =      -1.6941590380594833 [Eh]
	 Correlation Energy        =      -2.2371957506617455 [Eh]
	 Total Energy              =    -512.0860057394500018 [Eh]

	 ================> DF-SCS-MP2 Energies <==================
	-----------------------------------------------------------
	 SCS Same-Spin Scale       =       0.3333333333333333 [-]
	 SCS Opposite-Spin Scale   =       1.2000000000000000 [-]
	 SCS Same-Spin Energy      =      -0.1810122375340874 [Eh]
	 SCS Opposite-Spin Energy  =      -2.0329908456713799 [Eh]
	 SCS Correlation Energy    =      -2.2140030832054673 [Eh]
	 SCS Total Energy          =    -512.0628130719937872 [Eh]
	-----------------------------------------------------------

  Dipole Moment: [D]
     X:     0.6942      Y:    -0.0312      Z:     1.7051     Total:     1.8413

*** Psi4 exiting successfully. Buy a developer a beer!
