                               Psi4 1.3.2 release

  ==> Input File <==

--------------------------------------------------------------------------
#psi4
#
memory 32 gb

molecule  {
0 1
  O       -0.7670850     1.7208920    -0.4354900
  N        1.6863020     0.4747470     0.1388600
  N       -1.9291830    -0.1915810     0.0453950
  N        0.7639310    -1.5088640    -0.3477740
  C        0.5711883    -0.2953537    -0.0935045
  C       -0.7756170     0.5047820    -0.1623390
  C        2.7114570    -0.4276410     0.0208990
  C        1.8666300     1.8964630     0.4257140
  C       -3.1904980     0.5035560    -0.1598940
  C       -2.0503370    -1.5461500     0.5645390
  C        2.1210610    -1.6392390    -0.2794470
  H        3.7418240    -0.1353950     0.1686580
  H        1.1394670     2.2188990     1.1681400
  H        2.8785810     2.0278530     0.8121890
  H        1.7220340     2.4842350    -0.4794890
  H       -3.8467550    -0.1153850    -0.7799180
  H       -2.9915450     1.4520350    -0.6543500
  H       -3.6876690     0.6913720     0.7990550
  H       -1.0742680    -1.9474190     0.8155770
  H       -2.5092790    -2.1983750    -0.1864030
  H       -2.6938370    -1.5270200     1.4518100
  H        2.6051200    -2.5920870    -0.4498700
units angstrom
no_reorient  #important for SAPT in psi4, default
symmetry c1  #important for SAPT in psi4, default
}

set PROPERTIES_ORIGIN ["COM"]
properties('MP2/aug-cc-pvtz', properties = ['dipole'])
--------------------------------------------------------------------------

    Molecular point group: c1
  Charge       = 0
  Multiplicity = 1
  Basis Set: AUG-CC-PVTZ
    Blend: AUG-CC-PVTZ
  Basis Set: (AUG-CC-PVTZ AUX)
    Blend: AUG-CC-PVTZ-JKFIT

    Orbital Energies [Eh]
    ---------------------

    Doubly Occupied:

       1A    -20.519789     2A    -15.624077     3A    -15.592137
       4A    -15.554879     5A    -11.365508     6A    -11.304838
       7A    -11.272403     8A    -11.267225     9A    -11.256565
      10A    -11.252848    11A    -11.248354    12A     -1.380814
      13A     -1.353338    14A     -1.245605    15A     -1.207908
      16A     -1.025780    17A     -0.975504    18A     -0.967135
      19A     -0.937077    20A     -0.824781    21A     -0.808744
      22A     -0.743306    23A     -0.709692    24A     -0.661368
      25A     -0.653528    26A     -0.642685    27A     -0.640519
      28A     -0.608005    29A     -0.596087    30A     -0.570395
      31A     -0.562859    32A     -0.558953    33A     -0.554730
      34A     -0.552917    35A     -0.528634    36A     -0.522980
      37A     -0.463675    38A     -0.420327    39A     -0.400363
      40A     -0.373265    41A     -0.322052

  @DF-RHF Final Energy:  -509.85425878741364

   => Energetics <=

    Nuclear Repulsion Energy =            629.2000907569120045
    One-Electron Energy =               -1941.9653983036505451
    Two-Electron Energy =                 802.9110487593248990
    Total Energy =                       -509.8542587874136416
  Basis Set: (AUG-CC-PVTZ AUX)
    Blend: AUG-CC-PVTZ-RI
    Molecular point group: c1

    Geometry (in Angstrom), charge = 0, multiplicity = 1:

       Center              X                  Y                   Z               Mass
    ------------   -----------------  -----------------  -----------------  -----------------
         O           -0.801837201001     1.729511046467    -0.417346918501    15.994914619570
         N            1.651549798999     0.483366046467     0.157003081499    14.003074004430
         N           -1.963935201001    -0.182961953533     0.063538081499    14.003074004430
         N            0.729178798999    -1.500244953533    -0.329630918501    14.003074004430
         C            0.536436098999    -0.286734653533    -0.075361418501    12.000000000000
         C           -0.810369201001     0.513401046467    -0.144195918501    12.000000000000
         C            2.676704798999    -0.419021953533     0.039042081499    12.000000000000
         C            1.831877798999     1.905082046467     0.443857081499    12.000000000000
         C           -3.225250201001     0.512175046467    -0.141750918501    12.000000000000
         C           -2.085089201001    -1.537530953533     0.582682081499    12.000000000000
         C            2.086308798999    -1.630619953533    -0.261303918501    12.000000000000
         H            3.707071798999    -0.126775953533     0.186801081499     1.007825032230
         H            1.104714798999     2.227518046467     1.186283081499     1.007825032230
         H            2.843828798999     2.036472046467     0.830332081499     1.007825032230
         H            1.687281798999     2.492854046467    -0.461345918501     1.007825032230
         H           -3.881507201001    -0.106765953533    -0.761774918501     1.007825032230
         H           -3.026297201001     1.460654046467    -0.636206918501     1.007825032230
         H           -3.722421201001     0.699991046467     0.817198081499     1.007825032230
         H           -1.109020201001    -1.938799953533     0.833720081499     1.007825032230
         H           -2.544031201001    -2.189755953533    -0.168259918501     1.007825032230
         H           -2.728589201001    -1.518400953533     1.469953081499     1.007825032230
         H            2.570367798999    -2.583467953533    -0.431726918501     1.007825032230

  Basis Set: AUG-CC-PVTZ
    Blend: AUG-CC-PVTZ
  Basis Set: (AUG-CC-PVTZ AUX)
    Blend: AUG-CC-PVTZ-JKFIT
	 Reference Energy          =    -509.8542587874136416 [Eh]
	 Singles Energy            =      -0.0000000000000000 [Eh]
	 Same-Spin Energy          =      -0.5414356460193989 [Eh]
	 Opposite-Spin Energy      =      -1.6917777414552329 [Eh]
	 Correlation Energy        =      -2.2332133874746316 [Eh]
	 Total Energy              =    -512.0874721748882621 [Eh]

	 ================> DF-SCS-MP2 Energies <==================
	-----------------------------------------------------------
	 SCS Same-Spin Scale       =       0.3333333333333333 [-]
	 SCS Opposite-Spin Scale   =       1.2000000000000000 [-]
	 SCS Same-Spin Energy      =      -0.1804785486731330 [Eh]
	 SCS Opposite-Spin Energy  =      -2.0301332897462792 [Eh]
	 SCS Correlation Energy    =      -2.2106118384194122 [Eh]
	 SCS Total Energy          =    -512.0648706258330094 [Eh]
	-----------------------------------------------------------

  Dipole Moment: [D]
     X:     0.5118      Y:    -0.0187      Z:     1.6890     Total:     1.7650

*** Psi4 exiting successfully. Buy a developer a beer!
