                               Psi4 1.3.2 release

  ==> Input File <==

--------------------------------------------------------------------------
#psi4
#
memory 32 gb

molecule  {
0 1
  O       -0.7670850     1.7208920    -0.4354900
  N        1.6609617     0.5154811     0.1402453
  N       -1.9291830    -0.1915810     0.0453950
  N        0.7639310    -1.5088640    -0.3477740
  C        0.5182450    -0.2160980    -0.0822800
  C       -0.7756170     0.5047820    -0.1623390
  C        2.7114570    -0.4276410     0.0208990
  C        1.8666300     1.8964630     0.4257140
  C       -3.1904980     0.5035560    -0.1598940
  C       -2.0503370    -1.5461500     0.5645390
  C        2.1210610    -1.6392390    -0.2794470
  H        3.7418240    -0.1353950     0.1686580
  H        1.1394670     2.2188990     1.1681400
  H        2.8785810     2.0278530     0.8121890
  H        1.7220340     2.4842350    -0.4794890
  H       -3.8467550    -0.1153850    -0.7799180
  H       -2.9915450     1.4520350    -0.6543500
  H       -3.6876690     0.6913720     0.7990550
  H       -1.0742680    -1.9474190     0.8155770
  H       -2.5092790    -2.1983750    -0.1864030
  H       -2.6938370    -1.5270200     1.4518100
  H        2.6051200    -2.5920870    -0.4498700
units angstrom
no_reorient  #important for SAPT in psi4, default
symmetry c1  #important for SAPT in psi4, default
}

set PROPERTIES_ORIGIN ["COM"]
properties('MP2/aug-cc-pvtz', properties = ['dipole'])
--------------------------------------------------------------------------

    Molecular point group: c1
  Charge       = 0
  Multiplicity = 1
  Basis Set: AUG-CC-PVTZ
    Blend: AUG-CC-PVTZ
  Basis Set: (AUG-CC-PVTZ AUX)
    Blend: AUG-CC-PVTZ-JKFIT

    Orbital Energies [Eh]
    ---------------------

    Doubly Occupied:

       1A    -20.518572     2A    -15.632975     3A    -15.592500
       4A    -15.562100     5A    -11.362805     6A    -11.310315
       7A    -11.271818     8A    -11.267939     9A    -11.255807
      10A    -11.255380    11A    -11.253066    12A     -1.380807
      13A     -1.336294    14A     -1.246080    15A     -1.193296
      16A     -1.029258    17A     -0.978829    18A     -0.967116
      19A     -0.939430    20A     -0.831179    21A     -0.809805
      22A     -0.741835    23A     -0.709051    24A     -0.662146
      25A     -0.655622    26A     -0.643146    27A     -0.640239
      28A     -0.607630    29A     -0.603792    30A     -0.574243
      31A     -0.557790    32A     -0.555398    33A     -0.554025
      34A     -0.551707    35A     -0.527253    36A     -0.521507
      37A     -0.452128    38A     -0.429185    39A     -0.388036
      40A     -0.373490    41A     -0.323228

  @DF-RHF Final Energy:  -509.85615325132562

   => Energetics <=

    Nuclear Repulsion Energy =            628.8662234665016513
    One-Electron Energy =               -1941.3111070754789580
    Two-Electron Energy =                 802.5887303576516842
    Total Energy =                       -509.8561532513256225
  Basis Set: (AUG-CC-PVTZ AUX)
    Blend: AUG-CC-PVTZ-RI
    Molecular point group: c1

    Geometry (in Angstrom), charge = 0, multiplicity = 1:

       Center              X                  Y                   Z               Mass
    ------------   -----------------  -----------------  -----------------  -----------------
         O           -0.795369369496     1.719572651340    -0.418353465272    15.994914619570
         N            1.632677330504     0.514161751340     0.157381834728    14.003074004430
         N           -1.957467369496    -0.192900348660     0.062531534728    14.003074004430
         N            0.735646630504    -1.510183348660    -0.330637465272    14.003074004430
         C            0.489960630504    -0.217417348660    -0.065143465272    12.000000000000
         C           -0.803901369496     0.503462651340    -0.145202465272    12.000000000000
         C            2.683172630504    -0.428960348660     0.038035534728    12.000000000000
         C            1.838345630504     1.895143651340     0.442850534728    12.000000000000
         C           -3.218782369496     0.502236651340    -0.142757465272    12.000000000000
         C           -2.078621369496    -1.547469348660     0.581675534728    12.000000000000
         C            2.092776630504    -1.640558348660    -0.262310465272    12.000000000000
         H            3.713539630504    -0.136714348660     0.185794534728     1.007825032230
         H            1.111182630504     2.217579651340     1.185276534728     1.007825032230
         H            2.850296630504     2.026533651340     0.829325534728     1.007825032230
         H            1.693749630504     2.482915651340    -0.462352465272     1.007825032230
         H           -3.875039369496    -0.116704348660    -0.762781465272     1.007825032230
         H           -3.019829369496     1.450715651340    -0.637213465272     1.007825032230
         H           -3.715953369496     0.690052651340     0.816191534728     1.007825032230
         H           -1.102552369496    -1.948738348660     0.832713534728     1.007825032230
         H           -2.537563369496    -2.199694348660    -0.169266465272     1.007825032230
         H           -2.722121369496    -1.528339348660     1.468946534728     1.007825032230
         H            2.576835630504    -2.593406348660    -0.432733465272     1.007825032230

  Basis Set: AUG-CC-PVTZ
    Blend: AUG-CC-PVTZ
  Basis Set: (AUG-CC-PVTZ AUX)
    Blend: AUG-CC-PVTZ-JKFIT
	 Reference Energy          =    -509.8561532513256225 [Eh]
	 Singles Energy            =      -0.0000000000000000 [Eh]
	 Same-Spin Energy          =      -0.5441084105218822 [Eh]
	 Opposite-Spin Energy      =      -1.6964137082845956 [Eh]
	 Correlation Energy        =      -2.2405221188064779 [Eh]
	 Total Energy              =    -512.0966753701320613 [Eh]

	 ================> DF-SCS-MP2 Energies <==================
	-----------------------------------------------------------
	 SCS Same-Spin Scale       =       0.3333333333333333 [-]
	 SCS Opposite-Spin Scale   =       1.2000000000000000 [-]
	 SCS Same-Spin Energy      =      -0.1813694701739607 [Eh]
	 SCS Opposite-Spin Energy  =      -2.0356964499415144 [Eh]
	 SCS Correlation Energy    =      -2.2170659201154752 [Eh]
	 SCS Total Energy          =    -512.0732191714411101 [Eh]
	-----------------------------------------------------------

  Dipole Moment: [D]
     X:     0.7222      Y:    -0.1177      Z:     1.6961     Total:     1.8472

*** Psi4 exiting successfully. Buy a developer a beer!
