                               Psi4 1.3.2 release

  ==> Input File <==

--------------------------------------------------------------------------
#psi4
#
memory 32 gb

molecule  {
0 1
  O       -0.7887981     1.7211444    -0.4341782
  N        1.6863020     0.4747470     0.1388600
  N       -1.9291830    -0.1915810     0.0453950
  N        0.7639310    -1.5088640    -0.3477740
  C        0.5182450    -0.2160980    -0.0822800
  C       -0.7756170     0.5047820    -0.1623390
  C        2.7114570    -0.4276410     0.0208990
  C        1.8666300     1.8964630     0.4257140
  C       -3.1904980     0.5035560    -0.1598940
  C       -2.0503370    -1.5461500     0.5645390
  C        2.1210610    -1.6392390    -0.2794470
  H        3.7418240    -0.1353950     0.1686580
  H        1.1394670     2.2188990     1.1681400
  H        2.8785810     2.0278530     0.8121890
  H        1.7220340     2.4842350    -0.4794890
  H       -3.8467550    -0.1153850    -0.7799180
  H       -2.9915450     1.4520350    -0.6543500
  H       -3.6876690     0.6913720     0.7990550
  H       -1.0742680    -1.9474190     0.8155770
  H       -2.5092790    -2.1983750    -0.1864030
  H       -2.6938370    -1.5270200     1.4518100
  H        2.6051200    -2.5920870    -0.4498700
units angstrom
no_reorient  #important for SAPT in psi4, default
symmetry c1  #important for SAPT in psi4, default
}

set PROPERTIES_ORIGIN ["COM"]
properties('MP2/aug-cc-pvtz', properties = ['dipole'])
--------------------------------------------------------------------------

    Molecular point group: c1
  Charge       = 0
  Multiplicity = 1
  Basis Set: AUG-CC-PVTZ
    Blend: AUG-CC-PVTZ
  Basis Set: (AUG-CC-PVTZ AUX)
    Blend: AUG-CC-PVTZ-JKFIT

    Orbital Energies [Eh]
    ---------------------

    Doubly Occupied:

       1A    -20.517163     2A    -15.634524     3A    -15.591008
       4A    -15.562370     5A    -11.362811     6A    -11.306294
       7A    -11.272731     8A    -11.270014     9A    -11.254708
      10A    -11.252038    11A    -11.251843    12A     -1.380453
      13A     -1.342849    14A     -1.244103    15A     -1.189436
      16A     -1.032737    17A     -0.977095    18A     -0.965959
      19A     -0.938464    20A     -0.832387    21A     -0.811321
      22A     -0.742079    23A     -0.709550    24A     -0.662742
      25A     -0.655149    26A     -0.645815    27A     -0.640064
      28A     -0.606019    29A     -0.593037    30A     -0.574253
      31A     -0.564253    32A     -0.556892    33A     -0.554709
      34A     -0.552556    35A     -0.526530    36A     -0.522758
      37A     -0.451126    38A     -0.428824    39A     -0.392068
      40A     -0.372227    41A     -0.321305

  @DF-RHF Final Energy:  -509.86030315283523

   => Energetics <=

    Nuclear Repulsion Energy =            628.8757429013188585
    One-Electron Energy =               -1941.3475618733637020
    Two-Electron Energy =                 802.6115158192094441
    Total Energy =                       -509.8603031528352858
  Basis Set: (AUG-CC-PVTZ AUX)
    Blend: AUG-CC-PVTZ-RI
    Molecular point group: c1

    Geometry (in Angstrom), charge = 0, multiplicity = 1:

       Center              X                  Y                   Z               Mass
    ------------   -----------------  -----------------  -----------------  -----------------
         O           -0.817131740547     1.723524605303    -0.417052009960    15.994914619570
         N            1.657968359453     0.477127205303     0.155986190040    14.003074004430
         N           -1.957516640547    -0.189200794697     0.062521190040    14.003074004430
         N            0.735597359453    -1.506483794697    -0.330647809960    14.003074004430
         C            0.489911359453    -0.213717794697    -0.065153809960    12.000000000000
         C           -0.803950640547     0.507162205303    -0.145212809960    12.000000000000
         C            2.683123359453    -0.425260794697     0.038025190040    12.000000000000
         C            1.838296359453     1.898843205303     0.442840190040    12.000000000000
         C           -3.218831640547     0.505936205303    -0.142767809960    12.000000000000
         C           -2.078670640547    -1.543769794697     0.581665190040    12.000000000000
         C            2.092727359453    -1.636858794697    -0.262320809960    12.000000000000
         H            3.713490359453    -0.133014794697     0.185784190040     1.007825032230
         H            1.111133359453     2.221279205303     1.185266190040     1.007825032230
         H            2.850247359453     2.030233205303     0.829315190040     1.007825032230
         H            1.693700359453     2.486615205303    -0.462362809960     1.007825032230
         H           -3.875088640547    -0.113004794697    -0.762791809960     1.007825032230
         H           -3.019878640547     1.454415205303    -0.637223809960     1.007825032230
         H           -3.716002640547     0.693752205303     0.816181190040     1.007825032230
         H           -1.102601640547    -1.945038794697     0.832703190040     1.007825032230
         H           -2.537612640547    -2.195994794697    -0.169276809960     1.007825032230
         H           -2.722170640547    -1.524639794697     1.468936190040     1.007825032230
         H            2.576786359453    -2.589706794697    -0.432743809960     1.007825032230

  Basis Set: AUG-CC-PVTZ
    Blend: AUG-CC-PVTZ
  Basis Set: (AUG-CC-PVTZ AUX)
    Blend: AUG-CC-PVTZ-JKFIT
	 Reference Energy          =    -509.8603031528352290 [Eh]
	 Singles Energy            =      -0.0000000000000000 [Eh]
	 Same-Spin Energy          =      -0.5439748179464966 [Eh]
	 Opposite-Spin Energy      =      -1.6955063169636788 [Eh]
	 Correlation Energy        =      -2.2394811349101755 [Eh]
	 Total Energy              =    -512.0997842877453650 [Eh]

	 ================> DF-SCS-MP2 Energies <==================
	-----------------------------------------------------------
	 SCS Same-Spin Scale       =       0.3333333333333333 [-]
	 SCS Opposite-Spin Scale   =       1.2000000000000000 [-]
	 SCS Same-Spin Energy      =      -0.1813249393154989 [Eh]
	 SCS Opposite-Spin Energy  =      -2.0346075803564143 [Eh]
	 SCS Correlation Energy    =      -2.2159325196719131 [Eh]
	 SCS Total Energy          =    -512.0762356725070958 [Eh]
	-----------------------------------------------------------

  Dipole Moment: [D]
     X:     0.8314      Y:    -0.0055      Z:     1.7151     Total:     1.9060

*** Psi4 exiting successfully. Buy a developer a beer!
