                               Psi4 1.3.2 release

  ==> Input File <==

--------------------------------------------------------------------------
#psi4
#
memory 32 gb

molecule  {
0 1
  O       -0.7670850     1.7208920    -0.4354900
  N        1.6863020     0.4747470     0.1388600
  N       -1.9291830    -0.1915810     0.0453950
  N        0.7639310    -1.5088640    -0.3477740
  C        0.5182450    -0.2160980    -0.0822800
  C       -0.7756170     0.5047820    -0.1623390
  C        2.6366732    -0.3618129     0.0295041
  C        1.8666300     1.8964630     0.4257140
  C       -3.1904980     0.5035560    -0.1598940
  C       -2.0503370    -1.5461500     0.5645390
  C        2.1210610    -1.6392390    -0.2794470
  H        3.7418240    -0.1353950     0.1686580
  H        1.1394670     2.2188990     1.1681400
  H        2.8785810     2.0278530     0.8121890
  H        1.7220340     2.4842350    -0.4794890
  H       -3.8467550    -0.1153850    -0.7799180
  H       -2.9915450     1.4520350    -0.6543500
  H       -3.6876690     0.6913720     0.7990550
  H       -1.0742680    -1.9474190     0.8155770
  H       -2.5092790    -2.1983750    -0.1864030
  H       -2.6938370    -1.5270200     1.4518100
  H        2.6051200    -2.5920870    -0.4498700
units angstrom
no_reorient  #important for SAPT in psi4, default
symmetry c1  #important for SAPT in psi4, default
}

set PROPERTIES_ORIGIN ["COM"]
properties('MP2/aug-cc-pvtz', properties = ['dipole'])
--------------------------------------------------------------------------

    Molecular point group: c1
  Charge       = 0
  Multiplicity = 1
  Basis Set: AUG-CC-PVTZ
    Blend: AUG-CC-PVTZ
  Basis Set: (AUG-CC-PVTZ AUX)
    Blend: AUG-CC-PVTZ-JKFIT

    Orbital Energies [Eh]
    ---------------------

    Doubly Occupied:

       1A    -20.513552     2A    -15.639498     3A    -15.588596
       4A    -15.565411     5A    -11.359404     6A    -11.295878
       7A    -11.277285     8A    -11.272721     9A    -11.253531
      10A    -11.250741    11A    -11.248720    12A     -1.386622
      13A     -1.358970    14A     -1.242913    15A     -1.199965
      16A     -1.031181    17A     -0.984675    18A     -0.964439
      19A     -0.935585    20A     -0.835478    21A     -0.808382
      22A     -0.748131    23A     -0.708825    24A     -0.668990
      25A     -0.658224    26A     -0.645770    27A     -0.644474
      28A     -0.607527    29A     -0.581480    30A     -0.572787
      31A     -0.570592    32A     -0.558966    33A     -0.553151
      34A     -0.551261    35A     -0.526162    36A     -0.522825
      37A     -0.448397    38A     -0.426366    39A     -0.403490
      40A     -0.371008    41A     -0.309226

  @DF-RHF Final Energy:  -509.84882787777769

   => Energetics <=

    Nuclear Repulsion Energy =            631.0822433434331060
    One-Electron Energy =               -1945.6797433499773433
    Two-Electron Energy =                 804.7486721287664295
    Total Energy =                       -509.8488278777776941
  Basis Set: (AUG-CC-PVTZ AUX)
    Blend: AUG-CC-PVTZ-RI
    Molecular point group: c1

    Geometry (in Angstrom), charge = 0, multiplicity = 1:

       Center              X                  Y                   Z               Mass
    ------------   -----------------  -----------------  -----------------  -----------------
         O           -0.791825292466     1.718138630312    -0.418901264772    15.994914619570
         N            1.661561707534     0.471993630312     0.155448735228    14.003074004430
         N           -1.953923292466    -0.194334369688     0.061983735228    14.003074004430
         N            0.739190707534    -1.511617369688    -0.331185264772    14.003074004430
         C            0.493504707534    -0.218851369688    -0.065691264772    12.000000000000
         C           -0.800357292466     0.502028630312    -0.145750264772    12.000000000000
         C            2.611932907534    -0.364566269688     0.046092835228    12.000000000000
         C            1.841889707534     1.893709630312     0.442302735228    12.000000000000
         C           -3.215238292466     0.500802630312    -0.143305264772    12.000000000000
         C           -2.075077292466    -1.548903369688     0.581127735228    12.000000000000
         C            2.096320707534    -1.641992369688    -0.262858264772    12.000000000000
         H            3.717083707534    -0.138148369688     0.185246735228     1.007825032230
         H            1.114726707534     2.216145630312     1.184728735228     1.007825032230
         H            2.853840707534     2.025099630312     0.828777735228     1.007825032230
         H            1.697293707534     2.481481630312    -0.462900264772     1.007825032230
         H           -3.871495292466    -0.118138369688    -0.763329264772     1.007825032230
         H           -3.016285292466     1.449281630312    -0.637761264772     1.007825032230
         H           -3.712409292466     0.688618630312     0.815643735228     1.007825032230
         H           -1.099008292466    -1.950172369688     0.832165735228     1.007825032230
         H           -2.534019292466    -2.201128369688    -0.169814264772     1.007825032230
         H           -2.718577292466    -1.529773369688     1.468398735228     1.007825032230
         H            2.580379707534    -2.594840369688    -0.433281264772     1.007825032230

  Basis Set: AUG-CC-PVTZ
    Blend: AUG-CC-PVTZ
  Basis Set: (AUG-CC-PVTZ AUX)
    Blend: AUG-CC-PVTZ-JKFIT
	 Reference Energy          =    -509.8488278777776941 [Eh]
	 Singles Energy            =      -0.0000000000000000 [Eh]
	 Same-Spin Energy          =      -0.5444770989072357 [Eh]
	 Opposite-Spin Energy      =      -1.6946701038717962 [Eh]
	 Correlation Energy        =      -2.2391472027790318 [Eh]
	 Total Energy              =    -512.0879750805567028 [Eh]

	 ================> DF-SCS-MP2 Energies <==================
	-----------------------------------------------------------
	 SCS Same-Spin Scale       =       0.3333333333333333 [-]
	 SCS Opposite-Spin Scale   =       1.2000000000000000 [-]
	 SCS Same-Spin Energy      =      -0.1814923663024119 [Eh]
	 SCS Opposite-Spin Energy  =      -2.0336041246461551 [Eh]
	 SCS Correlation Energy    =      -2.2150964909485671 [Eh]
	 SCS Total Energy          =    -512.0639243687262478 [Eh]
	-----------------------------------------------------------

  Dipole Moment: [D]
     X:     0.8634      Y:     0.1030      Z:     1.7437     Total:     1.9485

*** Psi4 exiting successfully. Buy a developer a beer!
