                               Psi4 1.3.2 release

  ==> Input File <==

--------------------------------------------------------------------------
#psi4
#
memory 32 gb

molecule  {
0 1
  O       -0.7670850     1.7208920    -0.4354900
  N        1.6604368     0.5145526     0.1459185
  N       -1.9291830    -0.1915810     0.0453950
  N        0.7639310    -1.5088640    -0.3477740
  C        0.5182450    -0.2160980    -0.0822800
  C       -0.7756170     0.5047820    -0.1623390
  C        2.7114570    -0.4276410     0.0208990
  C        1.8666300     1.8964630     0.4257140
  C       -3.1904980     0.5035560    -0.1598940
  C       -2.0503370    -1.5461500     0.5645390
  C        2.1210610    -1.6392390    -0.2794470
  H        3.7418240    -0.1353950     0.1686580
  H        1.1394670     2.2188990     1.1681400
  H        2.8785810     2.0278530     0.8121890
  H        1.7220340     2.4842350    -0.4794890
  H       -3.8467550    -0.1153850    -0.7799180
  H       -2.9915450     1.4520350    -0.6543500
  H       -3.6876690     0.6913720     0.7990550
  H       -1.0742680    -1.9474190     0.8155770
  H       -2.5092790    -2.1983750    -0.1864030
  H       -2.6938370    -1.5270200     1.4518100
  H        2.6051200    -2.5920870    -0.4498700
units angstrom
no_reorient  #important for SAPT in psi4, default
symmetry c1  #important for SAPT in psi4, default
}

set PROPERTIES_ORIGIN ["COM"]
properties('MP2/aug-cc-pvtz', properties = ['dipole'])
--------------------------------------------------------------------------

    Molecular point group: c1
  Charge       = 0
  Multiplicity = 1
  Basis Set: AUG-CC-PVTZ
    Blend: AUG-CC-PVTZ
  Basis Set: (AUG-CC-PVTZ AUX)
    Blend: AUG-CC-PVTZ-JKFIT

    Orbital Energies [Eh]
    ---------------------

    Doubly Occupied:

       1A    -20.518621     2A    -15.632957     3A    -15.592527
       4A    -15.562096     5A    -11.362836     6A    -11.310382
       7A    -11.271808     8A    -11.267916     9A    -11.255819
      10A    -11.255405    11A    -11.253082    12A     -1.380829
      13A     -1.336272    14A     -1.246102    15A     -1.193322
      16A     -1.029248    17A     -0.978832    18A     -0.967130
      19A     -0.939442    20A     -0.831187    21A     -0.809814
      22A     -0.741841    23A     -0.709049    24A     -0.662239
      25A     -0.655576    26A     -0.643160    27A     -0.640161
      28A     -0.607662    29A     -0.603885    30A     -0.574286
      31A     -0.557790    32A     -0.555449    33A     -0.554031
      34A     -0.551508    35A     -0.527258    36A     -0.521551
      37A     -0.452163    38A     -0.429182    39A     -0.388065
      40A     -0.373508    41A     -0.323242

  @DF-RHF Final Energy:  -509.85613724772895

   => Energetics <=

    Nuclear Repulsion Energy =            628.8618927659045994
    One-Electron Energy =               -1941.3015893580131888
    Two-Electron Energy =                 802.5835593443797507
    Total Energy =                       -509.8561372477289524
  Basis Set: (AUG-CC-PVTZ AUX)
    Blend: AUG-CC-PVTZ-RI
    Molecular point group: c1

    Geometry (in Angstrom), charge = 0, multiplicity = 1:

       Center              X                  Y                   Z               Mass
    ------------   -----------------  -----------------  -----------------  -----------------
         O           -0.795321357194     1.719657580703    -0.418872389626    15.994914619570
         N            1.632200442806     0.513318180703     0.162536110374    14.003074004430
         N           -1.957419357194    -0.192815419297     0.062012610374    14.003074004430
         N            0.735694642806    -1.510098419297    -0.331156389626    14.003074004430
         C            0.490008642806    -0.217332419297    -0.065662389626    12.000000000000
         C           -0.803853357194     0.503547580703    -0.145721389626    12.000000000000
         C            2.683220642806    -0.428875419297     0.037516610374    12.000000000000
         C            1.838393642806     1.895228580703     0.442331610374    12.000000000000
         C           -3.218734357194     0.502321580703    -0.143276389626    12.000000000000
         C           -2.078573357194    -1.547384419297     0.581156610374    12.000000000000
         C            2.092824642806    -1.640473419297    -0.262829389626    12.000000000000
         H            3.713587642806    -0.136629419297     0.185275610374     1.007825032230
         H            1.111230642806     2.217664580703     1.184757610374     1.007825032230
         H            2.850344642806     2.026618580703     0.828806610374     1.007825032230
         H            1.693797642806     2.483000580703    -0.462871389626     1.007825032230
         H           -3.874991357194    -0.116619419297    -0.763300389626     1.007825032230
         H           -3.019781357194     1.450800580703    -0.637732389626     1.007825032230
         H           -3.715905357194     0.690137580703     0.815672610374     1.007825032230
         H           -1.102504357194    -1.948653419297     0.832194610374     1.007825032230
         H           -2.537515357194    -2.199609419297    -0.169785389626     1.007825032230
         H           -2.722073357194    -1.528254419297     1.468427610374     1.007825032230
         H            2.576883642806    -2.593321419297    -0.433252389626     1.007825032230

  Basis Set: AUG-CC-PVTZ
    Blend: AUG-CC-PVTZ
  Basis Set: (AUG-CC-PVTZ AUX)
    Blend: AUG-CC-PVTZ-JKFIT
	 Reference Energy          =    -509.8561372477289524 [Eh]
	 Singles Energy            =      -0.0000000000000000 [Eh]
	 Same-Spin Energy          =      -0.5441016581729805 [Eh]
	 Opposite-Spin Energy      =      -1.6964096321928661 [Eh]
	 Correlation Energy        =      -2.2405112903658466 [Eh]
	 Total Energy              =    -512.0966485380947688 [Eh]

	 ================> DF-SCS-MP2 Energies <==================
	-----------------------------------------------------------
	 SCS Same-Spin Scale       =       0.3333333333333333 [-]
	 SCS Opposite-Spin Scale   =       1.2000000000000000 [-]
	 SCS Same-Spin Energy      =      -0.1813672193909935 [Eh]
	 SCS Opposite-Spin Energy  =      -2.0356915586314392 [Eh]
	 SCS Correlation Energy    =      -2.2170587780224329 [Eh]
	 SCS Total Energy          =    -512.0731960257513720 [Eh]
	-----------------------------------------------------------

  Dipole Moment: [D]
     X:     0.7202      Y:    -0.1180      Z:     1.6928     Total:     1.8434

*** Psi4 exiting successfully. Buy a developer a beer!
