                               Psi4 1.3.2 release

  ==> Input File <==

--------------------------------------------------------------------------
#psi4
#
memory 32 gb

molecule  {
0 1
  O       -0.7670850     1.7208920    -0.4354900
  N        1.6863020     0.4747470     0.1388600
  N       -1.9291830    -0.1915810     0.0453950
  N        0.6729740    -1.5185863    -0.3680695
  C        0.5182450    -0.2160980    -0.0822800
  C       -0.7756170     0.5047820    -0.1623390
  C        2.7114570    -0.4276410     0.0208990
  C        1.8666300     1.8964630     0.4257140
  C       -3.1904980     0.5035560    -0.1598940
  C       -2.0503370    -1.5461500     0.5645390
  C        2.1210610    -1.6392390    -0.2794470
  H        3.7418240    -0.1353950     0.1686580
  H        1.1394670     2.2188990     1.1681400
  H        2.8785810     2.0278530     0.8121890
  H        1.7220340     2.4842350    -0.4794890
  H       -3.8467550    -0.1153850    -0.7799180
  H       -2.9915450     1.4520350    -0.6543500
  H       -3.6876690     0.6913720     0.7990550
  H       -1.0742680    -1.9474190     0.8155770
  H       -2.5092790    -2.1983750    -0.1864030
  H       -2.6938370    -1.5270200     1.4518100
  H        2.6051200    -2.5920870    -0.4498700
units angstrom
no_reorient  #important for SAPT in psi4, default
symmetry c1  #important for SAPT in psi4, default
}

set PROPERTIES_ORIGIN ["COM"]
properties('MP2/aug-cc-pvtz', properties = ['dipole'])
--------------------------------------------------------------------------

    Molecular point group: c1
  Charge       = 0
  Multiplicity = 1
  Basis Set: AUG-CC-PVTZ
    Blend: AUG-CC-PVTZ
  Basis Set: (AUG-CC-PVTZ AUX)
    Blend: AUG-CC-PVTZ-JKFIT

    Orbital Energies [Eh]
    ---------------------

    Doubly Occupied:

       1A    -20.517872     2A    -15.631465     3A    -15.591909
       4A    -15.572095     5A    -11.361598     6A    -11.311133
       7A    -11.274040     8A    -11.272888     9A    -11.259159
      10A    -11.253667    11A    -11.252637    12A     -1.379974
      13A     -1.335351    14A     -1.245404    15A     -1.178593
      16A     -1.033286    17A     -0.973888    18A     -0.965878
      19A     -0.937736    20A     -0.833556    21A     -0.810343
      22A     -0.735482    23A     -0.709250    24A     -0.661453
      25A     -0.653462    26A     -0.645408    27A     -0.639651
      28A     -0.600886    29A     -0.591574    30A     -0.571069
      31A     -0.562061    32A     -0.553936    33A     -0.553188
      34A     -0.551132    35A     -0.527421    36A     -0.521309
      37A     -0.460445    38A     -0.428011    39A     -0.386062
      40A     -0.372390    41A     -0.325670

  @DF-RHF Final Energy:  -509.85022125376634

   => Energetics <=

    Nuclear Repulsion Energy =            628.0370994596601122
    One-Electron Energy =               -1939.6899746670374043
    Two-Electron Energy =                 801.8026539536109567
    Total Energy =                       -509.8502212537663354
  Basis Set: (AUG-CC-PVTZ AUX)
    Blend: AUG-CC-PVTZ-RI
    Molecular point group: c1

    Geometry (in Angstrom), charge = 0, multiplicity = 1:

       Center              X                  Y                   Z               Mass
    ------------   -----------------  -----------------  -----------------  -----------------
         O           -0.789367447531     1.724187869348    -0.416370334914    15.994914619570
         N            1.664019552469     0.478042869348     0.157979665086    14.003074004430
         N           -1.951465447531    -0.188285130652     0.064514665086    14.003074004430
         N            0.650691552469    -1.515290430652    -0.348949834914    14.003074004430
         C            0.495962552469    -0.212802130652    -0.063160334914    12.000000000000
         C           -0.797899447531     0.508077869348    -0.143219334914    12.000000000000
         C            2.689174552469    -0.424345130652     0.040018665086    12.000000000000
         C            1.844347552469     1.899758869348     0.444833665086    12.000000000000
         C           -3.212780447531     0.506851869348    -0.140774334914    12.000000000000
         C           -2.072619447531    -1.542854130652     0.583658665086    12.000000000000
         C            2.098778552469    -1.635943130652    -0.260327334914    12.000000000000
         H            3.719541552469    -0.132099130652     0.187777665086     1.007825032230
         H            1.117184552469     2.222194869348     1.187259665086     1.007825032230
         H            2.856298552469     2.031148869348     0.831308665086     1.007825032230
         H            1.699751552469     2.487530869348    -0.460369334914     1.007825032230
         H           -3.869037447531    -0.112089130652    -0.760798334914     1.007825032230
         H           -3.013827447531     1.455330869348    -0.635230334914     1.007825032230
         H           -3.709951447531     0.694667869348     0.818174665086     1.007825032230
         H           -1.096550447531    -1.944123130652     0.834696665086     1.007825032230
         H           -2.531561447531    -2.195079130652    -0.167283334914     1.007825032230
         H           -2.716119447531    -1.523724130652     1.470929665086     1.007825032230
         H            2.582837552469    -2.588791130652    -0.430750334914     1.007825032230

  Basis Set: AUG-CC-PVTZ
    Blend: AUG-CC-PVTZ
  Basis Set: (AUG-CC-PVTZ AUX)
    Blend: AUG-CC-PVTZ-JKFIT
	 Reference Energy          =    -509.8502212537663354 [Eh]
	 Singles Energy            =      -0.0000000000000000 [Eh]
	 Same-Spin Energy          =      -0.5438367177314143 [Eh]
	 Opposite-Spin Energy      =      -1.6977968063178135 [Eh]
	 Correlation Energy        =      -2.2416335240492278 [Eh]
	 Total Energy              =    -512.0918547778155698 [Eh]

	 ================> DF-SCS-MP2 Energies <==================
	-----------------------------------------------------------
	 SCS Same-Spin Scale       =       0.3333333333333333 [-]
	 SCS Opposite-Spin Scale   =       1.2000000000000000 [-]
	 SCS Same-Spin Energy      =      -0.1812789059104714 [Eh]
	 SCS Opposite-Spin Energy  =      -2.0373561675813763 [Eh]
	 SCS Correlation Energy    =      -2.2186350734918476 [Eh]
	 SCS Total Energy          =    -512.0688563272582314 [Eh]
	-----------------------------------------------------------

  Dipole Moment: [D]
     X:     0.8656      Y:     0.0644      Z:     1.7532     Total:     1.9563

*** Psi4 exiting successfully. Buy a developer a beer!
