                               Psi4 1.3.2 release

  ==> Input File <==

--------------------------------------------------------------------------
#psi4
#
memory 32 gb

molecule  {
0 1
  O       -0.7670850     1.7208920    -0.4354900
  N        1.6863020     0.4747470     0.1388600
  N       -1.9032451    -0.2308977     0.0521828
  N        0.7639310    -1.5088640    -0.3477740
  C        0.5182450    -0.2160980    -0.0822800
  C       -0.7756170     0.5047820    -0.1623390
  C        2.7114570    -0.4276410     0.0208990
  C        1.8666300     1.8964630     0.4257140
  C       -3.1904980     0.5035560    -0.1598940
  C       -2.0503370    -1.5461500     0.5645390
  C        2.1210610    -1.6392390    -0.2794470
  H        3.7418240    -0.1353950     0.1686580
  H        1.1394670     2.2188990     1.1681400
  H        2.8785810     2.0278530     0.8121890
  H        1.7220340     2.4842350    -0.4794890
  H       -3.8467550    -0.1153850    -0.7799180
  H       -2.9915450     1.4520350    -0.6543500
  H       -3.6876690     0.6913720     0.7990550
  H       -1.0742680    -1.9474190     0.8155770
  H       -2.5092790    -2.1983750    -0.1864030
  H       -2.6938370    -1.5270200     1.4518100
  H        2.6051200    -2.5920870    -0.4498700
units angstrom
no_reorient  #important for SAPT in psi4, default
symmetry c1  #important for SAPT in psi4, default
}

set PROPERTIES_ORIGIN ["COM"]
properties('MP2/aug-cc-pvtz', properties = ['dipole'])
--------------------------------------------------------------------------

    Molecular point group: c1
  Charge       = 0
  Multiplicity = 1
  Basis Set: AUG-CC-PVTZ
    Blend: AUG-CC-PVTZ
  Basis Set: (AUG-CC-PVTZ AUX)
    Blend: AUG-CC-PVTZ-JKFIT

    Orbital Energies [Eh]
    ---------------------

    Doubly Occupied:

       1A    -20.519797     2A    -15.632640     3A    -15.593286
       4A    -15.560643     5A    -11.364227     6A    -11.303563
       7A    -11.271728     8A    -11.268469     9A    -11.256574
      10A    -11.252882    11A    -11.250655    12A     -1.380524
      13A     -1.341189    14A     -1.248073    15A     -1.187889
      16A     -1.030783    17A     -0.976144    18A     -0.968115
      19A     -0.939324    20A     -0.830873    21A     -0.810121
      22A     -0.741699    23A     -0.709496    24A     -0.662952
      25A     -0.655807    26A     -0.645865    27A     -0.639706
      28A     -0.604825    29A     -0.591670    30A     -0.578660
      31A     -0.562463    32A     -0.555977    33A     -0.553729
      34A     -0.551358    35A     -0.528074    36A     -0.523240
      37A     -0.450535    38A     -0.428002    39A     -0.390720
      40A     -0.374678    41A     -0.319701

  @DF-RHF Final Energy:  -509.85724809686280

   => Energetics <=

    Nuclear Repulsion Energy =            629.1475709428344771
    One-Electron Energy =               -1941.8963215904577737
    Two-Electron Energy =                 802.8915025507603787
    Total Energy =                       -509.8572480968628042
  Basis Set: (AUG-CC-PVTZ AUX)
    Blend: AUG-CC-PVTZ-RI
    Molecular point group: c1

    Geometry (in Angstrom), charge = 0, multiplicity = 1:

       Center              X                  Y                   Z               Mass
    ------------   -----------------  -----------------  -----------------  -----------------
         O           -0.800059757079     1.726894852165    -0.418847628852    15.994914619570
         N            1.653327242921     0.480749852165     0.155502371148    14.003074004430
         N           -1.936219857079    -0.224894847835     0.068825171148    14.003074004430
         N            0.730956242921    -1.502861147835    -0.331131628852    14.003074004430
         C            0.485270242921    -0.210095147835    -0.065637628852    12.000000000000
         C           -0.808591757079     0.510784852165    -0.145696628852    12.000000000000
         C            2.678482242921    -0.421638147835     0.037541371148    12.000000000000
         C            1.833655242921     1.902465852165     0.442356371148    12.000000000000
         C           -3.223472757079     0.509558852165    -0.143251628852    12.000000000000
         C           -2.083311757079    -1.540147147835     0.581181371148    12.000000000000
         C            2.088086242921    -1.633236147835    -0.262804628852    12.000000000000
         H            3.708849242921    -0.129392147835     0.185300371148     1.007825032230
         H            1.106492242921     2.224901852165     1.184782371148     1.007825032230
         H            2.845606242921     2.033855852165     0.828831371148     1.007825032230
         H            1.689059242921     2.490237852165    -0.462846628852     1.007825032230
         H           -3.879729757079    -0.109382147835    -0.763275628852     1.007825032230
         H           -3.024519757079     1.458037852165    -0.637707628852     1.007825032230
         H           -3.720643757079     0.697374852165     0.815697371148     1.007825032230
         H           -1.107242757079    -1.941416147835     0.832219371148     1.007825032230
         H           -2.542253757079    -2.192372147835    -0.169760628852     1.007825032230
         H           -2.726811757079    -1.521017147835     1.468452371148     1.007825032230
         H            2.572145242921    -2.586084147835    -0.433227628852     1.007825032230

  Basis Set: AUG-CC-PVTZ
    Blend: AUG-CC-PVTZ
  Basis Set: (AUG-CC-PVTZ AUX)
    Blend: AUG-CC-PVTZ-JKFIT
	 Reference Energy          =    -509.8572480968628042 [Eh]
	 Singles Energy            =      -0.0000000000000000 [Eh]
	 Same-Spin Energy          =      -0.5441913003868586 [Eh]
	 Opposite-Spin Energy      =      -1.6960207307418709 [Eh]
	 Correlation Energy        =      -2.2402120311287295 [Eh]
	 Total Energy              =    -512.0974601279915532 [Eh]

	 ================> DF-SCS-MP2 Energies <==================
	-----------------------------------------------------------
	 SCS Same-Spin Scale       =       0.3333333333333333 [-]
	 SCS Opposite-Spin Scale   =       1.2000000000000000 [-]
	 SCS Same-Spin Energy      =      -0.1813971001289529 [Eh]
	 SCS Opposite-Spin Energy  =      -2.0352248768902448 [Eh]
	 SCS Correlation Energy    =      -2.2166219770191975 [Eh]
	 SCS Total Energy          =    -512.0738700738819489 [Eh]
	-----------------------------------------------------------

  Dipole Moment: [D]
     X:     0.6529      Y:     0.0824      Z:     1.7040     Total:     1.8266

*** Psi4 exiting successfully. Buy a developer a beer!
