                               Psi4 1.3.2 release

  ==> Input File <==

--------------------------------------------------------------------------
#psi4
#
memory 32 gb

molecule  {
0 1
  O       -0.7670850     1.7208920    -0.4354900
  N        1.6863020     0.4747470     0.1388600
  N       -1.9291830    -0.1915810     0.0453950
  N        0.7639310    -1.5088640    -0.3477740
  C        0.6031968    -0.1658534    -0.0661967
  C       -0.7756170     0.5047820    -0.1623390
  C        2.7114570    -0.4276410     0.0208990
  C        1.8666300     1.8964630     0.4257140
  C       -3.1904980     0.5035560    -0.1598940
  C       -2.0503370    -1.5461500     0.5645390
  C        2.1210610    -1.6392390    -0.2794470
  H        3.7418240    -0.1353950     0.1686580
  H        1.1394670     2.2188990     1.1681400
  H        2.8785810     2.0278530     0.8121890
  H        1.7220340     2.4842350    -0.4794890
  H       -3.8467550    -0.1153850    -0.7799180
  H       -2.9915450     1.4520350    -0.6543500
  H       -3.6876690     0.6913720     0.7990550
  H       -1.0742680    -1.9474190     0.8155770
  H       -2.5092790    -2.1983750    -0.1864030
  H       -2.6938370    -1.5270200     1.4518100
  H        2.6051200    -2.5920870    -0.4498700
units angstrom
no_reorient  #important for SAPT in psi4, default
symmetry c1  #important for SAPT in psi4, default
}

set PROPERTIES_ORIGIN ["COM"]
properties('MP2/aug-cc-pvtz', properties = ['dipole'])
--------------------------------------------------------------------------

    Molecular point group: c1
  Charge       = 0
  Multiplicity = 1
  Basis Set: AUG-CC-PVTZ
    Blend: AUG-CC-PVTZ
  Basis Set: (AUG-CC-PVTZ AUX)
    Blend: AUG-CC-PVTZ-JKFIT

    Orbital Energies [Eh]
    ---------------------

    Doubly Occupied:

       1A    -20.517074     2A    -15.639294     3A    -15.593446
       4A    -15.553853     5A    -11.365473     6A    -11.304322
       7A    -11.278107     8A    -11.260009     9A    -11.254041
      10A    -11.253572    11A    -11.252635    12A     -1.387705
      13A     -1.358706    14A     -1.244750    15A     -1.187483
      16A     -1.026741    17A     -0.986910    18A     -0.966670
      19A     -0.941172    20A     -0.826129    21A     -0.812820
      22A     -0.745094    23A     -0.711903    24A     -0.668387
      25A     -0.655059    26A     -0.645837    27A     -0.642718
      28A     -0.604122    29A     -0.599861    30A     -0.569396
      31A     -0.564947    32A     -0.557894    33A     -0.553822
      34A     -0.552450    35A     -0.527480    36A     -0.523817
      37A     -0.447834    38A     -0.426380    39A     -0.393219
      40A     -0.372936    41A     -0.319216

  @DF-RHF Final Energy:  -509.85078954401956

   => Energetics <=

    Nuclear Repulsion Energy =            629.4061403209468608
    One-Electron Energy =               -1942.3272938770846849
    Two-Electron Energy =                 803.0703640121182616
    Total Energy =                       -509.8507895440195625
  Basis Set: (AUG-CC-PVTZ AUX)
    Blend: AUG-CC-PVTZ-RI
    Molecular point group: c1

    Geometry (in Angstrom), charge = 0, multiplicity = 1:

       Center              X                  Y                   Z               Mass
    ------------   -----------------  -----------------  -----------------  -----------------
         O           -0.804346192236     1.719360145375    -0.419487444638    15.994914619570
         N            1.649040807764     0.473215145375     0.154862555362    14.003074004430
         N           -1.966444192236    -0.193112854625     0.061397555362    14.003074004430
         N            0.726669807764    -1.510395854625    -0.331771444638    14.003074004430
         C            0.565935607764    -0.167385254625    -0.050194144638    12.000000000000
         C           -0.812878192236     0.503250145375    -0.146336444638    12.000000000000
         C            2.674195807764    -0.429172854625     0.036901555362    12.000000000000
         C            1.829368807764     1.894931145375     0.441716555362    12.000000000000
         C           -3.227759192236     0.502024145375    -0.143891444638    12.000000000000
         C           -2.087598192236    -1.547681854625     0.580541555362    12.000000000000
         C            2.083799807764    -1.640770854625    -0.263444444638    12.000000000000
         H            3.704562807764    -0.136926854625     0.184660555362     1.007825032230
         H            1.102205807764     2.217367145375     1.184142555362     1.007825032230
         H            2.841319807764     2.026321145375     0.828191555362     1.007825032230
         H            1.684772807764     2.482703145375    -0.463486444638     1.007825032230
         H           -3.884016192236    -0.116916854625    -0.763915444638     1.007825032230
         H           -3.028806192236     1.450503145375    -0.638347444638     1.007825032230
         H           -3.724930192236     0.689840145375     0.815057555362     1.007825032230
         H           -1.111529192236    -1.948950854625     0.831579555362     1.007825032230
         H           -2.546540192236    -2.199906854625    -0.170400444638     1.007825032230
         H           -2.731098192236    -1.528551854625     1.467812555362     1.007825032230
         H            2.567858807764    -2.593618854625    -0.433867444638     1.007825032230

  Basis Set: AUG-CC-PVTZ
    Blend: AUG-CC-PVTZ
  Basis Set: (AUG-CC-PVTZ AUX)
    Blend: AUG-CC-PVTZ-JKFIT
	 Reference Energy          =    -509.8507895440195625 [Eh]
	 Singles Energy            =      -0.0000000000000000 [Eh]
	 Same-Spin Energy          =      -0.5429607341820524 [Eh]
	 Opposite-Spin Energy      =      -1.6938725797049088 [Eh]
	 Correlation Energy        =      -2.2368333138869612 [Eh]
	 Total Energy              =    -512.0876228579064673 [Eh]

	 ================> DF-SCS-MP2 Energies <==================
	-----------------------------------------------------------
	 SCS Same-Spin Scale       =       0.3333333333333333 [-]
	 SCS Opposite-Spin Scale   =       1.2000000000000000 [-]
	 SCS Same-Spin Energy      =      -0.1809869113940175 [Eh]
	 SCS Opposite-Spin Energy  =      -2.0326470956458906 [Eh]
	 SCS Correlation Energy    =      -2.2136340070399081 [Eh]
	 SCS Total Energy          =    -512.0644235510594626 [Eh]
	-----------------------------------------------------------

  Dipole Moment: [D]
     X:     0.7374      Y:     0.2112      Z:     1.7740     Total:     1.9327

*** Psi4 exiting successfully. Buy a developer a beer!
