                               Psi4 1.3.2 release

  ==> Input File <==

--------------------------------------------------------------------------
#psi4
#
memory 32 gb

molecule  {
0 1
  O       -0.7670850     1.7208920    -0.4354900
  N        1.7102192     0.4331712     0.1372053
  N       -1.9291830    -0.1915810     0.0453950
  N        0.7639310    -1.5088640    -0.3477740
  C        0.5182450    -0.2160980    -0.0822800
  C       -0.7756170     0.5047820    -0.1623390
  C        2.7114570    -0.4276410     0.0208990
  C        1.8666300     1.8964630     0.4257140
  C       -3.1904980     0.5035560    -0.1598940
  C       -2.0503370    -1.5461500     0.5645390
  C        2.1210610    -1.6392390    -0.2794470
  H        3.7418240    -0.1353950     0.1686580
  H        1.1394670     2.2188990     1.1681400
  H        2.8785810     2.0278530     0.8121890
  H        1.7220340     2.4842350    -0.4794890
  H       -3.8467550    -0.1153850    -0.7799180
  H       -2.9915450     1.4520350    -0.6543500
  H       -3.6876690     0.6913720     0.7990550
  H       -1.0742680    -1.9474190     0.8155770
  H       -2.5092790    -2.1983750    -0.1864030
  H       -2.6938370    -1.5270200     1.4518100
  H        2.6051200    -2.5920870    -0.4498700
units angstrom
no_reorient  #important for SAPT in psi4, default
symmetry c1  #important for SAPT in psi4, default
}

set PROPERTIES_ORIGIN ["COM"]
properties('MP2/aug-cc-pvtz', properties = ['dipole'])
--------------------------------------------------------------------------

    Molecular point group: c1
  Charge       = 0
  Multiplicity = 1
  Basis Set: AUG-CC-PVTZ
    Blend: AUG-CC-PVTZ
  Basis Set: (AUG-CC-PVTZ AUX)
    Blend: AUG-CC-PVTZ-JKFIT

    Orbital Energies [Eh]
    ---------------------

    Doubly Occupied:

       1A    -20.516689     2A    -15.634425     3A    -15.591584
       4A    -15.561002     5A    -11.363220     6A    -11.300600
       7A    -11.276275     8A    -11.266750     9A    -11.254838
      10A    -11.252546    11A    -11.247429    12A     -1.380832
      13A     -1.348824    14A     -1.244915    15A     -1.185423
      16A     -1.034893    17A     -0.974506    18A     -0.966092
      19A     -0.938209    20A     -0.832445    21A     -0.812299
      22A     -0.741729    23A     -0.710628    24A     -0.664354
      25A     -0.655814    26A     -0.648405    27A     -0.639947
      28A     -0.603756    29A     -0.580187    30A     -0.576509
      31A     -0.568603    32A     -0.557823    33A     -0.555737
      34A     -0.552795    35A     -0.527270    36A     -0.524104
      37A     -0.449222    38A     -0.428453    39A     -0.394914
      40A     -0.372781    41A     -0.317627

  @DF-RHF Final Energy:  -509.85821095849764

   => Energetics <=

    Nuclear Repulsion Energy =            629.1745030879330898
    One-Electron Energy =               -1941.9565221757438849
    Two-Electron Energy =                 802.9238081293131017
    Total Energy =                       -509.8582109584976934
  Basis Set: (AUG-CC-PVTZ AUX)
    Blend: AUG-CC-PVTZ-RI
    Molecular point group: c1

    Geometry (in Angstrom), charge = 0, multiplicity = 1:

       Center              X                  Y                   Z               Mass
    ------------   -----------------  -----------------  -----------------  -----------------
         O           -0.799874924808     1.727101490748    -0.418075398213    15.994914619570
         N            1.677429275192     0.439380690748     0.154619901787    14.003074004430
         N           -1.961972924808    -0.185371509252     0.062809601787    14.003074004430
         N            0.731141075192    -1.502654509252    -0.330359398213    14.003074004430
         C            0.485455075192    -0.209888509252    -0.064865398213    12.000000000000
         C           -0.808406924808     0.510991490748    -0.144924398213    12.000000000000
         C            2.678667075192    -0.421431509252     0.038313601787    12.000000000000
         C            1.833840075192     1.902672490748     0.443128601787    12.000000000000
         C           -3.223287924808     0.509765490748    -0.142479398213    12.000000000000
         C           -2.083126924808    -1.539940509252     0.581953601787    12.000000000000
         C            2.088271075192    -1.633029509252    -0.262032398213    12.000000000000
         H            3.709034075192    -0.129185509252     0.186072601787     1.007825032230
         H            1.106677075192     2.225108490748     1.185554601787     1.007825032230
         H            2.845791075192     2.034062490748     0.829603601787     1.007825032230
         H            1.689244075192     2.490444490748    -0.462074398213     1.007825032230
         H           -3.879544924808    -0.109175509252    -0.762503398213     1.007825032230
         H           -3.024334924808     1.458244490748    -0.636935398213     1.007825032230
         H           -3.720458924808     0.697581490748     0.816469601787     1.007825032230
         H           -1.107057924808    -1.941209509252     0.832991601787     1.007825032230
         H           -2.542068924808    -2.192165509252    -0.168988398213     1.007825032230
         H           -2.726626924808    -1.520810509252     1.469224601787     1.007825032230
         H            2.572330075192    -2.585877509252    -0.432455398213     1.007825032230

  Basis Set: AUG-CC-PVTZ
    Blend: AUG-CC-PVTZ
  Basis Set: (AUG-CC-PVTZ AUX)
    Blend: AUG-CC-PVTZ-JKFIT
	 Reference Energy          =    -509.8582109584976365 [Eh]
	 Singles Energy            =      -0.0000000000000000 [Eh]
	 Same-Spin Energy          =      -0.5439515254887247 [Eh]
	 Opposite-Spin Energy      =      -1.6949151196930465 [Eh]
	 Correlation Energy        =      -2.2388666451817714 [Eh]
	 Total Energy              =    -512.0970776036793950 [Eh]

	 ================> DF-SCS-MP2 Energies <==================
	-----------------------------------------------------------
	 SCS Same-Spin Scale       =       0.3333333333333333 [-]
	 SCS Opposite-Spin Scale   =       1.2000000000000000 [-]
	 SCS Same-Spin Energy      =      -0.1813171751629082 [Eh]
	 SCS Opposite-Spin Energy  =      -2.0338981436316557 [Eh]
	 SCS Correlation Energy    =      -2.2152153187945638 [Eh]
	 SCS Total Energy          =    -512.0734262772922420 [Eh]
	-----------------------------------------------------------

  Dipole Moment: [D]
     X:     0.7758      Y:     0.1153      Z:     1.7407     Total:     1.9092

*** Psi4 exiting successfully. Buy a developer a beer!
