                               Psi4 1.4a3.dev225

  ==> Input File <==

--------------------------------------------------------------------------
#psi4
#
memory 32 gb

molecule  {
0 1
  O       -0.7670850     1.7208920    -0.4354900
  N        1.6863020     0.4747470     0.1388600
  N       -1.9291830    -0.1915810     0.0453950
  N        0.7639310    -1.5088640    -0.3477740
  C        0.5182450    -0.2160980    -0.0822800
  C       -0.7930628     0.5145020    -0.1634185
  C        2.7114570    -0.4276410     0.0208990
  C        1.8666300     1.8964630     0.4257140
  C       -3.1904980     0.5035560    -0.1598940
  C       -2.0503370    -1.5461500     0.5645390
  C        2.1210610    -1.6392390    -0.2794470
  H        3.7418240    -0.1353950     0.1686580
  H        1.1394670     2.2188990     1.1681400
  H        2.8785810     2.0278530     0.8121890
  H        1.7220340     2.4842350    -0.4794890
  H       -3.8467550    -0.1153850    -0.7799180
  H       -2.9915450     1.4520350    -0.6543500
  H       -3.6876690     0.6913720     0.7990550
  H       -1.0742680    -1.9474190     0.8155770
  H       -2.5092790    -2.1983750    -0.1864030
  H       -2.6938370    -1.5270200     1.4518100
  H        2.6051200    -2.5920870    -0.4498700
units angstrom
no_reorient  #important for SAPT in psi4, default
symmetry c1  #important for SAPT in psi4, default
}

set PROPERTIES_ORIGIN ["COM"]
properties('MP2/aug-cc-pvtz', properties = ['dipole'])
--------------------------------------------------------------------------

    Molecular point group: c1
  Charge       = 0
  Multiplicity = 1
  Basis Set: AUG-CC-PVTZ
    Blend: AUG-CC-PVTZ
  Basis Set: (AUG-CC-PVTZ AUX)
    Blend: AUG-CC-PVTZ-JKFIT

    Orbital Energies [Eh]
    ---------------------

    Doubly Occupied:

       1A    -20.518740     2A    -15.632051     3A    -15.593104
       4A    -15.559463     5A    -11.362971     6A    -11.304967
       7A    -11.271402     8A    -11.267420     9A    -11.256764
      10A    -11.253702    11A    -11.249851    12A     -1.385147
      13A     -1.341791    14A     -1.249798    15A     -1.187288
      16A     -1.028576    17A     -0.975386    18A     -0.968259
      19A     -0.940767    20A     -0.827853    21A     -0.808847
      22A     -0.741400    23A     -0.710710    24A     -0.662833
      25A     -0.657041    26A     -0.646820    27A     -0.640120
      28A     -0.604568    29A     -0.591155    30A     -0.575300
      31A     -0.563425    32A     -0.557013    33A     -0.554897
      34A     -0.553544    35A     -0.528964    36A     -0.525838
      37A     -0.450059    38A     -0.428048    39A     -0.390258
      40A     -0.375585    41A     -0.319075

  @DF-RHF Final Energy:  -509.86147055714827

   => Energetics <=

    Nuclear Repulsion Energy =            628.9485277810424577
    One-Electron Energy =               -1941.4983945316726022
    Two-Electron Energy =                 802.6883961934819354
    Total Energy =                       -509.8614705571482091
  Basis Set: (AUG-CC-PVTZ AUX)
    Blend: AUG-CC-PVTZ-RI
    Molecular point group: c1

    Geometry (in Angstrom), charge = 0, multiplicity = 1:

       Center              X                  Y                   Z               Mass
    ------------   -----------------  -----------------  -----------------  -----------------
         O           -0.796319740485     1.722536672429    -0.418142135899    15.994914619570
         N            1.657067259515     0.476391672429     0.156207864101    14.003074004430
         N           -1.958417740485    -0.189936327571     0.062742864101    14.003074004430
         N            0.734696259515    -1.507219327571    -0.330426135899    14.003074004430
         C            0.489010259515    -0.214453327571    -0.064932135899    12.000000000000
         C           -0.822297540485     0.516146672429    -0.146070635899    12.000000000000
         C            2.682222259515    -0.425996327571     0.038246864101    12.000000000000
         C            1.837395259515     1.898107672429     0.443061864101    12.000000000000
         C           -3.219732740485     0.505200672429    -0.142546135899    12.000000000000
         C           -2.079571740485    -1.544505327571     0.581886864101    12.000000000000
         C            2.091826259515    -1.637594327571    -0.262099135899    12.000000000000
         H            3.712589259515    -0.133750327571     0.186005864101     1.007825032230
         H            1.110232259515     2.220543672429     1.185487864101     1.007825032230
         H            2.849346259515     2.029497672429     0.829536864101     1.007825032230
         H            1.692799259515     2.485879672429    -0.462141135899     1.007825032230
         H           -3.875989740485    -0.113740327571    -0.762570135899     1.007825032230
         H           -3.020779740485     1.453679672429    -0.637002135899     1.007825032230
         H           -3.716903740485     0.693016672429     0.816402864101     1.007825032230
         H           -1.103502740485    -1.945774327571     0.832924864101     1.007825032230
         H           -2.538513740485    -2.196730327571    -0.169055135899     1.007825032230
         H           -2.723071740485    -1.525375327571     1.469157864101     1.007825032230
         H            2.575885259515    -2.590442327571    -0.432522135899     1.007825032230

  Basis Set: AUG-CC-PVTZ
    Blend: AUG-CC-PVTZ
  Basis Set: (AUG-CC-PVTZ AUX)
    Blend: AUG-CC-PVTZ-JKFIT
	 Reference Energy          =    -509.8614705571482659 [Eh]
	 Singles Energy            =      -0.0000000000000000 [Eh]
	 Same-Spin Energy          =      -0.5434625092842411 [Eh]
	 Opposite-Spin Energy      =      -1.6946670084421687 [Eh]
	 Correlation Energy        =      -2.2381295177264100 [Eh]
	 Total Energy              =    -512.0996000748747292 [Eh]

	 ================> DF-SCS-MP2 Energies <==================
	-----------------------------------------------------------
	 SCS Same-Spin Scale       =       0.3333333333333333 [-]
	 SCS Opposite-Spin Scale   =       1.2000000000000000 [-]
	 SCS Same-Spin Energy      =      -0.1811541697614137 [Eh]
	 SCS Opposite-Spin Energy  =      -2.0336004101306022 [Eh]
	 SCS Correlation Energy    =      -2.2147545798920159 [Eh]
	 SCS Total Energy          =    -512.0762251370402964 [Eh]
	-----------------------------------------------------------

  Dipole Moment: [D]
     X:     0.5958      Y:     0.0343      Z:     1.7192     Total:     1.8199

*** Psi4 exiting successfully. Buy a developer a beer!
