                               Psi4 1.4a3.dev225

  ==> Input File <==

--------------------------------------------------------------------------
#psi4
#
memory 32 gb

molecule  {
0 1
  O       -0.7670850     1.7208920    -0.4354900
  N        1.6863020     0.4747470     0.1388600
  N       -1.9291830    -0.1915810     0.0453950
  N        0.7639310    -1.5088640    -0.3477740
  C        0.5182450    -0.2160980    -0.0822800
  C       -0.7756170     0.5047820    -0.1623390
  C        2.7114570    -0.4276410     0.0208990
  C        1.8666300     1.8964630     0.4257140
  C       -3.1904980     0.5035560    -0.1598940
  C       -2.0503370    -1.5461500     0.5645390
  C        2.1210610    -1.6392390    -0.2794470
  H        3.7608845    -0.1299888     0.1713914
  H        1.1394670     2.2188990     1.1681400
  H        2.8785810     2.0278530     0.8121890
  H        1.7220340     2.4842350    -0.4794890
  H       -3.8467550    -0.1153850    -0.7799180
  H       -2.9915450     1.4520350    -0.6543500
  H       -3.6876690     0.6913720     0.7990550
  H       -1.0742680    -1.9474190     0.8155770
  H       -2.5092790    -2.1983750    -0.1864030
  H       -2.6938370    -1.5270200     1.4518100
  H        2.6051200    -2.5920870    -0.4498700
units angstrom
no_reorient  #important for SAPT in psi4, default
symmetry c1  #important for SAPT in psi4, default
}

set PROPERTIES_ORIGIN ["COM"]
properties('MP2/aug-cc-pvtz', properties = ['dipole'])
--------------------------------------------------------------------------

    Molecular point group: c1
  Charge       = 0
  Multiplicity = 1
  Basis Set: AUG-CC-PVTZ
    Blend: AUG-CC-PVTZ
  Basis Set: (AUG-CC-PVTZ AUX)
    Blend: AUG-CC-PVTZ-JKFIT

    Orbital Energies [Eh]
    ---------------------

    Doubly Occupied:

       1A    -20.517710     2A    -15.633925     3A    -15.592113
       4A    -15.561708     5A    -11.363090     6A    -11.305512
       7A    -11.271981     8A    -11.271545     9A    -11.255375
      10A    -11.252854    11A    -11.251513    12A     -1.380603
      13A     -1.342115    14A     -1.245540    15A     -1.188818
      16A     -1.031543    17A     -0.976565    18A     -0.966680
      19A     -0.938653    20A     -0.831857    21A     -0.809077
      22A     -0.741968    23A     -0.709069    24A     -0.662191
      25A     -0.655373    26A     -0.644589    27A     -0.639912
      28A     -0.604614    29A     -0.591631    30A     -0.574337
      31A     -0.563724    32A     -0.557065    33A     -0.554863
      34A     -0.553071    35A     -0.527316    36A     -0.522958
      37A     -0.450721    38A     -0.428877    39A     -0.391551
      40A     -0.373188    41A     -0.320651

  @DF-RHF Final Energy:  -509.85975137525918

   => Energetics <=

    Nuclear Repulsion Energy =            628.8806444762253705
    One-Electron Energy =               -1941.3679028149470014
    Two-Electron Energy =                 802.6275069634624515
    Total Energy =                       -509.8597513752591794
  Basis Set: (AUG-CC-PVTZ AUX)
    Blend: AUG-CC-PVTZ-RI
    Molecular point group: c1

    Geometry (in Angstrom), charge = 0, multiplicity = 1:

       Center              X                  Y                   Z               Mass
    ------------   -----------------  -----------------  -----------------  -----------------
         O           -0.797812711499     1.723262985985    -0.418244747221    15.994914619570
         N            1.655574288501     0.477117985985     0.156105252779    14.003074004430
         N           -1.959910711499    -0.189210014015     0.062640252779    14.003074004430
         N            0.733203288501    -1.506493014015    -0.330528747221    14.003074004430
         C            0.487517288501    -0.213727014015    -0.065034747221    12.000000000000
         C           -0.806344711499     0.507152985985    -0.145093747221    12.000000000000
         C            2.680729288501    -0.425270014015     0.038144252779    12.000000000000
         C            1.835902288501     1.898833985985     0.442959252779    12.000000000000
         C           -3.221225711499     0.505926985985    -0.142648747221    12.000000000000
         C           -2.081064711499    -1.543779014015     0.581784252779    12.000000000000
         C            2.090333288501    -1.636868014015    -0.262201747221    12.000000000000
         H            3.730156788501    -0.127617814015     0.188636652779     1.007825032230
         H            1.108739288501     2.221269985985     1.185385252779     1.007825032230
         H            2.847853288501     2.030223985985     0.829434252779     1.007825032230
         H            1.691306288501     2.486605985985    -0.462243747221     1.007825032230
         H           -3.877482711499    -0.113014014015    -0.762672747221     1.007825032230
         H           -3.022272711499     1.454405985985    -0.637104747221     1.007825032230
         H           -3.718396711499     0.693742985985     0.816300252779     1.007825032230
         H           -1.104995711499    -1.945048014015     0.832822252779     1.007825032230
         H           -2.540006711499    -2.196004014015    -0.169157747221     1.007825032230
         H           -2.724564711499    -1.524649014015     1.469055252779     1.007825032230
         H            2.574392288501    -2.589716014015    -0.432624747221     1.007825032230

  Basis Set: AUG-CC-PVTZ
    Blend: AUG-CC-PVTZ
  Basis Set: (AUG-CC-PVTZ AUX)
    Blend: AUG-CC-PVTZ-JKFIT
	 Reference Energy          =    -509.8597513752591794 [Eh]
	 Singles Energy            =      -0.0000000000000000 [Eh]
	 Same-Spin Energy          =      -0.5440032799593921 [Eh]
	 Opposite-Spin Energy      =      -1.6956584319463923 [Eh]
	 Correlation Energy        =      -2.2396617119057844 [Eh]
	 Total Energy              =    -512.0994130871649759 [Eh]

	 ================> DF-SCS-MP2 Energies <==================
	-----------------------------------------------------------
	 SCS Same-Spin Scale       =       0.3333333333333333 [-]
	 SCS Opposite-Spin Scale   =       1.2000000000000000 [-]
	 SCS Same-Spin Energy      =      -0.1813344266531307 [Eh]
	 SCS Opposite-Spin Energy  =      -2.0347901183356707 [Eh]
	 SCS Correlation Energy    =      -2.2161245449888014 [Eh]
	 SCS Total Energy          =    -512.0758759202479951 [Eh]
	-----------------------------------------------------------

  Dipole Moment: [D]
     X:     0.7438      Y:    -0.0032      Z:     1.7174     Total:     1.8716

*** Psi4 exiting successfully. Buy a developer a beer!
