                               Psi4 1.3.2 release

  ==> Input File <==

--------------------------------------------------------------------------
#psi4
#
memory 32 gb

molecule  {
0 1
  O       -0.7670850     1.7208920    -0.4354900
  N        1.6863020     0.4747470     0.1388600
  N       -1.9291830    -0.1915810     0.0453950
  N        0.7639310    -1.5088640    -0.3477740
  C        0.5182450    -0.2160980    -0.0822800
  C       -0.7756170     0.5047820    -0.1623390
  C        2.7114570    -0.4276410     0.0208990
  C        1.8666300     1.8964630     0.4257140
  C       -3.1904980     0.5035560    -0.1598940
  C       -2.0503370    -1.5461500     0.5645390
  C        2.1210610    -1.6392390    -0.2794470
  H        3.6465216    -0.1624259     0.1549912
  H        1.1394670     2.2188990     1.1681400
  H        2.8785810     2.0278530     0.8121890
  H        1.7220340     2.4842350    -0.4794890
  H       -3.8467550    -0.1153850    -0.7799180
  H       -2.9915450     1.4520350    -0.6543500
  H       -3.6876690     0.6913720     0.7990550
  H       -1.0742680    -1.9474190     0.8155770
  H       -2.5092790    -2.1983750    -0.1864030
  H       -2.6938370    -1.5270200     1.4518100
  H        2.6051200    -2.5920870    -0.4498700
units angstrom
no_reorient  #important for SAPT in psi4, default
symmetry c1  #important for SAPT in psi4, default
}

set PROPERTIES_ORIGIN ["COM"]
properties('MP2/aug-cc-pvtz', properties = ['dipole'])
--------------------------------------------------------------------------

    Molecular point group: c1
  Charge       = 0
  Multiplicity = 1
  Basis Set: AUG-CC-PVTZ
    Blend: AUG-CC-PVTZ
  Basis Set: (AUG-CC-PVTZ AUX)
    Blend: AUG-CC-PVTZ-JKFIT

    Orbital Energies [Eh]
    ---------------------

    Doubly Occupied:

       1A    -20.517657     2A    -15.633178     3A    -15.592023
       4A    -15.561091     5A    -11.362940     6A    -11.305139
       7A    -11.272180     8A    -11.258096     9A    -11.255280
      10A    -11.252792    11A    -11.251017    12A     -1.380456
      13A     -1.341769    14A     -1.245455    15A     -1.188696
      16A     -1.035079    17A     -0.976939    18A     -0.966816
      19A     -0.940010    20A     -0.832935    21A     -0.821109
      22A     -0.741731    23A     -0.714261    24A     -0.666179
      25A     -0.655664    26A     -0.651644    27A     -0.640062
      28A     -0.610241    29A     -0.594237    30A     -0.574358
      31A     -0.564419    32A     -0.557036    33A     -0.554767
      34A     -0.552991    35A     -0.527231    36A     -0.522915
      37A     -0.450753    38A     -0.428838    39A     -0.391136
      40A     -0.373109    41A     -0.320543

  @DF-RHF Final Energy:  -509.85432977212719

   => Energetics <=

    Nuclear Repulsion Energy =            629.5666678866240318
    One-Electron Energy =               -1942.6764473439545782
    Two-Electron Energy =                 803.2554496852034163
    Total Energy =                       -509.8543297721272438
  Basis Set: (AUG-CC-PVTZ AUX)
    Blend: AUG-CC-PVTZ-RI
    Molecular point group: c1

    Geometry (in Angstrom), charge = 0, multiplicity = 1:

       Center              X                  Y                   Z               Mass
    ------------   -----------------  -----------------  -----------------  -----------------
         O           -0.797059836499     1.723476526230    -0.418136781258    15.994914619570
         N            1.656327163501     0.477331526230     0.156213218742    14.003074004430
         N           -1.959157836499    -0.188996473770     0.062748218742    14.003074004430
         N            0.733956163501    -1.506279473770    -0.330420781258    14.003074004430
         C            0.488270163501    -0.213513473770    -0.064926781258    12.000000000000
         C           -0.805591836499     0.507366526230    -0.144985781258    12.000000000000
         C            2.681482163501    -0.425056473770     0.038252218742    12.000000000000
         C            1.836655163501     1.899047526230     0.443067218742    12.000000000000
         C           -3.220472836499     0.506140526230    -0.142540781258    12.000000000000
         C           -2.080311836499    -1.543565473770     0.581892218742    12.000000000000
         C            2.091086163501    -1.636654473770    -0.262093781258    12.000000000000
         H            3.616546763501    -0.159841373770     0.172344418742     1.007825032230
         H            1.109492163501     2.221483526230     1.185493218742     1.007825032230
         H            2.848606163501     2.030437526230     0.829542218742     1.007825032230
         H            1.692059163501     2.486819526230    -0.462135781258     1.007825032230
         H           -3.876729836499    -0.112800473770    -0.762564781258     1.007825032230
         H           -3.021519836499     1.454619526230    -0.636996781258     1.007825032230
         H           -3.717643836499     0.693956526230     0.816408218742     1.007825032230
         H           -1.104242836499    -1.944834473770     0.832930218742     1.007825032230
         H           -2.539253836499    -2.195790473770    -0.169049781258     1.007825032230
         H           -2.723811836499    -1.524435473770     1.469163218742     1.007825032230
         H            2.575145163501    -2.589502473770    -0.432516781258     1.007825032230

  Basis Set: AUG-CC-PVTZ
    Blend: AUG-CC-PVTZ
  Basis Set: (AUG-CC-PVTZ AUX)
    Blend: AUG-CC-PVTZ-JKFIT
	 Reference Energy          =    -509.8543297721271870 [Eh]
	 Singles Energy            =      -0.0000000000000000 [Eh]
	 Same-Spin Energy          =      -0.5437419475180503 [Eh]
	 Opposite-Spin Energy      =      -1.6949555648923897 [Eh]
	 Correlation Energy        =      -2.2386975124104400 [Eh]
	 Total Energy              =    -512.0930272845375839 [Eh]

	 ================> DF-SCS-MP2 Energies <==================
	-----------------------------------------------------------
	 SCS Same-Spin Scale       =       0.3333333333333333 [-]
	 SCS Opposite-Spin Scale   =       1.2000000000000000 [-]
	 SCS Same-Spin Energy      =      -0.1812473158393501 [Eh]
	 SCS Opposite-Spin Energy  =      -2.0339466778708677 [Eh]
	 SCS Correlation Energy    =      -2.2151939937102179 [Eh]
	 SCS Total Energy          =    -512.0695237658374026 [Eh]
	-----------------------------------------------------------

  Dipole Moment: [D]
     X:     0.7382      Y:    -0.0031      Z:     1.7173     Total:     1.8692

*** Psi4 exiting successfully. Buy a developer a beer!
