                               Psi4 1.4a3.dev225

  ==> Input File <==

--------------------------------------------------------------------------
#psi4
#
memory 32 gb

molecule  {
0 1
  O       -0.7670850     1.7208920    -0.4354900
  N        1.6863020     0.4747470     0.1388600
  N       -1.9291830    -0.1915810     0.0453950
  N        0.7639310    -1.5088640    -0.3477740
  C        0.5182450    -0.2160980    -0.0822800
  C       -0.7756170     0.5047820    -0.1623390
  C        2.6965002    -0.4144754     0.0226200
  C        1.8666300     1.8964630     0.4257140
  C       -3.1904980     0.5035560    -0.1598940
  C       -2.0503370    -1.5461500     0.5645390
  C        2.1210610    -1.6392390    -0.2794470
  H        3.7418240    -0.1353950     0.1686580
  H        1.1394670     2.2188990     1.1681400
  H        2.8785810     2.0278530     0.8121890
  H        1.7220340     2.4842350    -0.4794890
  H       -3.8467550    -0.1153850    -0.7799180
  H       -2.9915450     1.4520350    -0.6543500
  H       -3.6876690     0.6913720     0.7990550
  H       -1.0742680    -1.9474190     0.8155770
  H       -2.5092790    -2.1983750    -0.1864030
  H       -2.6938370    -1.5270200     1.4518100
  H        2.6051200    -2.5920870    -0.4498700
units angstrom
no_reorient  #important for SAPT in psi4, default
symmetry c1  #important for SAPT in psi4, default
}

set PROPERTIES_ORIGIN ["COM"]
properties('MP2/aug-cc-pvtz', properties = ['dipole'])
--------------------------------------------------------------------------

    Molecular point group: c1
  Charge       = 0
  Multiplicity = 1
  Basis Set: AUG-CC-PVTZ
    Blend: AUG-CC-PVTZ
  Basis Set: (AUG-CC-PVTZ AUX)
    Blend: AUG-CC-PVTZ-JKFIT

    Orbital Energies [Eh]
    ---------------------

    Doubly Occupied:

       1A    -20.516925     2A    -15.635010     3A    -15.591440
       4A    -15.562307     5A    -11.362375     6A    -11.303620
       7A    -11.273015     8A    -11.269878     9A    -11.255012
      10A    -11.252448    11A    -11.250781    12A     -1.380816
      13A     -1.345691    14A     -1.245024    15A     -1.190956
      16A     -1.031641    17A     -0.978084    18A     -0.966276
      19A     -0.938268    20A     -0.832150    21A     -0.810604
      22A     -0.743040    23A     -0.709581    24A     -0.663372
      25A     -0.655529    26A     -0.645817    27A     -0.641219
      28A     -0.605282    29A     -0.590300    30A     -0.574052
      31A     -0.566347    32A     -0.557069    33A     -0.555114
      34A     -0.552829    35A     -0.527101    36A     -0.522995
      37A     -0.450340    38A     -0.428394    39A     -0.393708
      40A     -0.372766    41A     -0.318375

  @DF-RHF Final Energy:  -509.86028480863661

   => Energetics <=

    Nuclear Repulsion Energy =            629.3932579539836070
    One-Electron Energy =               -1942.3759867385083453
    Two-Electron Energy =                 803.1224439758880180
    Total Energy =                       -509.8602848086366066
  Basis Set: (AUG-CC-PVTZ AUX)
    Blend: AUG-CC-PVTZ-RI
    Molecular point group: c1

    Geometry (in Angstrom), charge = 0, multiplicity = 1:

       Center              X                  Y                   Z               Mass
    ------------   -----------------  -----------------  -----------------  -----------------
         O           -0.796514841136     1.722266588539    -0.418361653526    15.994914619570
         N            1.656872158864     0.476121588539     0.155988346474    14.003074004430
         N           -1.958612841136    -0.190206411461     0.062523346474    14.003074004430
         N            0.734501158864    -1.507489411461    -0.330645653526    14.003074004430
         C            0.488815158864    -0.214723411461    -0.065151653526    12.000000000000
         C           -0.805046841136     0.506156588539    -0.145210653526    12.000000000000
         C            2.667070358864    -0.413100811461     0.039748346474    12.000000000000
         C            1.837200158864     1.897837588539     0.442842346474    12.000000000000
         C           -3.219927841136     0.504930588539    -0.142765653526    12.000000000000
         C           -2.079766841136    -1.544775411461     0.581667346474    12.000000000000
         C            2.091631158864    -1.637864411461    -0.262318653526    12.000000000000
         H            3.712394158864    -0.134020411461     0.185786346474     1.007825032230
         H            1.110037158864     2.220273588539     1.185268346474     1.007825032230
         H            2.849151158864     2.029227588539     0.829317346474     1.007825032230
         H            1.692604158864     2.485609588539    -0.462360653526     1.007825032230
         H           -3.876184841136    -0.114010411461    -0.762789653526     1.007825032230
         H           -3.020974841136     1.453409588539    -0.637221653526     1.007825032230
         H           -3.717098841136     0.692746588539     0.816183346474     1.007825032230
         H           -1.103697841136    -1.946044411461     0.832705346474     1.007825032230
         H           -2.538708841136    -2.197000411461    -0.169274653526     1.007825032230
         H           -2.723266841136    -1.525645411461     1.468938346474     1.007825032230
         H            2.575690158864    -2.590712411461    -0.432741653526     1.007825032230

  Basis Set: AUG-CC-PVTZ
    Blend: AUG-CC-PVTZ
  Basis Set: (AUG-CC-PVTZ AUX)
    Blend: AUG-CC-PVTZ-JKFIT
	 Reference Energy          =    -509.8602848086366066 [Eh]
	 Singles Energy            =      -0.0000000000000000 [Eh]
	 Same-Spin Energy          =      -0.5440603976424329 [Eh]
	 Opposite-Spin Energy      =      -1.6953012268140784 [Eh]
	 Correlation Energy        =      -2.2393616244565111 [Eh]
	 Total Energy              =    -512.0996464330930849 [Eh]

	 ================> DF-SCS-MP2 Energies <==================
	-----------------------------------------------------------
	 SCS Same-Spin Scale       =       0.3333333333333333 [-]
	 SCS Opposite-Spin Scale   =       1.2000000000000000 [-]
	 SCS Same-Spin Energy      =      -0.1813534658808109 [Eh]
	 SCS Opposite-Spin Energy  =      -2.0343614721768941 [Eh]
	 SCS Correlation Energy    =      -2.2157149380577050 [Eh]
	 SCS Total Energy          =    -512.0759997466942650 [Eh]
	-----------------------------------------------------------

  Dipole Moment: [D]
     X:     0.7653      Y:     0.0160      Z:     1.7223     Total:     1.8847

*** Psi4 exiting successfully. Buy a developer a beer!
