                               Psi4 1.3.2 release

  ==> Input File <==

--------------------------------------------------------------------------
#psi4
#
memory 32 gb

molecule  {
0 1
  O       -0.7670850     1.7208920    -0.4354900
  N        1.6863020     0.4747470     0.1388600
  N       -1.9291830    -0.1915810     0.0453950
  N        0.7639310    -1.5088640    -0.3477740
  C        0.4938370    -0.1753379    -0.0754848
  C       -0.7756170     0.5047820    -0.1623390
  C        2.7114570    -0.4276410     0.0208990
  C        1.8666300     1.8964630     0.4257140
  C       -3.1904980     0.5035560    -0.1598940
  C       -2.0503370    -1.5461500     0.5645390
  C        2.1210610    -1.6392390    -0.2794470
  H        3.7418240    -0.1353950     0.1686580
  H        1.1394670     2.2188990     1.1681400
  H        2.8785810     2.0278530     0.8121890
  H        1.7220340     2.4842350    -0.4794890
  H       -3.8467550    -0.1153850    -0.7799180
  H       -2.9915450     1.4520350    -0.6543500
  H       -3.6876690     0.6913720     0.7990550
  H       -1.0742680    -1.9474190     0.8155770
  H       -2.5092790    -2.1983750    -0.1864030
  H       -2.6938370    -1.5270200     1.4518100
  H        2.6051200    -2.5920870    -0.4498700
units angstrom
no_reorient  #important for SAPT in psi4, default
symmetry c1  #important for SAPT in psi4, default
}

set PROPERTIES_ORIGIN ["COM"]
properties('MP2/aug-cc-pvtz', properties = ['dipole'])
--------------------------------------------------------------------------

    Molecular point group: c1
  Charge       = 0
  Multiplicity = 1
  Basis Set: AUG-CC-PVTZ
    Blend: AUG-CC-PVTZ
  Basis Set: (AUG-CC-PVTZ AUX)
    Blend: AUG-CC-PVTZ-JKFIT

    Orbital Energies [Eh]
    ---------------------

    Doubly Occupied:

       1A    -20.515868     2A    -15.639063     3A    -15.591443
       4A    -15.564896     5A    -11.360234     6A    -11.305397
       7A    -11.271972     8A    -11.271217     9A    -11.254508
      10A    -11.253672    11A    -11.252435    12A     -1.380998
      13A     -1.337889    14A     -1.244971    15A     -1.180516
      16A     -1.036237    17A     -0.977032    18A     -0.966046
      19A     -0.939432    20A     -0.839242    21A     -0.808706
      22A     -0.741094    23A     -0.709877    24A     -0.664074
      25A     -0.656426    26A     -0.647288    27A     -0.639653
      28A     -0.605038    29A     -0.590022    30A     -0.576486
      31A     -0.563781    32A     -0.557128    33A     -0.553599
      34A     -0.552494    35A     -0.526198    36A     -0.522281
      37A     -0.444275    38A     -0.431351    39A     -0.388522
      40A     -0.372688    41A     -0.319340

  @DF-RHF Final Energy:  -509.85336373543362

   => Energetics <=

    Nuclear Repulsion Energy =            628.9568119923051199
    One-Electron Energy =               -1941.5135669121079900
    Two-Electron Energy =                 802.7033911843692522
    Total Energy =                       -509.8533637354336179
  Basis Set: (AUG-CC-PVTZ AUX)
    Blend: AUG-CC-PVTZ-RI
    Molecular point group: c1

    Geometry (in Angstrom), charge = 0, multiplicity = 1:

       Center              X                  Y                   Z               Mass
    ------------   -----------------  -----------------  -----------------  -----------------
         O           -0.795774007359     1.720103589378    -0.418759395479    15.994914619570
         N            1.657612992641     0.473958589378     0.155590604521    14.003074004430
         N           -1.957872007359    -0.192369410622     0.062125604521    14.003074004430
         N            0.735241992641    -1.509652410622    -0.331043395479    14.003074004430
         C            0.465147992641    -0.176126310622    -0.058754195479    12.000000000000
         C           -0.804306007359     0.503993589378    -0.145608395479    12.000000000000
         C            2.682767992641    -0.428429410622     0.037629604521    12.000000000000
         C            1.837940992641     1.895674589378     0.442444604521    12.000000000000
         C           -3.219187007359     0.502767589378    -0.143163395479    12.000000000000
         C           -2.079026007359    -1.546938410622     0.581269604521    12.000000000000
         C            2.092371992641    -1.640027410622    -0.262716395479    12.000000000000
         H            3.713134992641    -0.136183410622     0.185388604521     1.007825032230
         H            1.110777992641     2.218110589378     1.184870604521     1.007825032230
         H            2.849891992641     2.027064589378     0.828919604521     1.007825032230
         H            1.693344992641     2.483446589378    -0.462758395479     1.007825032230
         H           -3.875444007359    -0.116173410622    -0.763187395479     1.007825032230
         H           -3.020234007359     1.451246589378    -0.637619395479     1.007825032230
         H           -3.716358007359     0.690583589378     0.815785604521     1.007825032230
         H           -1.102957007359    -1.948207410622     0.832307604521     1.007825032230
         H           -2.537968007359    -2.199163410622    -0.169672395479     1.007825032230
         H           -2.722526007359    -1.527808410622     1.468540604521     1.007825032230
         H            2.576430992641    -2.592875410622    -0.433139395479     1.007825032230

  Basis Set: AUG-CC-PVTZ
    Blend: AUG-CC-PVTZ
  Basis Set: (AUG-CC-PVTZ AUX)
    Blend: AUG-CC-PVTZ-JKFIT
	 Reference Energy          =    -509.8533637354336179 [Eh]
	 Singles Energy            =      -0.0000000000000000 [Eh]
	 Same-Spin Energy          =      -0.5455029006601105 [Eh]
	 Opposite-Spin Energy      =      -1.6980242047884402 [Eh]
	 Correlation Energy        =      -2.2435271054485506 [Eh]
	 Total Energy              =    -512.0968908408822244 [Eh]

	 ================> DF-SCS-MP2 Energies <==================
	-----------------------------------------------------------
	 SCS Same-Spin Scale       =       0.3333333333333333 [-]
	 SCS Opposite-Spin Scale   =       1.2000000000000000 [-]
	 SCS Same-Spin Energy      =      -0.1818343002200368 [Eh]
	 SCS Opposite-Spin Energy  =      -2.0376290457461281 [Eh]
	 SCS Correlation Energy    =      -2.2194633459661648 [Eh]
	 SCS Total Energy          =    -512.0728270813997369 [Eh]
	-----------------------------------------------------------

  Dipole Moment: [D]
     X:     0.8811      Y:    -0.0154      Z:     1.7283     Total:     1.9400

*** Psi4 exiting successfully. Buy a developer a beer!
