                               Psi4 1.3.2 release

  ==> Input File <==

--------------------------------------------------------------------------
#psi4
#
memory 32 gb

molecule  {
0 1
  O       -0.7670850     1.7208920    -0.4354900
  N        1.6863020     0.4747470     0.1388600
  N       -1.9291830    -0.1915810     0.0453950
  N        0.7639310    -1.5088640    -0.3477740
  C        0.5182450    -0.2160980    -0.0822800
  C       -0.7756170     0.5047820    -0.1623390
  C        2.7114570    -0.4276410     0.0208990
  C        1.8419535     1.7019117     0.3864602
  C       -3.1904980     0.5035560    -0.1598940
  C       -2.0503370    -1.5461500     0.5645390
  C        2.1210610    -1.6392390    -0.2794470
  H        3.7418240    -0.1353950     0.1686580
  H        1.1394670     2.2188990     1.1681400
  H        2.8785810     2.0278530     0.8121890
  H        1.7220340     2.4842350    -0.4794890
  H       -3.8467550    -0.1153850    -0.7799180
  H       -2.9915450     1.4520350    -0.6543500
  H       -3.6876690     0.6913720     0.7990550
  H       -1.0742680    -1.9474190     0.8155770
  H       -2.5092790    -2.1983750    -0.1864030
  H       -2.6938370    -1.5270200     1.4518100
  H        2.6051200    -2.5920870    -0.4498700
units angstrom
no_reorient  #important for SAPT in psi4, default
symmetry c1  #important for SAPT in psi4, default
}

set PROPERTIES_ORIGIN ["COM"]
properties('MP2/aug-cc-pvtz', properties = ['dipole'])
--------------------------------------------------------------------------

    Molecular point group: c1
  Charge       = 0
  Multiplicity = 1
  Basis Set: AUG-CC-PVTZ
    Blend: AUG-CC-PVTZ
  Basis Set: (AUG-CC-PVTZ AUX)
    Blend: AUG-CC-PVTZ-JKFIT

    Orbital Energies [Eh]
    ---------------------

    Doubly Occupied:

       1A    -20.519728     2A    -15.636092     3A    -15.594033
       4A    -15.569253     5A    -11.365931     6A    -11.313452
       7A    -11.275494     8A    -11.272280     9A    -11.258425
      10A    -11.257530    11A    -11.254171    12A     -1.394073
      13A     -1.363906    14A     -1.249275    15A     -1.224002
      16A     -1.042318    17A     -0.982220    18A     -0.968672
      19A     -0.940127    20A     -0.839601    21A     -0.820852
      22A     -0.756938    23A     -0.715559    24A     -0.675402
      25A     -0.665805    26A     -0.650942    27A     -0.647586
      28A     -0.623054    29A     -0.607689    30A     -0.576639
      31A     -0.560339    32A     -0.555281    33A     -0.543566
      34A     -0.529059    35A     -0.518776    36A     -0.508892
      37A     -0.456052    38A     -0.426139    39A     -0.380077
      40A     -0.374223    41A     -0.326866

  @DF-RHF Final Energy:  -509.81093190703456

   => Energetics <=

    Nuclear Repulsion Energy =            633.4077402488750295
    One-Electron Energy =               -1949.9567085603487158
    Two-Electron Energy =                 806.7380364044391854
    Total Energy =                       -509.8109319070346146
  Basis Set: (AUG-CC-PVTZ AUX)
    Blend: AUG-CC-PVTZ-RI
    Molecular point group: c1

    Geometry (in Angstrom), charge = 0, multiplicity = 1:

       Center              X                  Y                   Z               Mass
    ------------   -----------------  -----------------  -----------------  -----------------
         O           -0.795752960945     1.738548509947    -0.415149837476    15.994914619570
         N            1.657634039055     0.492403509947     0.159200162524    14.003074004430
         N           -1.957850960945    -0.173924490053     0.065735162524    14.003074004430
         N            0.735263039055    -1.491207490053    -0.327433837476    14.003074004430
         C            0.489577039055    -0.198441490053    -0.061939837476    12.000000000000
         C           -0.804284960945     0.522438509947    -0.141998837476    12.000000000000
         C            2.682789039055    -0.409984490053     0.041239162524    12.000000000000
         C            1.813285539055     1.719568209947     0.406800362524    12.000000000000
         C           -3.219165960945     0.521212509947    -0.139553837476    12.000000000000
         C           -2.079004960945    -1.528493490053     0.584879162524    12.000000000000
         C            2.092393039055    -1.621582490053    -0.259106837476    12.000000000000
         H            3.713156039055    -0.117738490053     0.188998162524     1.007825032230
         H            1.110799039055     2.236555509947     1.188480162524     1.007825032230
         H            2.849913039055     2.045509509947     0.832529162524     1.007825032230
         H            1.693366039055     2.501891509947    -0.459148837476     1.007825032230
         H           -3.875422960945    -0.097728490053    -0.759577837476     1.007825032230
         H           -3.020212960945     1.469691509947    -0.634009837476     1.007825032230
         H           -3.716336960945     0.709028509947     0.819395162524     1.007825032230
         H           -1.102935960945    -1.929762490053     0.835917162524     1.007825032230
         H           -2.537946960945    -2.180718490053    -0.166062837476     1.007825032230
         H           -2.722504960945    -1.509363490053     1.472150162524     1.007825032230
         H            2.576452039055    -2.574430490053    -0.429529837476     1.007825032230

  Basis Set: AUG-CC-PVTZ
    Blend: AUG-CC-PVTZ
  Basis Set: (AUG-CC-PVTZ AUX)
    Blend: AUG-CC-PVTZ-JKFIT
	 Reference Energy          =    -509.8109319070345578 [Eh]
	 Singles Energy            =      -0.0000000000000000 [Eh]
	 Same-Spin Energy          =      -0.5467265841567427 [Eh]
	 Opposite-Spin Energy      =      -1.6986282898581246 [Eh]
	 Correlation Energy        =      -2.2453548740148674 [Eh]
	 Total Energy              =    -512.0562867810493799 [Eh]

	 ================> DF-SCS-MP2 Energies <==================
	-----------------------------------------------------------
	 SCS Same-Spin Scale       =       0.3333333333333333 [-]
	 SCS Opposite-Spin Scale   =       1.2000000000000000 [-]
	 SCS Same-Spin Energy      =      -0.1822421947189142 [Eh]
	 SCS Opposite-Spin Energy  =      -2.0383539478297497 [Eh]
	 SCS Correlation Energy    =      -2.2205961425486640 [Eh]
	 SCS Total Energy          =    -512.0315280495832440 [Eh]
	-----------------------------------------------------------

  Dipole Moment: [D]
     X:     0.5936      Y:    -0.5229      Z:     1.6076     Total:     1.7917

*** Psi4 exiting successfully. Buy a developer a beer!
