                               Psi4 1.3.2 release

  ==> Input File <==

--------------------------------------------------------------------------
#psi4
#
memory 32 gb

molecule  {
0 1
  O       -0.7670850     1.7208920    -0.4354900
  N        1.7107441     0.4340997     0.1315321
  N       -1.9291830    -0.1915810     0.0453950
  N        0.7639310    -1.5088640    -0.3477740
  C        0.5182450    -0.2160980    -0.0822800
  C       -0.7756170     0.5047820    -0.1623390
  C        2.7114570    -0.4276410     0.0208990
  C        1.8666300     1.8964630     0.4257140
  C       -3.1904980     0.5035560    -0.1598940
  C       -2.0503370    -1.5461500     0.5645390
  C        2.1210610    -1.6392390    -0.2794470
  H        3.7418240    -0.1353950     0.1686580
  H        1.1394670     2.2188990     1.1681400
  H        2.8785810     2.0278530     0.8121890
  H        1.7220340     2.4842350    -0.4794890
  H       -3.8467550    -0.1153850    -0.7799180
  H       -2.9915450     1.4520350    -0.6543500
  H       -3.6876690     0.6913720     0.7990550
  H       -1.0742680    -1.9474190     0.8155770
  H       -2.5092790    -2.1983750    -0.1864030
  H       -2.6938370    -1.5270200     1.4518100
  H        2.6051200    -2.5920870    -0.4498700
units angstrom
no_reorient  #important for SAPT in psi4, default
symmetry c1  #important for SAPT in psi4, default
}

set PROPERTIES_ORIGIN ["COM"]
properties('MP2/aug-cc-pvtz', properties = ['dipole'])
--------------------------------------------------------------------------

    Molecular point group: c1
  Charge       = 0
  Multiplicity = 1
  Basis Set: AUG-CC-PVTZ
    Blend: AUG-CC-PVTZ
  Basis Set: (AUG-CC-PVTZ AUX)
    Blend: AUG-CC-PVTZ-JKFIT

    Orbital Energies [Eh]
    ---------------------

    Doubly Occupied:

       1A    -20.516634     2A    -15.634446     3A    -15.591551
       4A    -15.561010     5A    -11.363184     6A    -11.300533
       7A    -11.276298     8A    -11.266758     9A    -11.254824
      10A    -11.252527    11A    -11.247408    12A     -1.380820
      13A     -1.348860    14A     -1.244889    15A     -1.185417
      16A     -1.034912    17A     -0.974504    18A     -0.966076
      19A     -0.938197    20A     -0.832443    21A     -0.812293
      22A     -0.741724    23A     -0.710632    24A     -0.664253
      25A     -0.655900    26A     -0.648397    27A     -0.640002
      28A     -0.603737    29A     -0.580088    30A     -0.576514
      31A     -0.568504    32A     -0.558050    33A     -0.555684
      34A     -0.552790    35A     -0.527255    36A     -0.524075
      37A     -0.449190    38A     -0.428449    39A     -0.394902
      40A     -0.372761    41A     -0.317610

  @DF-RHF Final Energy:  -509.85819079569774

   => Energetics <=

    Nuclear Repulsion Energy =            629.1796446561367020
    One-Electron Energy =               -1941.9674716859049113
    Two-Electron Energy =                 802.9296362340705855
    Total Energy =                       -509.8581907956977375
  Basis Set: (AUG-CC-PVTZ AUX)
    Blend: AUG-CC-PVTZ-RI
    Molecular point group: c1

    Geometry (in Angstrom), charge = 0, multiplicity = 1:

       Center              X                  Y                   Z               Mass
    ------------   -----------------  -----------------  -----------------  -----------------
         O           -0.799922937110     1.727016561385    -0.417556473858    15.994914619570
         N            1.677906162890     0.440224261385     0.149465626142    14.003074004430
         N           -1.962020937110    -0.185456438615     0.063328526142    14.003074004430
         N            0.731093062890    -1.502739438615    -0.329840473858    14.003074004430
         C            0.485407062890    -0.209973438615    -0.064346473858    12.000000000000
         C           -0.808454937110     0.510906561385    -0.144405473858    12.000000000000
         C            2.678619062890    -0.421516438615     0.038832526142    12.000000000000
         C            1.833792062890     1.902587561385     0.443647526142    12.000000000000
         C           -3.223335937110     0.509680561385    -0.141960473858    12.000000000000
         C           -2.083174937110    -1.540025438615     0.582472526142    12.000000000000
         C            2.088223062890    -1.633114438615    -0.261513473858    12.000000000000
         H            3.708986062890    -0.129270438615     0.186591526142     1.007825032230
         H            1.106629062890     2.225023561385     1.186073526142     1.007825032230
         H            2.845743062890     2.033977561385     0.830122526142     1.007825032230
         H            1.689196062890     2.490359561385    -0.461555473858     1.007825032230
         H           -3.879592937110    -0.109260438615    -0.761984473858     1.007825032230
         H           -3.024382937110     1.458159561385    -0.636416473858     1.007825032230
         H           -3.720506937110     0.697496561385     0.816988526142     1.007825032230
         H           -1.107105937110    -1.941294438615     0.833510526142     1.007825032230
         H           -2.542116937110    -2.192250438615    -0.168469473858     1.007825032230
         H           -2.726674937110    -1.520895438615     1.469743526142     1.007825032230
         H            2.572282062890    -2.585962438615    -0.431936473858     1.007825032230

  Basis Set: AUG-CC-PVTZ
    Blend: AUG-CC-PVTZ
  Basis Set: (AUG-CC-PVTZ AUX)
    Blend: AUG-CC-PVTZ-JKFIT
	 Reference Energy          =    -509.8581907956977375 [Eh]
	 Singles Energy            =      -0.0000000000000000 [Eh]
	 Same-Spin Energy          =      -0.5439561630855964 [Eh]
	 Opposite-Spin Energy      =      -1.6949150349144748 [Eh]
	 Correlation Energy        =      -2.2388711980000711 [Eh]
	 Total Energy              =    -512.0970619936978210 [Eh]

	 ================> DF-SCS-MP2 Energies <==================
	-----------------------------------------------------------
	 SCS Same-Spin Scale       =       0.3333333333333333 [-]
	 SCS Opposite-Spin Scale   =       1.2000000000000000 [-]
	 SCS Same-Spin Energy      =      -0.1813187210285321 [Eh]
	 SCS Opposite-Spin Energy  =      -2.0338980418973698 [Eh]
	 SCS Correlation Energy    =      -2.2152167629259019 [Eh]
	 SCS Total Energy          =    -512.0734075586236713 [Eh]
	-----------------------------------------------------------

  Dipole Moment: [D]
     X:     0.7782      Y:     0.1155      Z:     1.7436     Total:     1.9129

*** Psi4 exiting successfully. Buy a developer a beer!
