                               Psi4 1.3.2 release

  ==> Input File <==

--------------------------------------------------------------------------
#psi4
#
memory 32 gb

molecule  {
0 1
  O       -0.7670850     1.7208920    -0.4354900
  N        1.6863020     0.4747470     0.1388600
  N       -1.9984462    -0.0687372     0.0235478
  N        0.7639310    -1.5088640    -0.3477740
  C        0.5182450    -0.2160980    -0.0822800
  C       -0.7756170     0.5047820    -0.1623390
  C        2.7114570    -0.4276410     0.0208990
  C        1.8666300     1.8964630     0.4257140
  C       -3.1904980     0.5035560    -0.1598940
  C       -2.0503370    -1.5461500     0.5645390
  C        2.1210610    -1.6392390    -0.2794470
  H        3.7418240    -0.1353950     0.1686580
  H        1.1394670     2.2188990     1.1681400
  H        2.8785810     2.0278530     0.8121890
  H        1.7220340     2.4842350    -0.4794890
  H       -3.8467550    -0.1153850    -0.7799180
  H       -2.9915450     1.4520350    -0.6543500
  H       -3.6876690     0.6913720     0.7990550
  H       -1.0742680    -1.9474190     0.8155770
  H       -2.5092790    -2.1983750    -0.1864030
  H       -2.6938370    -1.5270200     1.4518100
  H        2.6051200    -2.5920870    -0.4498700
units angstrom
no_reorient  #important for SAPT in psi4, default
symmetry c1  #important for SAPT in psi4, default
}

set PROPERTIES_ORIGIN ["COM"]
properties('MP2/aug-cc-pvtz', properties = ['dipole'])
--------------------------------------------------------------------------

    Molecular point group: c1
  Charge       = 0
  Multiplicity = 1
  Basis Set: AUG-CC-PVTZ
    Blend: AUG-CC-PVTZ
  Basis Set: (AUG-CC-PVTZ AUX)
    Blend: AUG-CC-PVTZ-JKFIT

    Orbital Energies [Eh]
    ---------------------

    Doubly Occupied:

       1A    -20.512139     2A    -15.637394     3A    -15.588393
       4A    -15.564720     5A    -11.362193     6A    -11.311386
       7A    -11.273097     8A    -11.272294     9A    -11.262271
      10A    -11.253914    11A    -11.241760    12A     -1.382559
      13A     -1.345316    14A     -1.247236    15A     -1.191967
      16A     -1.036614    17A     -0.980659    18A     -0.964307
      19A     -0.935845    20A     -0.835227    21A     -0.812984
      22A     -0.742809    23A     -0.712842    24A     -0.663891
      25A     -0.657389    26A     -0.646525    27A     -0.642372
      28A     -0.610590    29A     -0.594746    30A     -0.584583
      31A     -0.568866    32A     -0.560410    33A     -0.554626
      34A     -0.551772    35A     -0.520330    36A     -0.500822
      37A     -0.451727    38A     -0.429153    39A     -0.393925
      40A     -0.365711    41A     -0.323468

  @DF-RHF Final Energy:  -509.83665302115048

   => Energetics <=

    Nuclear Repulsion Energy =            628.7507353174677291
    One-Electron Energy =               -1940.9971122964821006
    Two-Electron Energy =                 802.4097239578637755
    Total Energy =                       -509.8366530211504823
  Basis Set: (AUG-CC-PVTZ AUX)
    Blend: AUG-CC-PVTZ-RI
    Molecular point group: c1

    Geometry (in Angstrom), charge = 0, multiplicity = 1:

       Center              X                  Y                   Z               Mass
    ------------   -----------------  -----------------  -----------------  -----------------
         O           -0.791351766991     1.712062124112    -0.416228401804    15.994914619570
         N            1.662035233009     0.465917124112     0.158121598196    14.003074004430
         N           -2.022712966991    -0.077567075888     0.042809398196    14.003074004430
         N            0.739664233009    -1.517693875888    -0.328512401804    14.003074004430
         C            0.493978233009    -0.224927875888    -0.063018401804    12.000000000000
         C           -0.799883766991     0.495952124112    -0.143077401804    12.000000000000
         C            2.687190233009    -0.436470875888     0.040160598196    12.000000000000
         C            1.842363233009     1.887633124112     0.444975598196    12.000000000000
         C           -3.214764766991     0.494726124112    -0.140632401804    12.000000000000
         C           -2.074603766991    -1.554979875888     0.583800598196    12.000000000000
         C            2.096794233009    -1.648068875888    -0.260185401804    12.000000000000
         H            3.717557233009    -0.144224875888     0.187919598196     1.007825032230
         H            1.115200233009     2.210069124112     1.187401598196     1.007825032230
         H            2.854314233009     2.019023124112     0.831450598196     1.007825032230
         H            1.697767233009     2.475405124112    -0.460227401804     1.007825032230
         H           -3.871021766991    -0.124214875888    -0.760656401804     1.007825032230
         H           -3.015811766991     1.443205124112    -0.635088401804     1.007825032230
         H           -3.711935766991     0.682542124112     0.818316598196     1.007825032230
         H           -1.098534766991    -1.956248875888     0.834838598196     1.007825032230
         H           -2.533545766991    -2.207204875888    -0.167141401804     1.007825032230
         H           -2.718103766991    -1.535849875888     1.471071598196     1.007825032230
         H            2.580853233009    -2.600916875888    -0.430608401804     1.007825032230

  Basis Set: AUG-CC-PVTZ
    Blend: AUG-CC-PVTZ
  Basis Set: (AUG-CC-PVTZ AUX)
    Blend: AUG-CC-PVTZ-JKFIT
	 Reference Energy          =    -509.8366530211504823 [Eh]
	 Singles Energy            =      -0.0000000000000000 [Eh]
	 Same-Spin Energy          =      -0.5446476783752874 [Eh]
	 Opposite-Spin Energy      =      -1.6968038393967126 [Eh]
	 Correlation Energy        =      -2.2414515177720000 [Eh]
	 Total Energy              =    -512.0781045389225028 [Eh]

	 ================> DF-SCS-MP2 Energies <==================
	-----------------------------------------------------------
	 SCS Same-Spin Scale       =       0.3333333333333333 [-]
	 SCS Opposite-Spin Scale   =       1.2000000000000000 [-]
	 SCS Same-Spin Energy      =      -0.1815492261250958 [Eh]
	 SCS Opposite-Spin Energy  =      -2.0361646072760551 [Eh]
	 SCS Correlation Energy    =      -2.2177138334011510 [Eh]
	 SCS Total Energy          =    -512.0543668545516311 [Eh]
	-----------------------------------------------------------

  Dipole Moment: [D]
     X:     1.0571      Y:    -0.2375      Z:     1.7467     Total:     2.0554

*** Psi4 exiting successfully. Buy a developer a beer!
