                               Psi4 1.3.2 release

  ==> Input File <==

--------------------------------------------------------------------------
#psi4
#
memory 32 gb

molecule  {
0 1
  O       -0.7670850     1.7208920    -0.4354900
  N        1.6863020     0.4747470     0.1388600
  N       -1.9291830    -0.1915810     0.0453950
  N        0.7639310    -1.5088640    -0.3477740
  C        0.5182450    -0.2160980    -0.0822800
  C       -0.9500751     0.6019820    -0.1731338
  C        2.7114570    -0.4276410     0.0208990
  C        1.8666300     1.8964630     0.4257140
  C       -3.1904980     0.5035560    -0.1598940
  C       -2.0503370    -1.5461500     0.5645390
  C        2.1210610    -1.6392390    -0.2794470
  H        3.7418240    -0.1353950     0.1686580
  H        1.1394670     2.2188990     1.1681400
  H        2.8785810     2.0278530     0.8121890
  H        1.7220340     2.4842350    -0.4794890
  H       -3.8467550    -0.1153850    -0.7799180
  H       -2.9915450     1.4520350    -0.6543500
  H       -3.6876690     0.6913720     0.7990550
  H       -1.0742680    -1.9474190     0.8155770
  H       -2.5092790    -2.1983750    -0.1864030
  H       -2.6938370    -1.5270200     1.4518100
  H        2.6051200    -2.5920870    -0.4498700
units angstrom
no_reorient  #important for SAPT in psi4, default
symmetry c1  #important for SAPT in psi4, default
}

set PROPERTIES_ORIGIN ["COM"]
properties('MP2/aug-cc-pvtz', properties = ['dipole'])
--------------------------------------------------------------------------

    Molecular point group: c1
  Charge       = 0
  Multiplicity = 1
  Basis Set: AUG-CC-PVTZ
    Blend: AUG-CC-PVTZ
  Basis Set: (AUG-CC-PVTZ AUX)
    Blend: AUG-CC-PVTZ-JKFIT

    Orbital Energies [Eh]
    ---------------------

    Doubly Occupied:

       1A    -20.531445     2A    -15.615435     3A    -15.604163
       4A    -15.539569     5A    -11.367329     6A    -11.289770
       7A    -11.269686     8A    -11.265398     9A    -11.263126
      10A    -11.250585    11A    -11.235634    12A     -1.434849
      13A     -1.329022    14A     -1.291654    15A     -1.172279
      16A     -1.005036    17A     -0.988532    18A     -0.970466
      19A     -0.947442    20A     -0.798944    21A     -0.785747
      22A     -0.743895    23A     -0.712805    24A     -0.679605
      25A     -0.677145    26A     -0.649837    27A     -0.635036
      28A     -0.595853    29A     -0.591106    30A     -0.578003
      31A     -0.569948    32A     -0.562525    33A     -0.558673
      34A     -0.549104    35A     -0.543856    36A     -0.532832
      37A     -0.439122    38A     -0.405183    39A     -0.398789
      40A     -0.377915    41A     -0.303312

  @DF-RHF Final Energy:  -509.82845585874526

   => Energetics <=

    Nuclear Repulsion Energy =            628.6977364673202828
    One-Electron Energy =               -1940.9310708679265645
    Two-Electron Energy =                 802.4048785418610805
    Total Energy =                       -509.8284558587452011
  Basis Set: (AUG-CC-PVTZ AUX)
    Blend: AUG-CC-PVTZ-RI
    Molecular point group: c1

    Geometry (in Angstrom), charge = 0, multiplicity = 1:

       Center              X                  Y                   Z               Mass
    ------------   -----------------  -----------------  -----------------  -----------------
         O           -0.784012307008     1.715679539067    -0.417380600603    15.994914619570
         N            1.669374692992     0.469534539067     0.156969399397    14.003074004430
         N           -1.946110307008    -0.196793460933     0.063504399397    14.003074004430
         N            0.747003692992    -1.514076460933    -0.329664600603    14.003074004430
         C            0.501317692992    -0.221310460933    -0.064170600603    12.000000000000
         C           -0.967002407008     0.596769539067    -0.155024400603    12.000000000000
         C            2.694529692992    -0.432853460933     0.039008399397    12.000000000000
         C            1.849702692992     1.891250539067     0.443823399397    12.000000000000
         C           -3.207425307008     0.498343539067    -0.141784600603    12.000000000000
         C           -2.067264307008    -1.551362460933     0.582648399397    12.000000000000
         C            2.104133692992    -1.644451460933    -0.261337600603    12.000000000000
         H            3.724896692992    -0.140607460933     0.186767399397     1.007825032230
         H            1.122539692992     2.213686539067     1.186249399397     1.007825032230
         H            2.861653692992     2.022640539067     0.830298399397     1.007825032230
         H            1.705106692992     2.479022539067    -0.461379600603     1.007825032230
         H           -3.863682307008    -0.120597460933    -0.761808600603     1.007825032230
         H           -3.008472307008     1.446822539067    -0.636240600603     1.007825032230
         H           -3.704596307008     0.686159539067     0.817164399397     1.007825032230
         H           -1.091195307008    -1.952631460933     0.833686399397     1.007825032230
         H           -2.526206307008    -2.203587460933    -0.168293600603     1.007825032230
         H           -2.710764307008    -1.532232460933     1.469919399397     1.007825032230
         H            2.588192692992    -2.597299460933    -0.431760600603     1.007825032230

  Basis Set: AUG-CC-PVTZ
    Blend: AUG-CC-PVTZ
  Basis Set: (AUG-CC-PVTZ AUX)
    Blend: AUG-CC-PVTZ-JKFIT
	 Reference Energy          =    -509.8284558587452580 [Eh]
	 Singles Energy            =      -0.0000000000000000 [Eh]
	 Same-Spin Energy          =      -0.5414655100317385 [Eh]
	 Opposite-Spin Energy      =      -1.6915132063893910 [Eh]
	 Correlation Energy        =      -2.2329787164211297 [Eh]
	 Total Energy              =    -512.0614345751663450 [Eh]

	 ================> DF-SCS-MP2 Energies <==================
	-----------------------------------------------------------
	 SCS Same-Spin Scale       =       0.3333333333333333 [-]
	 SCS Opposite-Spin Scale   =       1.2000000000000000 [-]
	 SCS Same-Spin Energy      =      -0.1804885033439128 [Eh]
	 SCS Opposite-Spin Energy  =      -2.0298158476672690 [Eh]
	 SCS Correlation Energy    =      -2.2103043510111817 [Eh]
	 SCS Total Energy          =    -512.0387602097564468 [Eh]
	-----------------------------------------------------------

  Dipole Moment: [D]
     X:    -0.8384      Y:     0.4414      Z:     1.7202     Total:     1.9639

*** Psi4 exiting successfully. Buy a developer a beer!
