                               Psi4 1.3.2 release

  ==> Input File <==

--------------------------------------------------------------------------
#psi4
#
memory 32 gb

molecule  {
0 1
  O       -0.7670850     1.7208920    -0.4354900
  N        1.6863020     0.4747470     0.1388600
  N       -1.9291830    -0.1915810     0.0453950
  N        0.7639310    -1.5088640    -0.3477740
  C        0.5182450    -0.2160980    -0.0822800
  C       -0.7756170     0.5047820    -0.1623390
  C        2.7114570    -0.4276410     0.0208990
  C        1.8666300     1.8964630     0.4257140
  C       -3.1904980     0.5035560    -0.1598940
  C       -2.0503370    -1.5461500     0.5645390
  C        2.1210610    -1.6392390    -0.2794470
  H        3.5512192    -0.1894568     0.1413245
  H        1.1394670     2.2188990     1.1681400
  H        2.8785810     2.0278530     0.8121890
  H        1.7220340     2.4842350    -0.4794890
  H       -3.8467550    -0.1153850    -0.7799180
  H       -2.9915450     1.4520350    -0.6543500
  H       -3.6876690     0.6913720     0.7990550
  H       -1.0742680    -1.9474190     0.8155770
  H       -2.5092790    -2.1983750    -0.1864030
  H       -2.6938370    -1.5270200     1.4518100
  H        2.6051200    -2.5920870    -0.4498700
units angstrom
no_reorient  #important for SAPT in psi4, default
symmetry c1  #important for SAPT in psi4, default
}

set PROPERTIES_ORIGIN ["COM"]
properties('MP2/aug-cc-pvtz', properties = ['dipole'])
--------------------------------------------------------------------------

    Molecular point group: c1
  Charge       = 0
  Multiplicity = 1
  Basis Set: AUG-CC-PVTZ
    Blend: AUG-CC-PVTZ
  Basis Set: (AUG-CC-PVTZ AUX)
    Blend: AUG-CC-PVTZ-JKFIT

    Orbital Energies [Eh]
    ---------------------

    Doubly Occupied:

       1A    -20.517693     2A    -15.632823     3A    -15.592027
       4A    -15.560724     5A    -11.362911     6A    -11.305010
       7A    -11.272341     8A    -11.255268     9A    -11.252797
      10A    -11.251096    11A    -11.246625    12A     -1.380435
      13A     -1.341696    14A     -1.245463    15A     -1.188838
      16A     -1.040103    17A     -0.977591    18A     -0.967073
      19A     -0.941800    20A     -0.841086    21A     -0.828303
      22A     -0.741625    23A     -0.720051    24A     -0.672127
      25A     -0.656429    26A     -0.653949    27A     -0.640085
      28A     -0.613417    29A     -0.594872    30A     -0.574395
      31A     -0.564657    32A     -0.557040    33A     -0.554751
      34A     -0.552985    35A     -0.527227    36A     -0.522946
      37A     -0.450822    38A     -0.428888    39A     -0.390925
      40A     -0.373110    41A     -0.320692

  @DF-RHF Final Energy:  -509.82424463121157

   => Energetics <=

    Nuclear Repulsion Energy =            630.2261221447261050
    One-Electron Energy =               -1943.8753440221387336
    Two-Electron Energy =                 803.8249772462011151
    Total Energy =                       -509.8242446312115135
  Basis Set: (AUG-CC-PVTZ AUX)
    Blend: AUG-CC-PVTZ-RI
    Molecular point group: c1

    Geometry (in Angstrom), charge = 0, multiplicity = 1:

       Center              X                  Y                   Z               Mass
    ------------   -----------------  -----------------  -----------------  -----------------
         O           -0.796432440775     1.723654476324    -0.418046810500    15.994914619570
         N            1.656954559225     0.477509476324     0.156303189500    14.003074004430
         N           -1.958530440775    -0.188818523676     0.062838189500    14.003074004430
         N            0.734583559225    -1.506101523676    -0.330330810500    14.003074004430
         C            0.488897559225    -0.213335523676    -0.064836810500    12.000000000000
         C           -0.804964440775     0.507544476324    -0.144895810500    12.000000000000
         C            2.682109559225    -0.424878523676     0.038342189500    12.000000000000
         C            1.837282559225     1.899225476324     0.443157189500    12.000000000000
         C           -3.219845440775     0.506318476324    -0.142450810500    12.000000000000
         C           -2.079684440775    -1.543387523676     0.581982189500    12.000000000000
         C            2.091713559225    -1.636476523676    -0.262003810500    12.000000000000
         H            3.521871759225    -0.186694323676     0.158767689500     1.007825032230
         H            1.110119559225     2.221661476324     1.185583189500     1.007825032230
         H            2.849233559225     2.030615476324     0.829632189500     1.007825032230
         H            1.692686559225     2.486997476324    -0.462045810500     1.007825032230
         H           -3.876102440775    -0.112622523676    -0.762474810500     1.007825032230
         H           -3.020892440775     1.454797476324    -0.636906810500     1.007825032230
         H           -3.717016440775     0.694134476324     0.816498189500     1.007825032230
         H           -1.103615440775    -1.944656523676     0.833020189500     1.007825032230
         H           -2.538626440775    -2.195612523676    -0.168959810500     1.007825032230
         H           -2.723184440775    -1.524257523676     1.469253189500     1.007825032230
         H            2.575772559225    -2.589324523676    -0.432426810500     1.007825032230

  Basis Set: AUG-CC-PVTZ
    Blend: AUG-CC-PVTZ
  Basis Set: (AUG-CC-PVTZ AUX)
    Blend: AUG-CC-PVTZ-JKFIT
	 Reference Energy          =    -509.8242446312115703 [Eh]
	 Singles Energy            =      -0.0000000000000000 [Eh]
	 Same-Spin Energy          =      -0.5436526944769525 [Eh]
	 Opposite-Spin Energy      =      -1.6948998849589874 [Eh]
	 Correlation Energy        =      -2.2385525794359400 [Eh]
	 Total Energy              =    -512.0627972106475454 [Eh]

	 ================> DF-SCS-MP2 Energies <==================
	-----------------------------------------------------------
	 SCS Same-Spin Scale       =       0.3333333333333333 [-]
	 SCS Opposite-Spin Scale   =       1.2000000000000000 [-]
	 SCS Same-Spin Energy      =      -0.1812175648256508 [Eh]
	 SCS Opposite-Spin Energy  =      -2.0338798619507847 [Eh]
	 SCS Correlation Energy    =      -2.2150974267764356 [Eh]
	 SCS Total Energy          =    -512.0393420579880512 [Eh]
	-----------------------------------------------------------

  Dipole Moment: [D]
     X:     0.7217      Y:    -0.0039      Z:     1.7162     Total:     1.8618

*** Psi4 exiting successfully. Buy a developer a beer!
