                               Psi4 1.3.2 release

  ==> Input File <==

--------------------------------------------------------------------------
#psi4
#
memory 32 gb

molecule  {
0 1
  O       -0.7670850     1.7208920    -0.4354900
  N        1.6863020     0.4747470     0.1388600
  N       -1.9291830    -0.1915810     0.0453950
  N        0.7639310    -1.5088640    -0.3477740
  C        0.5182450    -0.2160980    -0.0822800
  C       -0.7756170     0.5047820    -0.1623390
  C        2.7722234    -0.3558092     0.0382981
  C        1.8666300     1.8964630     0.4257140
  C       -3.1904980     0.5035560    -0.1598940
  C       -2.0503370    -1.5461500     0.5645390
  C        2.1210610    -1.6392390    -0.2794470
  H        3.7418240    -0.1353950     0.1686580
  H        1.1394670     2.2188990     1.1681400
  H        2.8785810     2.0278530     0.8121890
  H        1.7220340     2.4842350    -0.4794890
  H       -3.8467550    -0.1153850    -0.7799180
  H       -2.9915450     1.4520350    -0.6543500
  H       -3.6876690     0.6913720     0.7990550
  H       -1.0742680    -1.9474190     0.8155770
  H       -2.5092790    -2.1983750    -0.1864030
  H       -2.6938370    -1.5270200     1.4518100
  H        2.6051200    -2.5920870    -0.4498700
units angstrom
no_reorient  #important for SAPT in psi4, default
symmetry c1  #important for SAPT in psi4, default
}

set PROPERTIES_ORIGIN ["COM"]
properties('MP2/aug-cc-pvtz', properties = ['dipole'])
--------------------------------------------------------------------------

    Molecular point group: c1
  Charge       = 0
  Multiplicity = 1
  Basis Set: AUG-CC-PVTZ
    Blend: AUG-CC-PVTZ
  Basis Set: (AUG-CC-PVTZ AUX)
    Blend: AUG-CC-PVTZ-JKFIT

    Orbital Energies [Eh]
    ---------------------

    Doubly Occupied:

       1A    -20.516782     2A    -15.641133     3A    -15.591853
       4A    -15.566024     5A    -11.363043     6A    -11.304791
       7A    -11.274430     8A    -11.271197     9A    -11.263428
      10A    -11.255723    11A    -11.252753    12A     -1.379710
      13A     -1.339044    14A     -1.245445    15A     -1.191624
      16A     -1.025563    17A     -0.975933    18A     -0.966801
      19A     -0.938460    20A     -0.828432    21A     -0.821140
      22A     -0.739718    23A     -0.711919    24A     -0.670445
      25A     -0.656441    26A     -0.653338    27A     -0.639986
      28A     -0.612426    29A     -0.584894    30A     -0.574510
      31A     -0.563819    32A     -0.554129    33A     -0.553754
      34A     -0.550321    35A     -0.526919    36A     -0.521152
      37A     -0.451002    38A     -0.428741    39A     -0.395422
      40A     -0.373077    41A     -0.308718

  @DF-RHF Final Energy:  -509.84312448037139

   => Energetics <=

    Nuclear Repulsion Energy =            627.6509135611272541
    One-Electron Energy =               -1938.8199964304674268
    Two-Electron Energy =                 801.3259583889688429
    Total Energy =                       -509.8431244803713298
  Basis Set: (AUG-CC-PVTZ AUX)
    Blend: AUG-CC-PVTZ-RI
    Molecular point group: c1

    Geometry (in Angstrom), charge = 0, multiplicity = 1:

       Center              X                  Y                   Z               Mass
    ------------   -----------------  -----------------  -----------------  -----------------
         O           -0.802450415907     1.717668029357    -0.419590583825    15.994914619570
         N            1.650936584093     0.471523029357     0.154759416175    14.003074004430
         N           -1.964548415907    -0.194804970643     0.061294416175    14.003074004430
         N            0.728565584093    -1.512087970643    -0.331874583825    14.003074004430
         C            0.482879584093    -0.219321970643    -0.066380583825    12.000000000000
         C           -0.810982415907     0.501558029357    -0.146439583825    12.000000000000
         C            2.736857984093    -0.359033170643     0.054197516175    12.000000000000
         C            1.831264584093     1.893239029357     0.441613416175    12.000000000000
         C           -3.225863415907     0.500332029357    -0.143994583825    12.000000000000
         C           -2.085702415907    -1.549373970643     0.580438416175    12.000000000000
         C            2.085695584093    -1.642462970643    -0.263547583825    12.000000000000
         H            3.706458584093    -0.138618970643     0.184557416175     1.007825032230
         H            1.104101584093     2.215675029357     1.184039416175     1.007825032230
         H            2.843215584093     2.024629029357     0.828088416175     1.007825032230
         H            1.686668584093     2.481011029357    -0.463589583825     1.007825032230
         H           -3.882120415907    -0.118608970643    -0.764018583825     1.007825032230
         H           -3.026910415907     1.448811029357    -0.638450583825     1.007825032230
         H           -3.723034415907     0.688148029357     0.814954416175     1.007825032230
         H           -1.109633415907    -1.950642970643     0.831476416175     1.007825032230
         H           -2.544644415907    -2.201598970643    -0.170503583825     1.007825032230
         H           -2.729202415907    -1.530243970643     1.467709416175     1.007825032230
         H            2.569754584093    -2.595310970643    -0.433970583825     1.007825032230

  Basis Set: AUG-CC-PVTZ
    Blend: AUG-CC-PVTZ
  Basis Set: (AUG-CC-PVTZ AUX)
    Blend: AUG-CC-PVTZ-JKFIT
	 Reference Energy          =    -509.8431244803713867 [Eh]
	 Singles Energy            =      -0.0000000000000000 [Eh]
	 Same-Spin Energy          =      -0.5454254519039320 [Eh]
	 Opposite-Spin Energy      =      -1.6983632694126545 [Eh]
	 Correlation Energy        =      -2.2437887213165864 [Eh]
	 Total Energy              =    -512.0869132016879348 [Eh]

	 ================> DF-SCS-MP2 Energies <==================
	-----------------------------------------------------------
	 SCS Same-Spin Scale       =       0.3333333333333333 [-]
	 SCS Opposite-Spin Scale   =       1.2000000000000000 [-]
	 SCS Same-Spin Energy      =      -0.1818084839679773 [Eh]
	 SCS Opposite-Spin Energy  =      -2.0380359232951855 [Eh]
	 SCS Correlation Energy    =      -2.2198444072631629 [Eh]
	 SCS Total Energy          =    -512.0629688876344972 [Eh]
	-----------------------------------------------------------

  Dipole Moment: [D]
     X:     0.7216      Y:    -0.0062      Z:     1.7191     Total:     1.8644

*** Psi4 exiting successfully. Buy a developer a beer!
