                               Psi4 1.4a3.dev225

  ==> Input File <==

--------------------------------------------------------------------------
#psi4
#
memory 32 gb

molecule  {
0 1
  O       -0.7670850     1.7208920    -0.4354900
  N        1.6863020     0.4747470     0.1388600
  N       -1.9291830    -0.1915810     0.0453950
  N        0.7639310    -1.5088640    -0.3477740
  C        0.5182450    -0.2160980    -0.0822800
  C       -0.7756170     0.5047820    -0.1623390
  C        2.7114570    -0.4276410     0.0208990
  C        1.8666300     1.8964630     0.4257140
  C       -3.1904980     0.5035560    -0.1598940
  C       -2.0503370    -1.5461500     0.5645390
  C        2.1210610    -1.6392390    -0.2794470
  H        3.7894752    -0.1218795     0.1754914
  H        1.1394670     2.2188990     1.1681400
  H        2.8785810     2.0278530     0.8121890
  H        1.7220340     2.4842350    -0.4794890
  H       -3.8467550    -0.1153850    -0.7799180
  H       -2.9915450     1.4520350    -0.6543500
  H       -3.6876690     0.6913720     0.7990550
  H       -1.0742680    -1.9474190     0.8155770
  H       -2.5092790    -2.1983750    -0.1864030
  H       -2.6938370    -1.5270200     1.4518100
  H        2.6051200    -2.5920870    -0.4498700
units angstrom
no_reorient  #important for SAPT in psi4, default
symmetry c1  #important for SAPT in psi4, default
}

set PROPERTIES_ORIGIN ["COM"]
properties('MP2/aug-cc-pvtz', properties = ['dipole'])
--------------------------------------------------------------------------

    Molecular point group: c1
  Charge       = 0
  Multiplicity = 1
  Basis Set: AUG-CC-PVTZ
    Blend: AUG-CC-PVTZ
  Basis Set: (AUG-CC-PVTZ AUX)
    Blend: AUG-CC-PVTZ-JKFIT

    Orbital Energies [Eh]
    ---------------------

    Doubly Occupied:

       1A    -20.517740     2A    -15.634159     3A    -15.592151
       4A    -15.561892     5A    -11.363147     6A    -11.305641
       7A    -11.274747     8A    -11.271932     9A    -11.255412
      10A    -11.252881    11A    -11.251683    12A     -1.380660
      13A     -1.342242    14A     -1.245577    15A     -1.188892
      16A     -1.030955    17A     -0.976522    18A     -0.966673
      19A     -0.938419    20A     -0.831849    21A     -0.806655
      22A     -0.742045    23A     -0.708104    24A     -0.661754
      25A     -0.655369    26A     -0.642832    27A     -0.639669
      28A     -0.603240    29A     -0.590172    30A     -0.574320
      31A     -0.563379    32A     -0.557063    33A     -0.554897
      34A     -0.553103    35A     -0.527351    36A     -0.522978
      37A     -0.450713    38A     -0.428903    39A     -0.391682
      40A     -0.373221    41A     -0.320724

  @DF-RHF Final Energy:  -509.85784033454826

   => Energetics <=

    Nuclear Repulsion Energy =            628.7236324442694695
    One-Electron Energy =               -1941.0602532735090335
    Two-Electron Energy =                 802.4787804946913639
    Total Energy =                       -509.8578403345482002
  Basis Set: (AUG-CC-PVTZ AUX)
    Blend: AUG-CC-PVTZ-RI
    Molecular point group: c1

    Geometry (in Angstrom), charge = 0, multiplicity = 1:

       Center              X                  Y                   Z               Mass
    ------------   -----------------  -----------------  -----------------  -----------------
         O           -0.798000930085     1.723209600759    -0.418271738382    15.994914619570
         N            1.655386069915     0.477064600759     0.156078261618    14.003074004430
         N           -1.960098930085    -0.189263399241     0.062613261618    14.003074004430
         N            0.733015069915    -1.506546399241    -0.330555738382    14.003074004430
         C            0.487329069915    -0.213780399241    -0.065061738382    12.000000000000
         C           -0.806532930085     0.507099600759    -0.145120738382    12.000000000000
         C            2.680541069915    -0.425323399241     0.038117261618    12.000000000000
         C            1.835714069915     1.898780600759     0.442932261618    12.000000000000
         C           -3.221413930085     0.505873600759    -0.142675738382    12.000000000000
         C           -2.081252930085    -1.543832399241     0.581757261618    12.000000000000
         C            2.090145069915    -1.636921399241    -0.262228738382    12.000000000000
         H            3.758559269915    -0.119561899241     0.192709661618     1.007825032230
         H            1.108551069915     2.221216600759     1.185358261618     1.007825032230
         H            2.847665069915     2.030170600759     0.829407261618     1.007825032230
         H            1.691118069915     2.486552600759    -0.462270738382     1.007825032230
         H           -3.877670930085    -0.113067399241    -0.762699738382     1.007825032230
         H           -3.022460930085     1.454352600759    -0.637131738382     1.007825032230
         H           -3.718584930085     0.693689600759     0.816273261618     1.007825032230
         H           -1.105183930085    -1.945101399241     0.832795261618     1.007825032230
         H           -2.540194930085    -2.196057399241    -0.169184738382     1.007825032230
         H           -2.724752930085    -1.524702399241     1.469028261618     1.007825032230
         H            2.574204069915    -2.589769399241    -0.432651738382     1.007825032230

  Basis Set: AUG-CC-PVTZ
    Blend: AUG-CC-PVTZ
  Basis Set: (AUG-CC-PVTZ AUX)
    Blend: AUG-CC-PVTZ-JKFIT
	 Reference Energy          =    -509.8578403345482570 [Eh]
	 Singles Energy            =      -0.0000000000000000 [Eh]
	 Same-Spin Energy          =      -0.5440888116556009 [Eh]
	 Opposite-Spin Energy      =      -1.6959364973533131 [Eh]
	 Correlation Energy        =      -2.2400253090089137 [Eh]
	 Total Energy              =    -512.0978656435571565 [Eh]

	 ================> DF-SCS-MP2 Energies <==================
	-----------------------------------------------------------
	 SCS Same-Spin Scale       =       0.3333333333333333 [-]
	 SCS Opposite-Spin Scale   =       1.2000000000000000 [-]
	 SCS Same-Spin Energy      =      -0.1813629372185336 [Eh]
	 SCS Opposite-Spin Energy  =      -2.0351237968239757 [Eh]
	 SCS Correlation Energy    =      -2.2164867340425092 [Eh]
	 SCS Total Energy          =    -512.0743270685907191 [Eh]
	-----------------------------------------------------------

  Dipole Moment: [D]
     X:     0.7428      Y:    -0.0035      Z:     1.7173     Total:     1.8710

*** Psi4 exiting successfully. Buy a developer a beer!
