                               Psi4 1.4a3.dev225

  ==> Input File <==

--------------------------------------------------------------------------
#psi4
#
memory 32 gb

molecule  {
0 1
  O       -0.7670850     1.7208920    -0.4354900
  N        1.6863020     0.4747470     0.1388600
  N       -1.9291830    -0.1915810     0.0453950
  N        0.7639310    -1.5088640    -0.3477740
  C        0.5182450    -0.2160980    -0.0822800
  C       -0.7756170     0.5047820    -0.1623390
  C        2.7114570    -0.4276410     0.0208990
  C        1.8666300     1.8964630     0.4257140
  C       -3.1904980     0.5035560    -0.1598940
  C       -2.0503370    -1.5461500     0.5645390
  C        2.1125098    -1.6567876    -0.2837972
  H        3.7418240    -0.1353950     0.1686580
  H        1.1394670     2.2188990     1.1681400
  H        2.8785810     2.0278530     0.8121890
  H        1.7220340     2.4842350    -0.4794890
  H       -3.8467550    -0.1153850    -0.7799180
  H       -2.9915450     1.4520350    -0.6543500
  H       -3.6876690     0.6913720     0.7990550
  H       -1.0742680    -1.9474190     0.8155770
  H       -2.5092790    -2.1983750    -0.1864030
  H       -2.6938370    -1.5270200     1.4518100
  H        2.6051200    -2.5920870    -0.4498700
units angstrom
no_reorient  #important for SAPT in psi4, default
symmetry c1  #important for SAPT in psi4, default
}

set PROPERTIES_ORIGIN ["COM"]
properties('MP2/aug-cc-pvtz', properties = ['dipole'])
--------------------------------------------------------------------------

    Molecular point group: c1
  Charge       = 0
  Multiplicity = 1
  Basis Set: AUG-CC-PVTZ
    Blend: AUG-CC-PVTZ
  Basis Set: (AUG-CC-PVTZ AUX)
    Blend: AUG-CC-PVTZ-JKFIT

    Orbital Energies [Eh]
    ---------------------

    Doubly Occupied:

       1A    -20.517126     2A    -15.635542     3A    -15.591617
       4A    -15.561786     5A    -11.362644     6A    -11.304425
       7A    -11.272494     8A    -11.271698     9A    -11.255116
      10A    -11.252867    11A    -11.252548    12A     -1.380126
      13A     -1.341610    14A     -1.245141    15A     -1.190464
      16A     -1.029554    17A     -0.977139    18A     -0.966379
      19A     -0.938380    20A     -0.831076    21A     -0.812304
      22A     -0.741926    23A     -0.709348    24A     -0.662527
      25A     -0.655609    26A     -0.645580    27A     -0.639842
      28A     -0.609798    29A     -0.590872    30A     -0.574525
      31A     -0.565272    32A     -0.557264    33A     -0.554717
      34A     -0.552871    35A     -0.527084    36A     -0.522437
      37A     -0.449287    38A     -0.428157    39A     -0.393148
      40A     -0.372868    41A     -0.317253

  @DF-RHF Final Energy:  -509.85944181872065

   => Energetics <=

    Nuclear Repulsion Energy =            628.7640695961172241
    One-Electron Energy =               -1941.1261848677811486
    Two-Electron Energy =                 802.5026734529432133
    Total Energy =                       -509.8594418187207111
  Basis Set: (AUG-CC-PVTZ AUX)
    Blend: AUG-CC-PVTZ-RI
    Molecular point group: c1

    Geometry (in Angstrom), charge = 0, multiplicity = 1:

       Center              X                  Y                   Z               Mass
    ------------   -----------------  -----------------  -----------------  -----------------
         O           -0.797016945085     1.724674125867    -0.417885761573    15.994914619570
         N            1.656370054915     0.478529125867     0.156464238427    14.003074004430
         N           -1.959114945085    -0.187798874133     0.062999238427    14.003074004430
         N            0.733999054915    -1.505081874133    -0.330169761573    14.003074004430
         C            0.488313054915    -0.212315874133    -0.064675761573    12.000000000000
         C           -0.805548945085     0.508564125867    -0.144734761573    12.000000000000
         C            2.681525054915    -0.423858874133     0.038503238427    12.000000000000
         C            1.836698054915     1.900245125867     0.443318238427    12.000000000000
         C           -3.220429945085     0.507338125867    -0.142289761573    12.000000000000
         C           -2.080268945085    -1.542367874133     0.582143238427    12.000000000000
         C            2.082577854915    -1.653005474133    -0.266192961573    12.000000000000
         H            3.711892054915    -0.131612874133     0.186262238427     1.007825032230
         H            1.109535054915     2.222681125867     1.185744238427     1.007825032230
         H            2.848649054915     2.031635125867     0.829793238427     1.007825032230
         H            1.692102054915     2.488017125867    -0.461884761573     1.007825032230
         H           -3.876686945085    -0.111602874133    -0.762313761573     1.007825032230
         H           -3.021476945085     1.455817125867    -0.636745761573     1.007825032230
         H           -3.717600945085     0.695154125867     0.816659238427     1.007825032230
         H           -1.104199945085    -1.943636874133     0.833181238427     1.007825032230
         H           -2.539210945085    -2.194592874133    -0.168798761573     1.007825032230
         H           -2.723768945085    -1.523237874133     1.469414238427     1.007825032230
         H            2.575188054915    -2.588304874133    -0.432265761573     1.007825032230

  Basis Set: AUG-CC-PVTZ
    Blend: AUG-CC-PVTZ
  Basis Set: (AUG-CC-PVTZ AUX)
    Blend: AUG-CC-PVTZ-JKFIT
	 Reference Energy          =    -509.8594418187206543 [Eh]
	 Singles Energy            =      -0.0000000000000000 [Eh]
	 Same-Spin Energy          =      -0.5442150589960104 [Eh]
	 Opposite-Spin Energy      =      -1.6957997781024310 [Eh]
	 Correlation Energy        =      -2.2400148370984416 [Eh]
	 Total Energy              =    -512.0994566558190400 [Eh]

	 ================> DF-SCS-MP2 Energies <==================
	-----------------------------------------------------------
	 SCS Same-Spin Scale       =       0.3333333333333333 [-]
	 SCS Opposite-Spin Scale   =       1.2000000000000000 [-]
	 SCS Same-Spin Energy      =      -0.1814050196653368 [Eh]
	 SCS Opposite-Spin Energy  =      -2.0349597337229173 [Eh]
	 SCS Correlation Energy    =      -2.2163647533882540 [Eh]
	 SCS Total Energy          =    -512.0758065721089451 [Eh]
	-----------------------------------------------------------

  Dipole Moment: [D]
     X:     0.7571      Y:    -0.0187      Z:     1.7135     Total:     1.8734

*** Psi4 exiting successfully. Buy a developer a beer!
