                               Psi4 1.4a3.dev225

  ==> Input File <==

--------------------------------------------------------------------------
#psi4
#
memory 32 gb

molecule  {
0 1
  O       -0.7670850     1.7208920    -0.4354900
  N        1.6863020     0.4747470     0.1388600
  N       -1.9291830    -0.1915810     0.0453950
  N        0.7639310    -1.5088640    -0.3477740
  C        0.5182450    -0.2160980    -0.0822800
  C       -0.7756170     0.5047820    -0.1623390
  C        2.7114570    -0.4276410     0.0208990
  C        1.8641623     1.8770079     0.4217886
  C       -3.1904980     0.5035560    -0.1598940
  C       -2.0503370    -1.5461500     0.5645390
  C        2.1210610    -1.6392390    -0.2794470
  H        3.7418240    -0.1353950     0.1686580
  H        1.1394670     2.2188990     1.1681400
  H        2.8785810     2.0278530     0.8121890
  H        1.7220340     2.4842350    -0.4794890
  H       -3.8467550    -0.1153850    -0.7799180
  H       -2.9915450     1.4520350    -0.6543500
  H       -3.6876690     0.6913720     0.7990550
  H       -1.0742680    -1.9474190     0.8155770
  H       -2.5092790    -2.1983750    -0.1864030
  H       -2.6938370    -1.5270200     1.4518100
  H        2.6051200    -2.5920870    -0.4498700
units angstrom
no_reorient  #important for SAPT in psi4, default
symmetry c1  #important for SAPT in psi4, default
}

set PROPERTIES_ORIGIN ["COM"]
properties('MP2/aug-cc-pvtz', properties = ['dipole'])
--------------------------------------------------------------------------

    Molecular point group: c1
  Charge       = 0
  Multiplicity = 1
  Basis Set: AUG-CC-PVTZ
    Blend: AUG-CC-PVTZ
  Basis Set: (AUG-CC-PVTZ AUX)
    Blend: AUG-CC-PVTZ-JKFIT

    Orbital Energies [Eh]
    ---------------------

    Doubly Occupied:

       1A    -20.517894     2A    -15.634379     3A    -15.592291
       4A    -15.562311     5A    -11.363345     6A    -11.306233
       7A    -11.271420     8A    -11.269994     9A    -11.255568
      10A    -11.252974    11A    -11.252062    12A     -1.381200
      13A     -1.343985    14A     -1.245793    15A     -1.191872
      16A     -1.032892    17A     -0.976524    18A     -0.966874
      19A     -0.938869    20A     -0.832529    21A     -0.811876
      22A     -0.743552    23A     -0.710464    24A     -0.663369
      25A     -0.655947    26A     -0.646446    27A     -0.640409
      28A     -0.605325    29A     -0.595784    30A     -0.574382
      31A     -0.562014    32A     -0.556490    33A     -0.553739
      34A     -0.551693    35A     -0.527137    36A     -0.522702
      37A     -0.451320    38A     -0.428863    39A     -0.391206
      40A     -0.373304    41A     -0.321252

  @DF-RHF Final Energy:  -509.86000255616813

   => Energetics <=

    Nuclear Repulsion Energy =            629.3991540955533992
    One-Electron Energy =               -1942.3657474636388542
    Two-Electron Energy =                 803.1065908119171581
    Total Energy =                       -509.8600025561681832
  Basis Set: (AUG-CC-PVTZ AUX)
    Blend: AUG-CC-PVTZ-RI
    Molecular point group: c1

    Geometry (in Angstrom), charge = 0, multiplicity = 1:

       Center              X                  Y                   Z               Mass
    ------------   -----------------  -----------------  -----------------  -----------------
         O           -0.797493801176     1.724823567165    -0.417919059586    15.994914619570
         N            1.655893198824     0.478678567165     0.156430940414    14.003074004430
         N           -1.959591801176    -0.187649432835     0.062965940414    14.003074004430
         N            0.733522198824    -1.504932432835    -0.330203059586    14.003074004430
         C            0.487836198824    -0.212166432835    -0.064709059586    12.000000000000
         C           -0.806025801176     0.508713567165    -0.144768059586    12.000000000000
         C            2.681048198824    -0.423709432835     0.038469940414    12.000000000000
         C            1.833753498824     1.880939467165     0.439359540414    12.000000000000
         C           -3.220906801176     0.507487567165    -0.142323059586    12.000000000000
         C           -2.080745801176    -1.542218432835     0.582109940414    12.000000000000
         C            2.090652198824    -1.635307432835    -0.261876059586    12.000000000000
         H            3.711415198824    -0.131463432835     0.186228940414     1.007825032230
         H            1.109058198824     2.222830567165     1.185710940414     1.007825032230
         H            2.848172198824     2.031784567165     0.829759940414     1.007825032230
         H            1.691625198824     2.488166567165    -0.461918059586     1.007825032230
         H           -3.877163801176    -0.111453432835    -0.762347059586     1.007825032230
         H           -3.021953801176     1.455966567165    -0.636779059586     1.007825032230
         H           -3.718077801176     0.695303567165     0.816625940414     1.007825032230
         H           -1.104676801176    -1.943487432835     0.833147940414     1.007825032230
         H           -2.539687801176    -2.194443432835    -0.168832059586     1.007825032230
         H           -2.724245801176    -1.523088432835     1.469380940414     1.007825032230
         H            2.574711198824    -2.588155432835    -0.432299059586     1.007825032230

  Basis Set: AUG-CC-PVTZ
    Blend: AUG-CC-PVTZ
  Basis Set: (AUG-CC-PVTZ AUX)
    Blend: AUG-CC-PVTZ-JKFIT
	 Reference Energy          =    -509.8600025561681264 [Eh]
	 Singles Energy            =      -0.0000000000000000 [Eh]
	 Same-Spin Energy          =      -0.5440836957383736 [Eh]
	 Opposite-Spin Energy      =      -1.6955695491947305 [Eh]
	 Correlation Energy        =      -2.2396532449331041 [Eh]
	 Total Energy              =    -512.0996558011012212 [Eh]

	 ================> DF-SCS-MP2 Energies <==================
	-----------------------------------------------------------
	 SCS Same-Spin Scale       =       0.3333333333333333 [-]
	 SCS Opposite-Spin Scale   =       1.2000000000000000 [-]
	 SCS Same-Spin Energy      =      -0.1813612319127912 [Eh]
	 SCS Opposite-Spin Energy  =      -2.0346834590336766 [Eh]
	 SCS Correlation Energy    =      -2.2160446909464677 [Eh]
	 SCS Total Energy          =    -512.0760472471146159 [Eh]
	-----------------------------------------------------------

  Dipole Moment: [D]
     X:     0.7293      Y:    -0.0527      Z:     1.7067     Total:     1.8567

*** Psi4 exiting successfully. Buy a developer a beer!
