                               Psi4 1.3.2 release

  ==> Input File <==

--------------------------------------------------------------------------
#psi4
#
memory 32 gb

molecule  {
0 1
  O       -0.7670850     1.7208920    -0.4354900
  N        1.6863020     0.4747470     0.1388600
  N       -1.9291830    -0.1915810     0.0453950
  N        0.7639310    -1.5088640    -0.3477740
  C        0.4332932    -0.2663426    -0.0983633
  C       -0.7756170     0.5047820    -0.1623390
  C        2.7114570    -0.4276410     0.0208990
  C        1.8666300     1.8964630     0.4257140
  C       -3.1904980     0.5035560    -0.1598940
  C       -2.0503370    -1.5461500     0.5645390
  C        2.1210610    -1.6392390    -0.2794470
  H        3.7418240    -0.1353950     0.1686580
  H        1.1394670     2.2188990     1.1681400
  H        2.8785810     2.0278530     0.8121890
  H        1.7220340     2.4842350    -0.4794890
  H       -3.8467550    -0.1153850    -0.7799180
  H       -2.9915450     1.4520350    -0.6543500
  H       -3.6876690     0.6913720     0.7990550
  H       -1.0742680    -1.9474190     0.8155770
  H       -2.5092790    -2.1983750    -0.1864030
  H       -2.6938370    -1.5270200     1.4518100
  H        2.6051200    -2.5920870    -0.4498700
units angstrom
no_reorient  #important for SAPT in psi4, default
symmetry c1  #important for SAPT in psi4, default
}

set PROPERTIES_ORIGIN ["COM"]
properties('MP2/aug-cc-pvtz', properties = ['dipole'])
--------------------------------------------------------------------------

    Molecular point group: c1
  Charge       = 0
  Multiplicity = 1
  Basis Set: AUG-CC-PVTZ
    Blend: AUG-CC-PVTZ
  Basis Set: (AUG-CC-PVTZ AUX)
    Blend: AUG-CC-PVTZ-JKFIT

    Orbital Energies [Eh]
    ---------------------

    Doubly Occupied:

       1A    -20.518537     2A    -15.626289     3A    -15.591043
       4A    -15.569030     5A    -11.361318     6A    -11.307184
       7A    -11.277523     8A    -11.266085     9A    -11.256919
      10A    -11.252299    11A    -11.250674    12A     -1.379417
      13A     -1.328286    14A     -1.246814    15A     -1.188951
      16A     -1.038195    17A     -0.975137    18A     -0.966805
      19A     -0.933062    20A     -0.840355    21A     -0.806078
      22A     -0.739480    23A     -0.707627    24A     -0.662638
      25A     -0.656015    26A     -0.649276    27A     -0.632413
      28A     -0.607274    29A     -0.588605    30A     -0.574618
      31A     -0.560427    32A     -0.557526    33A     -0.554352
      34A     -0.553104    35A     -0.526771    36A     -0.521660
      37A     -0.451220    38A     -0.428446    39A     -0.393639
      40A     -0.373670    41A     -0.318392

  @DF-RHF Final Energy:  -509.84623144765612

   => Energetics <=

    Nuclear Repulsion Energy =            628.7097120988765937
    One-Electron Energy =               -1941.0375789751024058
    Two-Electron Energy =                 802.4816354285698026
    Total Energy =                       -509.8462314476561232
  Basis Set: (AUG-CC-PVTZ AUX)
    Blend: AUG-CC-PVTZ-RI
    Molecular point group: c1

    Geometry (in Angstrom), charge = 0, multiplicity = 1:

       Center              X                  Y                   Z               Mass
    ------------   -----------------  -----------------  -----------------  -----------------
         O           -0.791028272210     1.727237006896    -0.416966060710    15.994914619570
         N            1.662358727790     0.481092006896     0.157383939290    14.003074004430
         N           -1.953126272210    -0.185235993104     0.063918939290    14.003074004430
         N            0.739987727790    -1.502518993104    -0.329250060710    14.003074004430
         C            0.409349927790    -0.259997593104    -0.079839360710    12.000000000000
         C           -0.799560272210     0.511127006896    -0.143815060710    12.000000000000
         C            2.687513727790    -0.421295993104     0.039422939290    12.000000000000
         C            1.842686727790     1.902808006896     0.444237939290    12.000000000000
         C           -3.214441272210     0.509901006896    -0.141370060710    12.000000000000
         C           -2.074280272210    -1.539804993104     0.583062939290    12.000000000000
         C            2.097117727790    -1.632893993104    -0.260923060710    12.000000000000
         H            3.717880727790    -0.129049993104     0.187181939290     1.007825032230
         H            1.115523727790     2.225244006896     1.186663939290     1.007825032230
         H            2.854637727790     2.034198006896     0.830712939290     1.007825032230
         H            1.698090727790     2.490580006896    -0.460965060710     1.007825032230
         H           -3.870698272210    -0.109039993104    -0.761394060710     1.007825032230
         H           -3.015488272210     1.458380006896    -0.635826060710     1.007825032230
         H           -3.711612272210     0.697717006896     0.817578939290     1.007825032230
         H           -1.098211272210    -1.941073993104     0.834100939290     1.007825032230
         H           -2.533222272210    -2.192029993104    -0.167879060710     1.007825032230
         H           -2.717780272210    -1.520674993104     1.470333939290     1.007825032230
         H            2.581176727790    -2.585741993104    -0.431346060710     1.007825032230

  Basis Set: AUG-CC-PVTZ
    Blend: AUG-CC-PVTZ
  Basis Set: (AUG-CC-PVTZ AUX)
    Blend: AUG-CC-PVTZ-JKFIT
	 Reference Energy          =    -509.8462314476561232 [Eh]
	 Singles Energy            =      -0.0000000000000000 [Eh]
	 Same-Spin Energy          =      -0.5453644566821483 [Eh]
	 Opposite-Spin Energy      =      -1.6980203361007218 [Eh]
	 Correlation Energy        =      -2.2433847927828703 [Eh]
	 Total Energy              =    -512.0896162404389997 [Eh]

	 ================> DF-SCS-MP2 Energies <==================
	-----------------------------------------------------------
	 SCS Same-Spin Scale       =       0.3333333333333333 [-]
	 SCS Opposite-Spin Scale   =       1.2000000000000000 [-]
	 SCS Same-Spin Energy      =      -0.1817881522273828 [Eh]
	 SCS Opposite-Spin Energy  =      -2.0376244033208661 [Eh]
	 SCS Correlation Energy    =      -2.2194125555482489 [Eh]
	 SCS Total Energy          =    -512.0656440032043974 [Eh]
	-----------------------------------------------------------

  Dipole Moment: [D]
     X:     0.6934      Y:    -0.2073      Z:     1.6605     Total:     1.8114

*** Psi4 exiting successfully. Buy a developer a beer!
