                               Psi4 1.3.2 release

  ==> Input File <==

--------------------------------------------------------------------------
#psi4
#
memory 32 gb

molecule  {
0 1
  O       -0.7670850     1.7208920    -0.4354900
  N        1.6061370     0.5942267     0.1422011
  N       -1.9291830    -0.1915810     0.0453950
  N        0.7639310    -1.5088640    -0.3477740
  C        0.5182450    -0.2160980    -0.0822800
  C       -0.7756170     0.5047820    -0.1623390
  C        2.7114570    -0.4276410     0.0208990
  C        1.8666300     1.8964630     0.4257140
  C       -3.1904980     0.5035560    -0.1598940
  C       -2.0503370    -1.5461500     0.5645390
  C        2.1210610    -1.6392390    -0.2794470
  H        3.7418240    -0.1353950     0.1686580
  H        1.1394670     2.2188990     1.1681400
  H        2.8785810     2.0278530     0.8121890
  H        1.7220340     2.4842350    -0.4794890
  H       -3.8467550    -0.1153850    -0.7799180
  H       -2.9915450     1.4520350    -0.6543500
  H       -3.6876690     0.6913720     0.7990550
  H       -1.0742680    -1.9474190     0.8155770
  H       -2.5092790    -2.1983750    -0.1864030
  H       -2.6938370    -1.5270200     1.4518100
  H        2.6051200    -2.5920870    -0.4498700
units angstrom
no_reorient  #important for SAPT in psi4, default
symmetry c1  #important for SAPT in psi4, default
}

set PROPERTIES_ORIGIN ["COM"]
properties('MP2/aug-cc-pvtz', properties = ['dipole'])
--------------------------------------------------------------------------

    Molecular point group: c1
  Charge       = 0
  Multiplicity = 1
  Basis Set: AUG-CC-PVTZ
    Blend: AUG-CC-PVTZ
  Basis Set: (AUG-CC-PVTZ AUX)
    Blend: AUG-CC-PVTZ-JKFIT

    Orbital Energies [Eh]
    ---------------------

    Doubly Occupied:

       1A    -20.519925     2A    -15.631175     3A    -15.593029
       4A    -15.562853     5A    -11.362057     6A    -11.320130
       7A    -11.276105     8A    -11.263031     9A    -11.260809
      10A    -11.256522    11A    -11.253326    12A     -1.381883
      13A     -1.328247    14A     -1.247144    15A     -1.204735
      16A     -1.025881    17A     -0.982874    18A     -0.967562
      19A     -0.940470    20A     -0.829062    21A     -0.809055
      22A     -0.741113    23A     -0.707906    24A     -0.663331
      25A     -0.656930    26A     -0.643747    27A     -0.637497
      28A     -0.623218    29A     -0.611993    30A     -0.574902
      31A     -0.558063    32A     -0.554358    33A     -0.551477
      34A     -0.534036    35A     -0.522867    36A     -0.518406
      37A     -0.454654    38A     -0.429526    39A     -0.381486
      40A     -0.373894    41A     -0.327111

  @DF-RHF Final Energy:  -509.83046839259703

   => Energetics <=

    Nuclear Repulsion Energy =            628.7953671993212765
    One-Electron Energy =               -1941.0868955018029283
    Two-Electron Energy =                 802.4610599098847388
    Total Energy =                       -509.8304683925970267
  Basis Set: (AUG-CC-PVTZ AUX)
    Blend: AUG-CC-PVTZ-RI
    Molecular point group: c1

    Geometry (in Angstrom), charge = 0, multiplicity = 1:

       Center              X                  Y                   Z               Mass
    ------------   -----------------  -----------------  -----------------  -----------------
         O           -0.790354585589     1.712369836412    -0.418532361177    15.994914619570
         N            1.582867414411     0.585704536412     0.159158738823    14.003074004430
         N           -1.952452585589    -0.200103163588     0.062352638823    14.003074004430
         N            0.740661414411    -1.517386163588    -0.330816361177    14.003074004430
         C            0.494975414411    -0.224620163588    -0.065322361177    12.000000000000
         C           -0.798886585589     0.496259836412    -0.145381361177    12.000000000000
         C            2.688187414411    -0.436163163588     0.037856638823    12.000000000000
         C            1.843360414411     1.887940836412     0.442671638823    12.000000000000
         C           -3.213767585589     0.495033836412    -0.142936361177    12.000000000000
         C           -2.073606585589    -1.554672163588     0.581496638823    12.000000000000
         C            2.097791414411    -1.647761163588    -0.262489361177    12.000000000000
         H            3.718554414411    -0.143917163588     0.185615638823     1.007825032230
         H            1.116197414411     2.210376836412     1.185097638823     1.007825032230
         H            2.855311414411     2.019330836412     0.829146638823     1.007825032230
         H            1.698764414411     2.475712836412    -0.462531361177     1.007825032230
         H           -3.870024585589    -0.123907163588    -0.762960361177     1.007825032230
         H           -3.014814585589     1.443512836412    -0.637392361177     1.007825032230
         H           -3.710938585589     0.682849836412     0.816012638823     1.007825032230
         H           -1.097537585589    -1.955941163588     0.832534638823     1.007825032230
         H           -2.532548585589    -2.206897163588    -0.169445361177     1.007825032230
         H           -2.717106585589    -1.535542163588     1.468767638823     1.007825032230
         H            2.581850414411    -2.600609163588    -0.432912361177     1.007825032230

  Basis Set: AUG-CC-PVTZ
    Blend: AUG-CC-PVTZ
  Basis Set: (AUG-CC-PVTZ AUX)
    Blend: AUG-CC-PVTZ-JKFIT
	 Reference Energy          =    -509.8304683925970267 [Eh]
	 Singles Energy            =      -0.0000000000000000 [Eh]
	 Same-Spin Energy          =      -0.5449733325156716 [Eh]
	 Opposite-Spin Energy      =      -1.6992888763459260 [Eh]
	 Correlation Energy        =      -2.2442622088615973 [Eh]
	 Total Energy              =    -512.0747306014586684 [Eh]

	 ================> DF-SCS-MP2 Energies <==================
	-----------------------------------------------------------
	 SCS Same-Spin Scale       =       0.3333333333333333 [-]
	 SCS Opposite-Spin Scale   =       1.2000000000000000 [-]
	 SCS Same-Spin Energy      =      -0.1816577775052239 [Eh]
	 SCS Opposite-Spin Energy  =      -2.0391466516151109 [Eh]
	 SCS Correlation Energy    =      -2.2208044291203346 [Eh]
	 SCS Total Energy          =    -512.0512728217173617 [Eh]
	-----------------------------------------------------------

  Dipole Moment: [D]
     X:     0.7029      Y:    -0.3241      Z:     1.6604     Total:     1.8319

*** Psi4 exiting successfully. Buy a developer a beer!
