                               Psi4 1.3.2 release

  ==> Input File <==

--------------------------------------------------------------------------
#psi4
#
memory 32 gb

molecule  {
0 1
  O       -0.7670850     1.7208920    -0.4354900
  N        1.6863020     0.4747470     0.1388600
  N       -1.9291830    -0.1915810     0.0453950
  N        0.7639310    -1.5088640    -0.3477740
  C        0.5182450    -0.2160980    -0.0822800
  C       -0.7756170     0.5047820    -0.1623390
  C        2.7114570    -0.4276410     0.0208990
  C        1.8913065     2.0910143     0.4649678
  C       -3.1904980     0.5035560    -0.1598940
  C       -2.0503370    -1.5461500     0.5645390
  C        2.1210610    -1.6392390    -0.2794470
  H        3.7418240    -0.1353950     0.1686580
  H        1.1394670     2.2188990     1.1681400
  H        2.8785810     2.0278530     0.8121890
  H        1.7220340     2.4842350    -0.4794890
  H       -3.8467550    -0.1153850    -0.7799180
  H       -2.9915450     1.4520350    -0.6543500
  H       -3.6876690     0.6913720     0.7990550
  H       -1.0742680    -1.9474190     0.8155770
  H       -2.5092790    -2.1983750    -0.1864030
  H       -2.6938370    -1.5270200     1.4518100
  H        2.6051200    -2.5920870    -0.4498700
units angstrom
no_reorient  #important for SAPT in psi4, default
symmetry c1  #important for SAPT in psi4, default
}

set PROPERTIES_ORIGIN ["COM"]
properties('MP2/aug-cc-pvtz', properties = ['dipole'])
--------------------------------------------------------------------------

    Molecular point group: c1
  Charge       = 0
  Multiplicity = 1
  Basis Set: AUG-CC-PVTZ
    Blend: AUG-CC-PVTZ
  Basis Set: (AUG-CC-PVTZ AUX)
    Blend: AUG-CC-PVTZ-JKFIT

    Orbital Energies [Eh]
    ---------------------

    Doubly Occupied:

       1A    -20.515446     2A    -15.622889     3A    -15.589773
       4A    -15.554070     5A    -11.359826     6A    -11.296648
       7A    -11.286437     8A    -11.262211     9A    -11.252969
      10A    -11.251292    11A    -11.244585    12A     -1.375914
      13A     -1.325709    14A     -1.242800    15A     -1.163203
      16A     -1.023558    17A     -0.983399    18A     -0.964501
      19A     -0.937620    20A     -0.825482    21A     -0.800508
      22A     -0.728871    23A     -0.701910    24A     -0.659377
      25A     -0.652612    26A     -0.645105    27A     -0.639359
      28A     -0.624489    29A     -0.583950    30A     -0.575780
      31A     -0.568309    32A     -0.554704    33A     -0.551564
      34A     -0.540630    35A     -0.527079    36A     -0.521373
      37A     -0.444076    38A     -0.426698    39A     -0.387969
      40A     -0.371466    41A     -0.313666

  @DF-RHF Final Energy:  -509.83363945796754

   => Energetics <=

    Nuclear Repulsion Energy =            625.1174713202537987
    One-Electron Energy =               -1934.1065683594599705
    Two-Electron Energy =                 799.1554575812385792
    Total Energy =                       -509.8336394579675925
  Basis Set: (AUG-CC-PVTZ AUX)
    Blend: AUG-CC-PVTZ-RI
    Molecular point group: c1

    Geometry (in Angstrom), charge = 0, multiplicity = 1:

       Center              X                  Y                   Z               Mass
    ------------   -----------------  -----------------  -----------------  -----------------
         O           -0.799621503501     1.708048642324    -0.421303667872    15.994914619570
         N            1.653765496499     0.461903642324     0.153046332128    14.003074004430
         N           -1.961719503501    -0.204424357676     0.059581332128    14.003074004430
         N            0.731394496499    -1.521707357676    -0.333587667872    14.003074004430
         C            0.485708496499    -0.228941357676    -0.068093667872    12.000000000000
         C           -0.808153503501     0.491938642324    -0.148152667872    12.000000000000
         C            2.678920496499    -0.440484357676     0.035085332128    12.000000000000
         C            1.858769996499     2.078170942324     0.479154132128    12.000000000000
         C           -3.223034503501     0.490712642324    -0.145707667872    12.000000000000
         C           -2.082873503501    -1.558993357676     0.578725332128    12.000000000000
         C            2.088524496499    -1.652082357676    -0.265260667872    12.000000000000
         H            3.709287496499    -0.148238357676     0.182844332128     1.007825032230
         H            1.106930496499     2.206055642324     1.182326332128     1.007825032230
         H            2.846044496499     2.015009642324     0.826375332128     1.007825032230
         H            1.689497496499     2.471391642324    -0.465302667872     1.007825032230
         H           -3.879291503501    -0.128228357676    -0.765731667872     1.007825032230
         H           -3.024081503501     1.439191642324    -0.640163667872     1.007825032230
         H           -3.720205503501     0.678528642324     0.813241332128     1.007825032230
         H           -1.106804503501    -1.960262357676     0.829763332128     1.007825032230
         H           -2.541815503501    -2.211218357676    -0.172216667872     1.007825032230
         H           -2.726373503501    -1.539863357676     1.465996332128     1.007825032230
         H            2.572583496499    -2.604930357676    -0.435683667872     1.007825032230

  Basis Set: AUG-CC-PVTZ
    Blend: AUG-CC-PVTZ
  Basis Set: (AUG-CC-PVTZ AUX)
    Blend: AUG-CC-PVTZ-JKFIT
	 Reference Energy          =    -509.8336394579675357 [Eh]
	 Singles Energy            =      -0.0000000000000000 [Eh]
	 Same-Spin Energy          =      -0.5438847547712615 [Eh]
	 Opposite-Spin Energy      =      -1.6967433649198025 [Eh]
	 Correlation Energy        =      -2.2406281196910642 [Eh]
	 Total Energy              =    -512.0742675776585884 [Eh]

	 ================> DF-SCS-MP2 Energies <==================
	-----------------------------------------------------------
	 SCS Same-Spin Scale       =       0.3333333333333333 [-]
	 SCS Opposite-Spin Scale   =       1.2000000000000000 [-]
	 SCS Same-Spin Energy      =      -0.1812949182570872 [Eh]
	 SCS Opposite-Spin Energy  =      -2.0360920379037628 [Eh]
	 SCS Correlation Energy    =      -2.2173869561608499 [Eh]
	 SCS Total Energy          =    -512.0510264141283869 [Eh]
	-----------------------------------------------------------

  Dipole Moment: [D]
     X:     0.8871      Y:     0.4894      Z:     1.8266     Total:     2.0887

*** Psi4 exiting successfully. Buy a developer a beer!
