                               Psi4 1.3.2 release

  ==> Input File <==

--------------------------------------------------------------------------
#psi4
#
memory 32 gb

molecule  {
0 1
  O       -0.7670850     1.7208920    -0.4354900
  N        1.6987029     0.4545255     0.1352292
  N       -1.9291830    -0.1915810     0.0453950
  N        0.7639310    -1.5088640    -0.3477740
  C        0.5182450    -0.2160980    -0.0822800
  C       -0.7756170     0.5047820    -0.1623390
  C        2.7114570    -0.4276410     0.0208990
  C        1.8666300     1.8964630     0.4257140
  C       -3.1904980     0.5035560    -0.1598940
  C       -2.0503370    -1.5461500     0.5645390
  C        2.1210610    -1.6392390    -0.2794470
  H        3.7418240    -0.1353950     0.1686580
  H        1.1394670     2.2188990     1.1681400
  H        2.8785810     2.0278530     0.8121890
  H        1.7220340     2.4842350    -0.4794890
  H       -3.8467550    -0.1153850    -0.7799180
  H       -2.9915450     1.4520350    -0.6543500
  H       -3.6876690     0.6913720     0.7990550
  H       -1.0742680    -1.9474190     0.8155770
  H       -2.5092790    -2.1983750    -0.1864030
  H       -2.6938370    -1.5270200     1.4518100
  H        2.6051200    -2.5920870    -0.4498700
units angstrom
no_reorient  #important for SAPT in psi4, default
symmetry c1  #important for SAPT in psi4, default
}

set PROPERTIES_ORIGIN ["COM"]
properties('MP2/aug-cc-pvtz', properties = ['dipole'])
--------------------------------------------------------------------------

    Molecular point group: c1
  Charge       = 0
  Multiplicity = 1
  Basis Set: AUG-CC-PVTZ
    Blend: AUG-CC-PVTZ
  Basis Set: (AUG-CC-PVTZ AUX)
    Blend: AUG-CC-PVTZ-JKFIT

    Orbital Energies [Eh]
    ---------------------

    Doubly Occupied:

       1A    -20.517180     2A    -15.634135     3A    -15.591833
       4A    -15.561310     5A    -11.363132     6A    -11.302975
       7A    -11.274141     8A    -11.268080     9A    -11.255096
      10A    -11.252691    11A    -11.249405    12A     -1.380602
      13A     -1.345338    14A     -1.245210    15A     -1.186935
      16A     -1.033456    17A     -0.975528    18A     -0.966407
      19A     -0.938514    20A     -0.832181    21A     -0.811514
      22A     -0.741859    23A     -0.710191    24A     -0.663189
      25A     -0.655529    26A     -0.647288    27A     -0.639936
      28A     -0.604645    29A     -0.586259    30A     -0.574997
      31A     -0.566915    32A     -0.557266    33A     -0.555506
      34A     -0.552970    35A     -0.527265    36A     -0.523562
      37A     -0.449970    38A     -0.428668    39A     -0.393186
      40A     -0.372973    41A     -0.319153

  @DF-RHF Final Energy:  -509.86016780217943

   => Energetics <=

    Nuclear Repulsion Energy =            629.0755805019529134
    One-Electron Energy =               -1941.7575138354673072
    Two-Electron Energy =                 802.8217655313349042
    Total Energy =                       -509.8601678021793759
  Basis Set: (AUG-CC-PVTZ AUX)
    Blend: AUG-CC-PVTZ-RI
    Molecular point group: c1

    Geometry (in Angstrom), charge = 0, multiplicity = 1:

       Center              X                  Y                   Z               Mass
    ------------   -----------------  -----------------  -----------------  -----------------
         O           -0.798821535443     1.725148225158    -0.417894645478    15.994914619570
         N            1.666966364557     0.458781725158     0.152824554522    14.003074004430
         N           -1.960919535443    -0.187324774842     0.062990354522    14.003074004430
         N            0.732194464557    -1.504607774842    -0.330178645478    14.003074004430
         C            0.486508464557    -0.211841774842    -0.064684645478    12.000000000000
         C           -0.807353535443     0.509038225158    -0.144743645478    12.000000000000
         C            2.679720464557    -0.423384774842     0.038494354522    12.000000000000
         C            1.834893464557     1.900719225158     0.443309354522    12.000000000000
         C           -3.222234535443     0.507812225158    -0.142298645478    12.000000000000
         C           -2.082073535443    -1.541893774842     0.582134354522    12.000000000000
         C            2.089324464557    -1.634982774842    -0.261851645478    12.000000000000
         H            3.710087464557    -0.131138774842     0.186253354522     1.007825032230
         H            1.107730464557     2.223155225158     1.185735354522     1.007825032230
         H            2.846844464557     2.032109225158     0.829784354522     1.007825032230
         H            1.690297464557     2.488491225158    -0.461893645478     1.007825032230
         H           -3.878491535443    -0.111128774842    -0.762322645478     1.007825032230
         H           -3.023281535443     1.456291225158    -0.636754645478     1.007825032230
         H           -3.719405535443     0.695628225158     0.816650354522     1.007825032230
         H           -1.106004535443    -1.943162774842     0.833172354522     1.007825032230
         H           -2.541015535443    -2.194118774842    -0.168807645478     1.007825032230
         H           -2.725573535443    -1.522763774842     1.469405354522     1.007825032230
         H            2.573383464557    -2.587830774842    -0.432274645478     1.007825032230

  Basis Set: AUG-CC-PVTZ
    Blend: AUG-CC-PVTZ
  Basis Set: (AUG-CC-PVTZ AUX)
    Blend: AUG-CC-PVTZ-JKFIT
	 Reference Energy          =    -509.8601678021794328 [Eh]
	 Singles Energy            =      -0.0000000000000000 [Eh]
	 Same-Spin Energy          =      -0.5439345818124662 [Eh]
	 Opposite-Spin Energy      =      -1.6951632089044990 [Eh]
	 Correlation Energy        =      -2.2390977907169654 [Eh]
	 Total Energy              =    -512.0992655928963586 [Eh]

	 ================> DF-SCS-MP2 Energies <==================
	-----------------------------------------------------------
	 SCS Same-Spin Scale       =       0.3333333333333333 [-]
	 SCS Opposite-Spin Scale   =       1.2000000000000000 [-]
	 SCS Same-Spin Energy      =      -0.1813115272708221 [Eh]
	 SCS Opposite-Spin Energy  =      -2.0341958506853985 [Eh]
	 SCS Correlation Energy    =      -2.2155073779562207 [Eh]
	 SCS Total Energy          =    -512.0756751801357041 [Eh]
	-----------------------------------------------------------

  Dipole Moment: [D]
     X:     0.7597      Y:     0.0560      Z:     1.7304     Total:     1.8907

*** Psi4 exiting successfully. Buy a developer a beer!
