                               Psi4 1.3.2 release

  ==> Input File <==

--------------------------------------------------------------------------
#psi4
#
memory 32 gb

molecule  {
0 1
  O       -0.7670850     1.7208920    -0.4354900
  N        1.6863020     0.4747470     0.1388600
  N       -1.9291830    -0.1915810     0.0453950
  N        0.7639310    -1.5088640    -0.3477740
  C        0.5182450    -0.2160980    -0.0822800
  C       -0.6883879     0.4561820    -0.1569416
  C        2.7114570    -0.4276410     0.0208990
  C        1.8666300     1.8964630     0.4257140
  C       -3.1904980     0.5035560    -0.1598940
  C       -2.0503370    -1.5461500     0.5645390
  C        2.1210610    -1.6392390    -0.2794470
  H        3.7418240    -0.1353950     0.1686580
  H        1.1394670     2.2188990     1.1681400
  H        2.8785810     2.0278530     0.8121890
  H        1.7220340     2.4842350    -0.4794890
  H       -3.8467550    -0.1153850    -0.7799180
  H       -2.9915450     1.4520350    -0.6543500
  H       -3.6876690     0.6913720     0.7990550
  H       -1.0742680    -1.9474190     0.8155770
  H       -2.5092790    -2.1983750    -0.1864030
  H       -2.6938370    -1.5270200     1.4518100
  H        2.6051200    -2.5920870    -0.4498700
units angstrom
no_reorient  #important for SAPT in psi4, default
symmetry c1  #important for SAPT in psi4, default
}

set PROPERTIES_ORIGIN ["COM"]
properties('MP2/aug-cc-pvtz', properties = ['dipole'])
--------------------------------------------------------------------------

    Molecular point group: c1
  Charge       = 0
  Multiplicity = 1
  Basis Set: AUG-CC-PVTZ
    Blend: AUG-CC-PVTZ
  Basis Set: (AUG-CC-PVTZ AUX)
    Blend: AUG-CC-PVTZ-JKFIT

    Orbital Energies [Eh]
    ---------------------

    Doubly Occupied:

       1A    -20.512038     2A    -15.642719     3A    -15.586644
       4A    -15.572736     5A    -11.363093     6A    -11.304674
       7A    -11.280148     8A    -11.275125     9A    -11.259820
      10A    -11.248408    11A    -11.248185    12A     -1.370044
      13A     -1.330678    14A     -1.225496    15A     -1.195545
      16A     -1.052422    17A     -0.983798    18A     -0.959811
      19A     -0.929119    20A     -0.850540    21A     -0.820339
      22A     -0.746176    23A     -0.703663    24A     -0.665427
      25A     -0.651956    26A     -0.639984    27A     -0.635223
      28A     -0.609948    29A     -0.598522    30A     -0.572824
      31A     -0.565875    32A     -0.561096    33A     -0.550273
      34A     -0.547212    35A     -0.518362    36A     -0.506525
      37A     -0.455338    38A     -0.426615    39A     -0.397596
      40A     -0.361220    41A     -0.327833

  @DF-RHF Final Energy:  -509.83826125120299

   => Energetics <=

    Nuclear Repulsion Energy =            629.2652844619831285
    One-Electron Energy =               -1942.1009928605030836
    Two-Electron Energy =                 802.9974471473169615
    Total Energy =                       -509.8382612512029937
  Basis Set: (AUG-CC-PVTZ AUX)
    Blend: AUG-CC-PVTZ-RI
    Molecular point group: c1

    Geometry (in Angstrom), charge = 0, multiplicity = 1:

       Center              X                  Y                   Z               Mass
    ------------   -----------------  -----------------  -----------------  -----------------
         O           -0.804524698749     1.727108094670    -0.418649828710    15.994914619570
         N            1.648862301251     0.480963094670     0.155700171290    14.003074004430
         N           -1.966622698749    -0.185364905330     0.062235171290    14.003074004430
         N            0.726491301251    -1.502647905330    -0.330933828710    14.003074004430
         C            0.480805301251    -0.209881905330    -0.065439828710    12.000000000000
         C           -0.725827598749     0.462398094670    -0.140101428710    12.000000000000
         C            2.674017301251    -0.421424905330     0.037739171290    12.000000000000
         C            1.829190301251     1.902679094670     0.442554171290    12.000000000000
         C           -3.227937698749     0.509772094670    -0.143053828710    12.000000000000
         C           -2.087776698749    -1.539933905330     0.581379171290    12.000000000000
         C            2.083621301251    -1.633022905330    -0.262606828710    12.000000000000
         H            3.704384301251    -0.129178905330     0.185498171290     1.007825032230
         H            1.102027301251     2.225115094670     1.184980171290     1.007825032230
         H            2.841141301251     2.034069094670     0.829029171290     1.007825032230
         H            1.684594301251     2.490451094670    -0.462648828710     1.007825032230
         H           -3.884194698749    -0.109168905330    -0.763077828710     1.007825032230
         H           -3.028984698749     1.458251094670    -0.637509828710     1.007825032230
         H           -3.725108698749     0.697588094670     0.815895171290     1.007825032230
         H           -1.111707698749    -1.941202905330     0.832417171290     1.007825032230
         H           -2.546718698749    -2.192158905330    -0.169562828710     1.007825032230
         H           -2.731276698749    -1.520803905330     1.468650171290     1.007825032230
         H            2.567680301251    -2.585870905330    -0.433029828710     1.007825032230

  Basis Set: AUG-CC-PVTZ
    Blend: AUG-CC-PVTZ
  Basis Set: (AUG-CC-PVTZ AUX)
    Blend: AUG-CC-PVTZ-JKFIT
	 Reference Energy          =    -509.8382612512029937 [Eh]
	 Singles Energy            =      -0.0000000000000000 [Eh]
	 Same-Spin Energy          =      -0.5471615574615910 [Eh]
	 Opposite-Spin Energy      =      -1.7010377294298142 [Eh]
	 Correlation Energy        =      -2.2481992868914054 [Eh]
	 Total Energy              =    -512.0864605380943431 [Eh]

	 ================> DF-SCS-MP2 Energies <==================
	-----------------------------------------------------------
	 SCS Same-Spin Scale       =       0.3333333333333333 [-]
	 SCS Opposite-Spin Scale   =       1.2000000000000000 [-]
	 SCS Same-Spin Energy      =      -0.1823871858205303 [Eh]
	 SCS Opposite-Spin Energy  =      -2.0412452753157768 [Eh]
	 SCS Correlation Energy    =      -2.2236324611363072 [Eh]
	 SCS Total Energy          =    -512.0618937123392698 [Eh]
	-----------------------------------------------------------

  Dipole Moment: [D]
     X:     1.4858      Y:    -0.1792      Z:     1.7068     Total:     2.2700

*** Psi4 exiting successfully. Buy a developer a beer!
