                               Psi4 1.3.2 release

  ==> Input File <==

--------------------------------------------------------------------------
#psi4
#
memory 32 gb

molecule  {
0 1
  O       -0.7670850     1.7208920    -0.4354900
  N        1.6863020     0.4747470     0.1388600
  N       -1.9291830    -0.1915810     0.0453950
  N        0.7639310    -1.5088640    -0.3477740
  C        0.4938923    -0.1751832    -0.0762601
  C       -0.7756170     0.5047820    -0.1623390
  C        2.7114570    -0.4276410     0.0208990
  C        1.8666300     1.8964630     0.4257140
  C       -3.1904980     0.5035560    -0.1598940
  C       -2.0503370    -1.5461500     0.5645390
  C        2.1210610    -1.6392390    -0.2794470
  H        3.7418240    -0.1353950     0.1686580
  H        1.1394670     2.2188990     1.1681400
  H        2.8785810     2.0278530     0.8121890
  H        1.7220340     2.4842350    -0.4794890
  H       -3.8467550    -0.1153850    -0.7799180
  H       -2.9915450     1.4520350    -0.6543500
  H       -3.6876690     0.6913720     0.7990550
  H       -1.0742680    -1.9474190     0.8155770
  H       -2.5092790    -2.1983750    -0.1864030
  H       -2.6938370    -1.5270200     1.4518100
  H        2.6051200    -2.5920870    -0.4498700
units angstrom
no_reorient  #important for SAPT in psi4, default
symmetry c1  #important for SAPT in psi4, default
}

set PROPERTIES_ORIGIN ["COM"]
properties('MP2/aug-cc-pvtz', properties = ['dipole'])
--------------------------------------------------------------------------

    Molecular point group: c1
  Charge       = 0
  Multiplicity = 1
  Basis Set: AUG-CC-PVTZ
    Blend: AUG-CC-PVTZ
  Basis Set: (AUG-CC-PVTZ AUX)
    Blend: AUG-CC-PVTZ-JKFIT

    Orbital Energies [Eh]
    ---------------------

    Doubly Occupied:

       1A    -20.515865     2A    -15.639061     3A    -15.591450
       4A    -15.564887     5A    -11.360227     6A    -11.305398
       7A    -11.271972     8A    -11.271213     9A    -11.254510
      10A    -11.253668    11A    -11.252440    12A     -1.381006
      13A     -1.337888    14A     -1.244973    15A     -1.180515
      16A     -1.036239    17A     -0.977031    18A     -0.966049
      19A     -0.939432    20A     -0.839259    21A     -0.808707
      22A     -0.741096    23A     -0.709883    24A     -0.664070
      25A     -0.656432    26A     -0.647286    27A     -0.639659
      28A     -0.605040    29A     -0.590023    30A     -0.576488
      31A     -0.563778    32A     -0.557138    33A     -0.553600
      34A     -0.552496    35A     -0.526202    36A     -0.522278
      37A     -0.444268    38A     -0.431349    39A     -0.388524
      40A     -0.372690    41A     -0.319335

  @DF-RHF Final Energy:  -509.85336867509886

   => Energetics <=

    Nuclear Repulsion Energy =            628.9574132366757340
    One-Electron Energy =               -1941.5147129907345516
    Two-Electron Energy =                 802.7039310789600677
    Total Energy =                       -509.8533686750988636
  Basis Set: (AUG-CC-PVTZ AUX)
    Blend: AUG-CC-PVTZ-RI
    Molecular point group: c1

    Geometry (in Angstrom), charge = 0, multiplicity = 1:

       Center              X                  Y                   Z               Mass
    ------------   -----------------  -----------------  -----------------  -----------------
         O           -0.795778342058     1.720091463195    -0.418698623469    15.994914619570
         N            1.657608657942     0.473946463195     0.155651376531    14.003074004430
         N           -1.957876342058    -0.192381536805     0.062186376531    14.003074004430
         N            0.735237657942    -1.509664536805    -0.330982623469    14.003074004430
         C            0.465198957942    -0.175983736805    -0.059468723469    12.000000000000
         C           -0.804310342058     0.503981463195    -0.145547623469    12.000000000000
         C            2.682763657942    -0.428441536805     0.037690376531    12.000000000000
         C            1.837936657942     1.895662463195     0.442505376531    12.000000000000
         C           -3.219191342058     0.502755463195    -0.143102623469    12.000000000000
         C           -2.079030342058    -1.546950536805     0.581330376531    12.000000000000
         C            2.092367657942    -1.640039536805    -0.262655623469    12.000000000000
         H            3.713130657942    -0.136195536805     0.185449376531     1.007825032230
         H            1.110773657942     2.218098463195     1.184931376531     1.007825032230
         H            2.849887657942     2.027052463195     0.828980376531     1.007825032230
         H            1.693340657942     2.483434463195    -0.462697623469     1.007825032230
         H           -3.875448342058    -0.116185536805    -0.763126623469     1.007825032230
         H           -3.020238342058     1.451234463195    -0.637558623469     1.007825032230
         H           -3.716362342058     0.690571463195     0.815846376531     1.007825032230
         H           -1.102961342058    -1.948219536805     0.832368376531     1.007825032230
         H           -2.537972342058    -2.199175536805    -0.169611623469     1.007825032230
         H           -2.722530342058    -1.527820536805     1.468601376531     1.007825032230
         H            2.576426657942    -2.592887536805    -0.433078623469     1.007825032230

  Basis Set: AUG-CC-PVTZ
    Blend: AUG-CC-PVTZ
  Basis Set: (AUG-CC-PVTZ AUX)
    Blend: AUG-CC-PVTZ-JKFIT
	 Reference Energy          =    -509.8533686750988636 [Eh]
	 Singles Energy            =      -0.0000000000000000 [Eh]
	 Same-Spin Energy          =      -0.5455014771610098 [Eh]
	 Opposite-Spin Energy      =      -1.6980215187245427 [Eh]
	 Correlation Energy        =      -2.2435229958855523 [Eh]
	 Total Energy              =    -512.0968916709844052 [Eh]

	 ================> DF-SCS-MP2 Energies <==================
	-----------------------------------------------------------
	 SCS Same-Spin Scale       =       0.3333333333333333 [-]
	 SCS Opposite-Spin Scale   =       1.2000000000000000 [-]
	 SCS Same-Spin Energy      =      -0.1818338257203366 [Eh]
	 SCS Opposite-Spin Energy  =      -2.0376258224694510 [Eh]
	 SCS Correlation Energy    =      -2.2194596481897877 [Eh]
	 SCS Total Energy          =    -512.0728283232886042 [Eh]
	-----------------------------------------------------------

  Dipole Moment: [D]
     X:     0.8809      Y:    -0.0153      Z:     1.7282     Total:     1.9398

*** Psi4 exiting successfully. Buy a developer a beer!
