                               Psi4 1.3.2 release

  ==> Input File <==

--------------------------------------------------------------------------
#psi4
#
memory 32 gb

molecule  {
0 1
  O       -0.7670850     1.7208920    -0.4354900
  N        1.6863020     0.4747470     0.1388600
  N       -1.9291830    -0.1915810     0.0453950
  N        0.7185745    -1.5145161    -0.3580898
  C        0.5182450    -0.2160980    -0.0822800
  C       -0.7756170     0.5047820    -0.1623390
  C        2.7114570    -0.4276410     0.0208990
  C        1.8666300     1.8964630     0.4257140
  C       -3.1904980     0.5035560    -0.1598940
  C       -2.0503370    -1.5461500     0.5645390
  C        2.1210610    -1.6392390    -0.2794470
  H        3.7418240    -0.1353950     0.1686580
  H        1.1394670     2.2188990     1.1681400
  H        2.8785810     2.0278530     0.8121890
  H        1.7220340     2.4842350    -0.4794890
  H       -3.8467550    -0.1153850    -0.7799180
  H       -2.9915450     1.4520350    -0.6543500
  H       -3.6876690     0.6913720     0.7990550
  H       -1.0742680    -1.9474190     0.8155770
  H       -2.5092790    -2.1983750    -0.1864030
  H       -2.6938370    -1.5270200     1.4518100
  H        2.6051200    -2.5920870    -0.4498700
units angstrom
no_reorient  #important for SAPT in psi4, default
symmetry c1  #important for SAPT in psi4, default
}

set PROPERTIES_ORIGIN ["COM"]
properties('MP2/aug-cc-pvtz', properties = ['dipole'])
--------------------------------------------------------------------------

    Molecular point group: c1
  Charge       = 0
  Multiplicity = 1
  Basis Set: AUG-CC-PVTZ
    Blend: AUG-CC-PVTZ
  Basis Set: (AUG-CC-PVTZ AUX)
    Blend: AUG-CC-PVTZ-JKFIT

    Orbital Energies [Eh]
    ---------------------

    Doubly Occupied:

       1A    -20.517859     2A    -15.632570     3A    -15.592063
       4A    -15.567019     5A    -11.362379     6A    -11.308326
       7A    -11.272459     8A    -11.271665     9A    -11.255416
      10A    -11.254531    11A    -11.252772    12A     -1.380254
      13A     -1.338400    14A     -1.245496    15A     -1.183317
      16A     -1.032611    17A     -0.975255    18A     -0.966304
      19A     -0.938267    20A     -0.832704    21A     -0.810560
      22A     -0.738615    23A     -0.709538    24A     -0.661907
      25A     -0.654371    26A     -0.645618    27A     -0.639782
      28A     -0.602915    29A     -0.591944    30A     -0.572737
      31A     -0.562946    32A     -0.555776    33A     -0.553880
      34A     -0.552302    35A     -0.527318    36A     -0.522141
      37A     -0.455990    38A     -0.428803    39A     -0.388398
      40A     -0.372839    41A     -0.323306

  @DF-RHF Final Energy:  -509.85695996878417

   => Energetics <=

    Nuclear Repulsion Energy =            628.4809570708964657
    One-Electron Energy =               -1940.5731264190076217
    Two-Electron Energy =                 802.2352093793269887
    Total Energy =                       -509.8569599687841674
  Basis Set: (AUG-CC-PVTZ AUX)
    Blend: AUG-CC-PVTZ-RI
    Molecular point group: c1

    Geometry (in Angstrom), charge = 0, multiplicity = 1:

       Center              X                  Y                   Z               Mass
    ------------   -----------------  -----------------  -----------------  -----------------
         O           -0.793538499147     1.723815570485    -0.417283172357    15.994914619570
         N            1.659848500853     0.477670570485     0.157066827643    14.003074004430
         N           -1.955636499147    -0.188657429515     0.063601827643    14.003074004430
         N            0.692121000853    -1.511592529515    -0.339882972357    14.003074004430
         C            0.491791500853    -0.213174429515    -0.064073172357    12.000000000000
         C           -0.802070499147     0.507705570485    -0.144132172357    12.000000000000
         C            2.685003500853    -0.424717429515     0.039105827643    12.000000000000
         C            1.840176500853     1.899386570485     0.443920827643    12.000000000000
         C           -3.216951499147     0.506479570485    -0.141687172357    12.000000000000
         C           -2.076790499147    -1.543226429515     0.582745827643    12.000000000000
         C            2.094607500853    -1.636315429515    -0.261240172357    12.000000000000
         H            3.715370500853    -0.132471429515     0.186864827643     1.007825032230
         H            1.113013500853     2.221822570485     1.186346827643     1.007825032230
         H            2.852127500853     2.030776570485     0.830395827643     1.007825032230
         H            1.695580500853     2.487158570485    -0.461282172357     1.007825032230
         H           -3.873208499147    -0.112461429515    -0.761711172357     1.007825032230
         H           -3.017998499147     1.454958570485    -0.636143172357     1.007825032230
         H           -3.714122499147     0.694295570485     0.817261827643     1.007825032230
         H           -1.100721499147    -1.944495429515     0.833783827643     1.007825032230
         H           -2.535732499147    -2.195451429515    -0.168196172357     1.007825032230
         H           -2.720290499147    -1.524096429515     1.470016827643     1.007825032230
         H            2.578666500853    -2.589163429515    -0.431663172357     1.007825032230

  Basis Set: AUG-CC-PVTZ
    Blend: AUG-CC-PVTZ
  Basis Set: (AUG-CC-PVTZ AUX)
    Blend: AUG-CC-PVTZ-JKFIT
	 Reference Energy          =    -509.8569599687841674 [Eh]
	 Singles Energy            =      -0.0000000000000000 [Eh]
	 Same-Spin Energy          =      -0.5438524602294359 [Eh]
	 Opposite-Spin Energy      =      -1.6965372096135782 [Eh]
	 Correlation Energy        =      -2.2403896698430144 [Eh]
	 Total Energy              =    -512.0973496386271790 [Eh]

	 ================> DF-SCS-MP2 Energies <==================
	-----------------------------------------------------------
	 SCS Same-Spin Scale       =       0.3333333333333333 [-]
	 SCS Opposite-Spin Scale   =       1.2000000000000000 [-]
	 SCS Same-Spin Energy      =      -0.1812841534098120 [Eh]
	 SCS Opposite-Spin Energy  =      -2.0358446515362938 [Eh]
	 SCS Correlation Energy    =      -2.2171288049461060 [Eh]
	 SCS Total Energy          =    -512.0740887737302955 [Eh]
	-----------------------------------------------------------

  Dipole Moment: [D]
     X:     0.8077      Y:     0.0351      Z:     1.7367     Total:     1.9157

*** Psi4 exiting successfully. Buy a developer a beer!
