                               Psi4 1.4a3.dev225

  ==> Input File <==

--------------------------------------------------------------------------
#psi4
#
memory 32 gb

molecule  {
0 1
  O       -0.7670850     1.7208920    -0.4354900
  N        1.6863020     0.4747470     0.1388600
  N       -1.9291830    -0.1915810     0.0453950
  N        0.7639310    -1.5088640    -0.3477740
  C        0.5182450    -0.2160980    -0.0822800
  C       -0.7756170     0.5047820    -0.1623390
  C        2.7114570    -0.4276410     0.0208990
  C        1.8727991     1.9451008     0.4355275
  C       -3.1904980     0.5035560    -0.1598940
  C       -2.0503370    -1.5461500     0.5645390
  C        2.1210610    -1.6392390    -0.2794470
  H        3.7418240    -0.1353950     0.1686580
  H        1.1394670     2.2188990     1.1681400
  H        2.8785810     2.0278530     0.8121890
  H        1.7220340     2.4842350    -0.4794890
  H       -3.8467550    -0.1153850    -0.7799180
  H       -2.9915450     1.4520350    -0.6543500
  H       -3.6876690     0.6913720     0.7990550
  H       -1.0742680    -1.9474190     0.8155770
  H       -2.5092790    -2.1983750    -0.1864030
  H       -2.6938370    -1.5270200     1.4518100
  H        2.6051200    -2.5920870    -0.4498700
units angstrom
no_reorient  #important for SAPT in psi4, default
symmetry c1  #important for SAPT in psi4, default
}

set PROPERTIES_ORIGIN ["COM"]
properties('MP2/aug-cc-pvtz', properties = ['dipole'])
--------------------------------------------------------------------------

    Molecular point group: c1
  Charge       = 0
  Multiplicity = 1
  Basis Set: AUG-CC-PVTZ
    Blend: AUG-CC-PVTZ
  Basis Set: (AUG-CC-PVTZ AUX)
    Blend: AUG-CC-PVTZ-JKFIT

    Orbital Energies [Eh]
    ---------------------

    Doubly Occupied:

       1A    -20.517179     2A    -15.631873     3A    -15.591568
       4A    -15.559780     5A    -11.362312     6A    -11.303382
       7A    -11.274175     8A    -11.267735     9A    -11.254801
      10A    -11.252487    11A    -11.249771    12A     -1.379202
      13A     -1.337485    14A     -1.244849    15A     -1.181520
      16A     -1.029805    17A     -0.977370    18A     -0.966213
      19A     -0.938703    20A     -0.830311    21A     -0.808245
      22A     -0.738049    23A     -0.707974    24A     -0.660959
      25A     -0.654227    26A     -0.644502    27A     -0.639556
      28A     -0.607786    29A     -0.584675    30A     -0.574658
      31A     -0.566959    32A     -0.561226    33A     -0.556275
      34A     -0.552930    35A     -0.527600    36A     -0.522992
      37A     -0.449179    38A     -0.428681    39A     -0.391522
      40A     -0.372806    41A     -0.318977

  @DF-RHF Final Energy:  -509.85841490626399

   => Energetics <=

    Nuclear Repulsion Energy =            627.9837967687474247
    One-Electron Energy =               -1939.6438255462146572
    Two-Electron Energy =                 801.8016138712032443
    Total Energy =                       -509.8584149062639881
  Basis Set: (AUG-CC-PVTZ AUX)
    Blend: AUG-CC-PVTZ-RI
    Molecular point group: c1

    Geometry (in Angstrom), charge = 0, multiplicity = 1:

       Center              X                  Y                   Z               Mass
    ------------   -----------------  -----------------  -----------------  -----------------
         O           -0.798170798083     1.719486094643    -0.418995985393    15.994914619570
         N            1.655216201917     0.473341094643     0.155354014607    14.003074004430
         N           -1.960268798083    -0.192986905357     0.061889014607    14.003074004430
         N            0.732845201917    -1.510269905357    -0.331279985393    14.003074004430
         C            0.487159201917    -0.217503905357    -0.065785985393    12.000000000000
         C           -0.806702798083     0.503376094643    -0.145844985393    12.000000000000
         C            2.680371201917    -0.429046905357     0.037393014607    12.000000000000
         C            1.841713301917     1.943694894643     0.452021514607    12.000000000000
         C           -3.221583798083     0.502150094643    -0.143399985393    12.000000000000
         C           -2.081422798083    -1.547555905357     0.581033014607    12.000000000000
         C            2.089975201917    -1.640644905357    -0.262952985393    12.000000000000
         H            3.710738201917    -0.136800905357     0.185152014607     1.007825032230
         H            1.108381201917     2.217493094643     1.184634014607     1.007825032230
         H            2.847495201917     2.026447094643     0.828683014607     1.007825032230
         H            1.690948201917     2.482829094643    -0.462994985393     1.007825032230
         H           -3.877840798083    -0.116790905357    -0.763423985393     1.007825032230
         H           -3.022630798083     1.450629094643    -0.637855985393     1.007825032230
         H           -3.718754798083     0.689966094643     0.815549014607     1.007825032230
         H           -1.105353798083    -1.948824905357     0.832071014607     1.007825032230
         H           -2.540364798083    -2.199780905357    -0.169908985393     1.007825032230
         H           -2.724922798083    -1.528425905357     1.468304014607     1.007825032230
         H            2.574034201917    -2.593492905357    -0.433375985393     1.007825032230

  Basis Set: AUG-CC-PVTZ
    Blend: AUG-CC-PVTZ
  Basis Set: (AUG-CC-PVTZ AUX)
    Blend: AUG-CC-PVTZ-JKFIT
	 Reference Energy          =    -509.8584149062639881 [Eh]
	 Singles Energy            =      -0.0000000000000000 [Eh]
	 Same-Spin Energy          =      -0.5437328692174048 [Eh]
	 Opposite-Spin Energy      =      -1.6954920539688128 [Eh]
	 Correlation Energy        =      -2.2392249231862174 [Eh]
	 Total Energy              =    -512.0976398294502587 [Eh]

	 ================> DF-SCS-MP2 Energies <==================
	-----------------------------------------------------------
	 SCS Same-Spin Scale       =       0.3333333333333333 [-]
	 SCS Opposite-Spin Scale   =       1.2000000000000000 [-]
	 SCS Same-Spin Energy      =      -0.1812442897391349 [Eh]
	 SCS Opposite-Spin Energy  =      -2.0345904647625752 [Eh]
	 SCS Correlation Energy    =      -2.2158347545017101 [Eh]
	 SCS Total Energy          =    -512.0742496607656449 [Eh]
	-----------------------------------------------------------

  Dipole Moment: [D]
     X:     0.7805      Y:     0.1210      Z:     1.7448     Total:     1.9153

*** Psi4 exiting successfully. Buy a developer a beer!
