                               Psi4 1.3.2 release

  ==> Input File <==

--------------------------------------------------------------------------
#psi4
#
memory 32 gb

molecule  {
0 1
  O       -0.8538869     1.7196788    -0.4297478
  N        1.6863020     0.4747470     0.1388600
  N       -1.9291830    -0.1915810     0.0453950
  N        0.7639310    -1.5088640    -0.3477740
  C        0.5182450    -0.2160980    -0.0822800
  C       -0.7756170     0.5047820    -0.1623390
  C        2.7114570    -0.4276410     0.0208990
  C        1.8666300     1.8964630     0.4257140
  C       -3.1904980     0.5035560    -0.1598940
  C       -2.0503370    -1.5461500     0.5645390
  C        2.1210610    -1.6392390    -0.2794470
  H        3.7418240    -0.1353950     0.1686580
  H        1.1394670     2.2188990     1.1681400
  H        2.8785810     2.0278530     0.8121890
  H        1.7220340     2.4842350    -0.4794890
  H       -3.8467550    -0.1153850    -0.7799180
  H       -2.9915450     1.4520350    -0.6543500
  H       -3.6876690     0.6913720     0.7990550
  H       -1.0742680    -1.9474190     0.8155770
  H       -2.5092790    -2.1983750    -0.1864030
  H       -2.6938370    -1.5270200     1.4518100
  H        2.6051200    -2.5920870    -0.4498700
units angstrom
no_reorient  #important for SAPT in psi4, default
symmetry c1  #important for SAPT in psi4, default
}

set PROPERTIES_ORIGIN ["COM"]
properties('MP2/aug-cc-pvtz', properties = ['dipole'])
--------------------------------------------------------------------------

    Molecular point group: c1
  Charge       = 0
  Multiplicity = 1
  Basis Set: AUG-CC-PVTZ
    Blend: AUG-CC-PVTZ
  Basis Set: (AUG-CC-PVTZ AUX)
    Blend: AUG-CC-PVTZ-JKFIT

    Orbital Energies [Eh]
    ---------------------

    Doubly Occupied:

       1A    -20.515461     2A    -15.636698     3A    -15.587740
       4A    -15.564652     5A    -11.362148     6A    -11.308881
       7A    -11.274885     8A    -11.271923     9A    -11.253880
      10A    -11.252707    11A    -11.248769    12A     -1.380389
      13A     -1.345254    14A     -1.239753    15A     -1.191349
      16A     -1.034936    17A     -0.978657    18A     -0.963696
      19A     -0.937312    20A     -0.833825    21A     -0.812736
      22A     -0.742660    23A     -0.708711    24A     -0.663461
      25A     -0.654747    26A     -0.645589    27A     -0.640078
      28A     -0.607200    29A     -0.595034    30A     -0.574250
      31A     -0.565482    32A     -0.557588    33A     -0.553093
      34A     -0.550698    35A     -0.524235    36A     -0.521887
      37A     -0.452199    38A     -0.428291    39A     -0.393834
      40A     -0.369374    41A     -0.323299

  @DF-RHF Final Energy:  -509.85860258007409

   => Energetics <=

    Nuclear Repulsion Energy =            628.5977469216519466
    One-Electron Energy =               -1940.7779741696303972
    Two-Electron Energy =                 802.3216246679044161
    Total Energy =                       -509.8586025800741481
  Basis Set: (AUG-CC-PVTZ AUX)
    Blend: AUG-CC-PVTZ-RI
    Molecular point group: c1

    Geometry (in Angstrom), charge = 0, multiplicity = 1:

       Center              X                  Y                   Z               Mass
    ------------   -----------------  -----------------  -----------------  -----------------
         O           -0.875420041774     1.722212131662    -0.413084499578    15.994914619570
         N            1.664768858226     0.477280331662     0.155523300422    14.003074004430
         N           -1.950716141774    -0.189047668338     0.062058300422    14.003074004430
         N            0.742397858226    -1.506330668338    -0.331110699578    14.003074004430
         C            0.496711858226    -0.213564668338    -0.065616699578    12.000000000000
         C           -0.797150141774     0.507315331662    -0.145675699578    12.000000000000
         C            2.689923858226    -0.425107668338     0.037562300422    12.000000000000
         C            1.845096858226     1.898996331662     0.442377300422    12.000000000000
         C           -3.212031141774     0.506089331662    -0.143230699578    12.000000000000
         C           -2.071870141774    -1.543616668338     0.581202300422    12.000000000000
         C            2.099527858226    -1.636705668338    -0.262783699578    12.000000000000
         H            3.720290858226    -0.132861668338     0.185321300422     1.007825032230
         H            1.117933858226     2.221432331662     1.184803300422     1.007825032230
         H            2.857047858226     2.030386331662     0.828852300422     1.007825032230
         H            1.700500858226     2.486768331662    -0.462825699578     1.007825032230
         H           -3.868288141774    -0.112851668338    -0.763254699578     1.007825032230
         H           -3.013078141774     1.454568331662    -0.637686699578     1.007825032230
         H           -3.709202141774     0.693905331662     0.815718300422     1.007825032230
         H           -1.095801141774    -1.944885668338     0.832240300422     1.007825032230
         H           -2.530812141774    -2.195841668338    -0.169739699578     1.007825032230
         H           -2.715370141774    -1.524486668338     1.468473300422     1.007825032230
         H            2.583586858226    -2.589553668338    -0.433206699578     1.007825032230

  Basis Set: AUG-CC-PVTZ
    Blend: AUG-CC-PVTZ
  Basis Set: (AUG-CC-PVTZ AUX)
    Blend: AUG-CC-PVTZ-JKFIT
	 Reference Energy          =    -509.8586025800740913 [Eh]
	 Singles Energy            =      -0.0000000000000000 [Eh]
	 Same-Spin Energy          =      -0.5441160998699477 [Eh]
	 Opposite-Spin Energy      =      -1.6956520507814348 [Eh]
	 Correlation Energy        =      -2.2397681506513827 [Eh]
	 Total Energy              =    -512.0983707307254917 [Eh]

	 ================> DF-SCS-MP2 Energies <==================
	-----------------------------------------------------------
	 SCS Same-Spin Scale       =       0.3333333333333333 [-]
	 SCS Opposite-Spin Scale   =       1.2000000000000000 [-]
	 SCS Same-Spin Energy      =      -0.1813720332899826 [Eh]
	 SCS Opposite-Spin Energy  =      -2.0347824609377216 [Eh]
	 SCS Correlation Energy    =      -2.2161544942277041 [Eh]
	 SCS Total Energy          =    -512.0747570743018287 [Eh]
	-----------------------------------------------------------

  Dipole Moment: [D]
     X:     1.0927      Y:    -0.0062      Z:     1.7063     Total:     2.0262

*** Psi4 exiting successfully. Buy a developer a beer!
