                               Psi4 1.4a3.dev225

  ==> Input File <==

--------------------------------------------------------------------------
#psi4
#
memory 32 gb

molecule  {
0 1
  O       -0.7670850     1.7208920    -0.4354900
  N        1.6863020     0.4747470     0.1388600
  N       -1.9291830    -0.1915810     0.0453950
  N        0.7639310    -1.5088640    -0.3477740
  C        0.5607209    -0.1909757    -0.0742383
  C       -0.7756170     0.5047820    -0.1623390
  C        2.7114570    -0.4276410     0.0208990
  C        1.8666300     1.8964630     0.4257140
  C       -3.1904980     0.5035560    -0.1598940
  C       -2.0503370    -1.5461500     0.5645390
  C        2.1210610    -1.6392390    -0.2794470
  H        3.7418240    -0.1353950     0.1686580
  H        1.1394670     2.2188990     1.1681400
  H        2.8785810     2.0278530     0.8121890
  H        1.7220340     2.4842350    -0.4794890
  H       -3.8467550    -0.1153850    -0.7799180
  H       -2.9915450     1.4520350    -0.6543500
  H       -3.6876690     0.6913720     0.7990550
  H       -1.0742680    -1.9474190     0.8155770
  H       -2.5092790    -2.1983750    -0.1864030
  H       -2.6938370    -1.5270200     1.4518100
  H        2.6051200    -2.5920870    -0.4498700
units angstrom
no_reorient  #important for SAPT in psi4, default
symmetry c1  #important for SAPT in psi4, default
}

set PROPERTIES_ORIGIN ["COM"]
properties('MP2/aug-cc-pvtz', properties = ['dipole'])
--------------------------------------------------------------------------

    Molecular point group: c1
  Charge       = 0
  Multiplicity = 1
  Basis Set: AUG-CC-PVTZ
    Blend: AUG-CC-PVTZ
  Basis Set: (AUG-CC-PVTZ AUX)
    Blend: AUG-CC-PVTZ-JKFIT

    Orbital Energies [Eh]
    ---------------------

    Doubly Occupied:

       1A    -20.517354     2A    -15.636788     3A    -15.592748
       4A    -15.557774     5A    -11.364212     6A    -11.304870
       7A    -11.275023     8A    -11.264794     9A    -11.254676
      10A    -11.253192    11A    -11.251976    12A     -1.382718
      13A     -1.350523    14A     -1.245084    15A     -1.188268
      16A     -1.029195    17A     -0.980654    18A     -0.966745
      19A     -0.940464    20A     -0.828118    21A     -0.812846
      22A     -0.743346    23A     -0.710865    24A     -0.664441
      25A     -0.655244    26A     -0.644697    27A     -0.642872
      28A     -0.604501    29A     -0.596495    30A     -0.571407
      31A     -0.564938    32A     -0.556769    33A     -0.555250
      34A     -0.552881    35A     -0.527431    36A     -0.523456
      37A     -0.449581    38A     -0.428002    39A     -0.391741
      40A     -0.373025    41A     -0.320434

  @DF-RHF Final Energy:  -509.85914292832331

   => Energetics <=

    Nuclear Repulsion Energy =            629.1757547387244358
    One-Electron Energy =               -1941.9189949978413097
    Two-Electron Energy =                 802.8840973307935656
    Total Energy =                       -509.8591429283233083
  Basis Set: (AUG-CC-PVTZ AUX)
    Blend: AUG-CC-PVTZ-RI
    Molecular point group: c1

    Geometry (in Angstrom), charge = 0, multiplicity = 1:

       Center              X                  Y                   Z               Mass
    ------------   -----------------  -----------------  -----------------  -----------------
         O           -0.801016712229     1.721329360756    -0.418857102575    15.994914619570
         N            1.652370287771     0.475184360756     0.155492897425    14.003074004430
         N           -1.963114712229    -0.191143639244     0.062027897425    14.003074004430
         N            0.729999287771    -1.508426639244    -0.331141102575    14.003074004430
         C            0.526789187771    -0.190538339244    -0.057605402575    12.000000000000
         C           -0.809548712229     0.505219360756    -0.145706102575    12.000000000000
         C            2.677525287771    -0.427203639244     0.037531897425    12.000000000000
         C            1.832698287771     1.896900360756     0.442346897425    12.000000000000
         C           -3.224429712229     0.503993360756    -0.143261102575    12.000000000000
         C           -2.084268712229    -1.545712639244     0.581171897425    12.000000000000
         C            2.087129287771    -1.638801639244    -0.262814102575    12.000000000000
         H            3.707892287771    -0.134957639244     0.185290897425     1.007825032230
         H            1.105535287771     2.219336360756     1.184772897425     1.007825032230
         H            2.844649287771     2.028290360756     0.828821897425     1.007825032230
         H            1.688102287771     2.484672360756    -0.462856102575     1.007825032230
         H           -3.880686712229    -0.114947639244    -0.763285102575     1.007825032230
         H           -3.025476712229     1.452472360756    -0.637717102575     1.007825032230
         H           -3.721600712229     0.691809360756     0.815687897425     1.007825032230
         H           -1.108199712229    -1.946981639244     0.832209897425     1.007825032230
         H           -2.543210712229    -2.197937639244    -0.169770102575     1.007825032230
         H           -2.727768712229    -1.526582639244     1.468442897425     1.007825032230
         H            2.571188287771    -2.591649639244    -0.433237102575     1.007825032230

  Basis Set: AUG-CC-PVTZ
    Blend: AUG-CC-PVTZ
  Basis Set: (AUG-CC-PVTZ AUX)
    Blend: AUG-CC-PVTZ-JKFIT
	 Reference Energy          =    -509.8591429283233083 [Eh]
	 Singles Energy            =      -0.0000000000000000 [Eh]
	 Same-Spin Energy          =      -0.5434239083701597 [Eh]
	 Opposite-Spin Energy      =      -1.6945908168899577 [Eh]
	 Correlation Energy        =      -2.2380147252601175 [Eh]
	 Total Energy              =    -512.0971576535833947 [Eh]

	 ================> DF-SCS-MP2 Energies <==================
	-----------------------------------------------------------
	 SCS Same-Spin Scale       =       0.3333333333333333 [-]
	 SCS Opposite-Spin Scale   =       1.2000000000000000 [-]
	 SCS Same-Spin Energy      =      -0.1811413027900532 [Eh]
	 SCS Opposite-Spin Energy  =      -2.0335089802679494 [Eh]
	 SCS Correlation Energy    =      -2.2146502830580026 [Eh]
	 SCS Total Energy          =    -512.0737932113812576 [Eh]
	-----------------------------------------------------------

  Dipole Moment: [D]
     X:     0.7484      Y:     0.1011      Z:     1.7456     Total:     1.9019

*** Psi4 exiting successfully. Buy a developer a beer!
