                               Psi4 1.4a3.dev225

  ==> Input File <==

--------------------------------------------------------------------------
#psi4
#
memory 32 gb

molecule  {
0 1
  O       -0.7670850     1.7208920    -0.4354900
  N        1.6863020     0.4747470     0.1388600
  N       -1.9291830    -0.1915810     0.0453950
  N        0.7639310    -1.5088640    -0.3477740
  C        0.5182450    -0.2160980    -0.0822800
  C       -0.7756170     0.5047820    -0.1623390
  C        2.7114570    -0.4276410     0.0208990
  C        1.8666300     1.8964630     0.4257140
  C       -3.1904980     0.5035560    -0.1598940
  C       -2.0503370    -1.5461500     0.5645390
  C        2.1296122    -1.6216904    -0.2750968
  H        3.7418240    -0.1353950     0.1686580
  H        1.1394670     2.2188990     1.1681400
  H        2.8785810     2.0278530     0.8121890
  H        1.7220340     2.4842350    -0.4794890
  H       -3.8467550    -0.1153850    -0.7799180
  H       -2.9915450     1.4520350    -0.6543500
  H       -3.6876690     0.6913720     0.7990550
  H       -1.0742680    -1.9474190     0.8155770
  H       -2.5092790    -2.1983750    -0.1864030
  H       -2.6938370    -1.5270200     1.4518100
  H        2.6051200    -2.5920870    -0.4498700
units angstrom
no_reorient  #important for SAPT in psi4, default
symmetry c1  #important for SAPT in psi4, default
}

set PROPERTIES_ORIGIN ["COM"]
properties('MP2/aug-cc-pvtz', properties = ['dipole'])
--------------------------------------------------------------------------

    Molecular point group: c1
  Charge       = 0
  Multiplicity = 1
  Basis Set: AUG-CC-PVTZ
    Blend: AUG-CC-PVTZ
  Basis Set: (AUG-CC-PVTZ AUX)
    Blend: AUG-CC-PVTZ-JKFIT

    Orbital Energies [Eh]
    ---------------------

    Doubly Occupied:

       1A    -20.518249     2A    -15.632006     3A    -15.592553
       4A    -15.561434     5A    -11.363457     6A    -11.306435
       7A    -11.271530     8A    -11.266935     9A    -11.255587
      10A    -11.253123    11A    -11.249950    12A     -1.381007
      13A     -1.342496    14A     -1.245889    15A     -1.187061
      16A     -1.034664    17A     -0.976101    18A     -0.966974
      19A     -0.939262    20A     -0.832970    21A     -0.809235
      22A     -0.741779    23A     -0.710205    24A     -0.662690
      25A     -0.655261    26A     -0.646212    27A     -0.640132
      28A     -0.601933    29A     -0.593645    30A     -0.574139
      31A     -0.562596    32A     -0.556307    33A     -0.554969
      34A     -0.553133    35A     -0.527471    36A     -0.523461
      37A     -0.452110    38A     -0.429485    39A     -0.389812
      40A     -0.373461    41A     -0.324114

  @DF-RHF Final Energy:  -509.86034448762496

   => Energetics <=

    Nuclear Repulsion Energy =            629.2164208907204284
    One-Electron Energy =               -1942.0338696044964308
    Two-Electron Energy =                 802.9571042261510456
    Total Energy =                       -509.8603444876249569
  Basis Set: (AUG-CC-PVTZ AUX)
    Blend: AUG-CC-PVTZ-RI
    Molecular point group: c1

    Geometry (in Angstrom), charge = 0, multiplicity = 1:

       Center              X                  Y                   Z               Mass
    ------------   -----------------  -----------------  -----------------  -----------------
         O           -0.798357519360     1.721923026404    -0.418567743775    15.994914619570
         N            1.655029480640     0.475778026404     0.155782256225    14.003074004430
         N           -1.960455519360    -0.190549973596     0.062317256225    14.003074004430
         N            0.732658480640    -1.507832973596    -0.330851743775    14.003074004430
         C            0.486972480640    -0.215066973596    -0.065357743775    12.000000000000
         C           -0.806889519360     0.505813026404    -0.145416743775    12.000000000000
         C            2.680184480640    -0.426609973596     0.037821256225    12.000000000000
         C            1.835357480640     1.897494026404     0.442636256225    12.000000000000
         C           -3.221770519360     0.504587026404    -0.142971743775    12.000000000000
         C           -2.081609519360    -1.545118973596     0.581461256225    12.000000000000
         C            2.098339680640    -1.620659373596    -0.258174543775    12.000000000000
         H            3.710551480640    -0.134363973596     0.185580256225     1.007825032230
         H            1.108194480640     2.219930026404     1.185062256225     1.007825032230
         H            2.847308480640     2.028884026404     0.829111256225     1.007825032230
         H            1.690761480640     2.485266026404    -0.462566743775     1.007825032230
         H           -3.878027519360    -0.114353973596    -0.762995743775     1.007825032230
         H           -3.022817519360     1.453066026404    -0.637427743775     1.007825032230
         H           -3.718941519360     0.692403026404     0.815977256225     1.007825032230
         H           -1.105540519360    -1.946387973596     0.832499256225     1.007825032230
         H           -2.540551519360    -2.197343973596    -0.169480743775     1.007825032230
         H           -2.725109519360    -1.525988973596     1.468732256225     1.007825032230
         H            2.573847480640    -2.591055973596    -0.432947743775     1.007825032230

  Basis Set: AUG-CC-PVTZ
    Blend: AUG-CC-PVTZ
  Basis Set: (AUG-CC-PVTZ AUX)
    Blend: AUG-CC-PVTZ-JKFIT
	 Reference Energy          =    -509.8603444876249569 [Eh]
	 Singles Energy            =      -0.0000000000000000 [Eh]
	 Same-Spin Energy          =      -0.5436922968167972 [Eh]
	 Opposite-Spin Energy      =      -1.6952269249590182 [Eh]
	 Correlation Energy        =      -2.2389192217758156 [Eh]
	 Total Energy              =    -512.0992637094008160 [Eh]

	 ================> DF-SCS-MP2 Energies <==================
	-----------------------------------------------------------
	 SCS Same-Spin Scale       =       0.3333333333333333 [-]
	 SCS Opposite-Spin Scale   =       1.2000000000000000 [-]
	 SCS Same-Spin Energy      =      -0.1812307656055991 [Eh]
	 SCS Opposite-Spin Energy  =      -2.0342723099508215 [Eh]
	 SCS Correlation Energy    =      -2.2155030755564207 [Eh]
	 SCS Total Energy          =    -512.0758475631813553 [Eh]
	-----------------------------------------------------------

  Dipole Moment: [D]
     X:     0.7291      Y:     0.0115      Z:     1.7213     Total:     1.8694

*** Psi4 exiting successfully. Buy a developer a beer!
