                               Psi4 1.3.2 release

  ==> Input File <==

--------------------------------------------------------------------------
#psi4
#
memory 32 gb

molecule  {
0 1
  O       -0.7670850     1.7208920    -0.4354900
  N        1.6863020     0.4747470     0.1388600
  N       -1.9291830    -0.1915810     0.0453950
  N        0.7639310    -1.5088640    -0.3477740
  C        0.5182450    -0.2160980    -0.0822800
  C       -0.7756170     0.5047820    -0.1623390
  C        2.6954729    -0.4449252     0.0166358
  C        1.8666300     1.8964630     0.4257140
  C       -3.1904980     0.5035560    -0.1598940
  C       -2.0503370    -1.5461500     0.5645390
  C        2.1210610    -1.6392390    -0.2794470
  H        3.7418240    -0.1353950     0.1686580
  H        1.1394670     2.2188990     1.1681400
  H        2.8785810     2.0278530     0.8121890
  H        1.7220340     2.4842350    -0.4794890
  H       -3.8467550    -0.1153850    -0.7799180
  H       -2.9915450     1.4520350    -0.6543500
  H       -3.6876690     0.6913720     0.7990550
  H       -1.0742680    -1.9474190     0.8155770
  H       -2.5092790    -2.1983750    -0.1864030
  H       -2.6938370    -1.5270200     1.4518100
  H        2.6051200    -2.5920870    -0.4498700
units angstrom
no_reorient  #important for SAPT in psi4, default
symmetry c1  #important for SAPT in psi4, default
}

set PROPERTIES_ORIGIN ["COM"]
properties('MP2/aug-cc-pvtz', properties = ['dipole'])
--------------------------------------------------------------------------

    Molecular point group: c1
  Charge       = 0
  Multiplicity = 1
  Basis Set: AUG-CC-PVTZ
    Blend: AUG-CC-PVTZ
  Basis Set: (AUG-CC-PVTZ AUX)
    Blend: AUG-CC-PVTZ-JKFIT

    Orbital Energies [Eh]
    ---------------------

    Doubly Occupied:

       1A    -20.517939     2A    -15.632106     3A    -15.592171
       4A    -15.560578     5A    -11.363084     6A    -11.305672
       7A    -11.272262     8A    -11.268104     9A    -11.255287
      10A    -11.252877    11A    -11.248198    12A     -1.380853
      13A     -1.343038    14A     -1.245562    15A     -1.188306
      16A     -1.034020    17A     -0.976749    18A     -0.966717
      19A     -0.939201    20A     -0.833920    21A     -0.807621
      22A     -0.742717    23A     -0.709272    24A     -0.662179
      25A     -0.655541    26A     -0.643544    27A     -0.639921
      28A     -0.603353    29A     -0.594795    30A     -0.574285
      31A     -0.562477    32A     -0.557723    33A     -0.555218
      34A     -0.553153    35A     -0.527383    36A     -0.523405
      37A     -0.450425    38A     -0.428857    39A     -0.390639
      40A     -0.373222    41A     -0.323850

  @DF-RHF Final Energy:  -509.86040207647784

   => Energetics <=

    Nuclear Repulsion Energy =            629.3575701535036160
    One-Electron Energy =               -1942.3234949828536173
    Two-Electron Energy =                 803.1055227528722753
    Total Energy =                       -509.8604020764778397
  Basis Set: (AUG-CC-PVTZ AUX)
    Blend: AUG-CC-PVTZ-RI
    Molecular point group: c1

    Geometry (in Angstrom), charge = 0, multiplicity = 1:

       Center              X                  Y                   Z               Mass
    ------------   -----------------  -----------------  -----------------  -----------------
         O           -0.796434316066     1.724653400832    -0.417892581081    15.994914619570
         N            1.656952683934     0.478508400832     0.156457418919    14.003074004430
         N           -1.958532316066    -0.187819599168     0.062992418919    14.003074004430
         N            0.734581683934    -1.505102599168    -0.330176581081    14.003074004430
         C            0.488895683934    -0.212336599168    -0.064682581081    12.000000000000
         C           -0.804966316066     0.508543400832    -0.144741581081    12.000000000000
         C            2.666123583934    -0.441163799168     0.034233218919    12.000000000000
         C            1.837280683934     1.900224400832     0.443311418919    12.000000000000
         C           -3.219847316066     0.507317400832    -0.142296581081    12.000000000000
         C           -2.079686316066    -1.542388599168     0.582136418919    12.000000000000
         C            2.091711683934    -1.635477599168    -0.261849581081    12.000000000000
         H            3.712474683934    -0.131633599168     0.186255418919     1.007825032230
         H            1.110117683934     2.222660400832     1.185737418919     1.007825032230
         H            2.849231683934     2.031614400832     0.829786418919     1.007825032230
         H            1.692684683934     2.487996400832    -0.461891581081     1.007825032230
         H           -3.876104316066    -0.111623599168    -0.762320581081     1.007825032230
         H           -3.020894316066     1.455796400832    -0.636752581081     1.007825032230
         H           -3.717018316066     0.695133400832     0.816652418919     1.007825032230
         H           -1.103617316066    -1.943657599168     0.833174418919     1.007825032230
         H           -2.538628316066    -2.194613599168    -0.168805581081     1.007825032230
         H           -2.723186316066    -1.523258599168     1.469407418919     1.007825032230
         H            2.575770683934    -2.588325599168    -0.432272581081     1.007825032230

  Basis Set: AUG-CC-PVTZ
    Blend: AUG-CC-PVTZ
  Basis Set: (AUG-CC-PVTZ AUX)
    Blend: AUG-CC-PVTZ-JKFIT
	 Reference Energy          =    -509.8604020764778397 [Eh]
	 Singles Energy            =      -0.0000000000000000 [Eh]
	 Same-Spin Energy          =      -0.5436661219917356 [Eh]
	 Opposite-Spin Energy      =      -1.6950181504268200 [Eh]
	 Correlation Energy        =      -2.2386842724185554 [Eh]
	 Total Energy              =    -512.0990863488964351 [Eh]

	 ================> DF-SCS-MP2 Energies <==================
	-----------------------------------------------------------
	 SCS Same-Spin Scale       =       0.3333333333333333 [-]
	 SCS Opposite-Spin Scale   =       1.2000000000000000 [-]
	 SCS Same-Spin Energy      =      -0.1812220406639118 [Eh]
	 SCS Opposite-Spin Energy  =      -2.0340217805121839 [Eh]
	 SCS Correlation Energy    =      -2.2152438211760956 [Eh]
	 SCS Total Energy          =    -512.0756458976538852 [Eh]
	-----------------------------------------------------------

  Dipole Moment: [D]
     X:     0.7391      Y:    -0.0068      Z:     1.7156     Total:     1.8680

*** Psi4 exiting successfully. Buy a developer a beer!
