                               Psi4 1.3.2 release

  ==> Input File <==

--------------------------------------------------------------------------
#psi4
#
memory 32 gb

molecule  {
0 1
  O       -0.7670850     1.7208920    -0.4354900
  N        1.6863020     0.4747470     0.1388600
  N       -1.9163878    -0.2113484     0.0488210
  N        0.7639310    -1.5088640    -0.3477740
  C        0.5182450    -0.2160980    -0.0822800
  C       -0.7756170     0.5047820    -0.1623390
  C        2.7114570    -0.4276410     0.0208990
  C        1.8666300     1.8964630     0.4257140
  C       -3.1904980     0.5035560    -0.1598940
  C       -2.0503370    -1.5461500     0.5645390
  C        2.1210610    -1.6392390    -0.2794470
  H        3.7418240    -0.1353950     0.1686580
  H        1.1394670     2.2188990     1.1681400
  H        2.8785810     2.0278530     0.8121890
  H        1.7220340     2.4842350    -0.4794890
  H       -3.8467550    -0.1153850    -0.7799180
  H       -2.9915450     1.4520350    -0.6543500
  H       -3.6876690     0.6913720     0.7990550
  H       -1.0742680    -1.9474190     0.8155770
  H       -2.5092790    -2.1983750    -0.1864030
  H       -2.6938370    -1.5270200     1.4518100
  H        2.6051200    -2.5920870    -0.4498700
units angstrom
no_reorient  #important for SAPT in psi4, default
symmetry c1  #important for SAPT in psi4, default
}

set PROPERTIES_ORIGIN ["COM"]
properties('MP2/aug-cc-pvtz', properties = ['dipole'])
--------------------------------------------------------------------------

    Molecular point group: c1
  Charge       = 0
  Multiplicity = 1
  Basis Set: AUG-CC-PVTZ
    Blend: AUG-CC-PVTZ
  Basis Set: (AUG-CC-PVTZ AUX)
    Blend: AUG-CC-PVTZ-JKFIT

    Orbital Energies [Eh]
    ---------------------

    Doubly Occupied:

       1A    -20.518732     2A    -15.633205     3A    -15.592693
       4A    -15.561111     5A    -11.363589     6A    -11.304490
       7A    -11.271867     8A    -11.268912     9A    -11.254720
      10A    -11.254110    11A    -11.251027    12A     -1.380513
      13A     -1.341601    14A     -1.246614    15A     -1.188322
      16A     -1.031350    17A     -0.976252    18A     -0.967427
      19A     -0.939113    20A     -0.831382    21A     -0.810481
      22A     -0.741804    23A     -0.709596    24A     -0.662711
      25A     -0.655540    26A     -0.645869    27A     -0.639812
      28A     -0.605173    29A     -0.592010    30A     -0.576266
      31A     -0.562830    32A     -0.555520    33A     -0.554649
      34A     -0.552884    35A     -0.528313    36A     -0.523229
      37A     -0.450619    38A     -0.428485    39A     -0.391090
      40A     -0.373985    41A     -0.320154

  @DF-RHF Final Energy:  -509.85950927309983

   => Energetics <=

    Nuclear Repulsion Energy =            629.0630312195381748
    One-Electron Energy =               -1941.7289778664583082
    Two-Electron Energy =                 802.8064373738201311
    Total Energy =                       -509.8595092730998886
  Basis Set: (AUG-CC-PVTZ AUX)
    Blend: AUG-CC-PVTZ-RI
    Molecular point group: c1

    Geometry (in Angstrom), charge = 0, multiplicity = 1:

       Center              X                  Y                   Z               Mass
    ------------   -----------------  -----------------  -----------------  -----------------
         O           -0.798857601838     1.725106688892    -0.418540126932    15.994914619570
         N            1.654529398162     0.478961688892     0.155809873068    14.003074004430
         N           -1.948160401838    -0.207133711108     0.065770873068    14.003074004430
         N            0.732158398162    -1.504649311108    -0.330824126932    14.003074004430
         C            0.486472398162    -0.211883311108    -0.065330126932    12.000000000000
         C           -0.807389601838     0.508996688892    -0.145389126932    12.000000000000
         C            2.679684398162    -0.423426311108     0.037848873068    12.000000000000
         C            1.834857398162     1.900677688892     0.442663873068    12.000000000000
         C           -3.222270601838     0.507770688892    -0.142944126932    12.000000000000
         C           -2.082109601838    -1.541935311108     0.581488873068    12.000000000000
         C            2.089288398162    -1.635024311108    -0.262497126932    12.000000000000
         H            3.710051398162    -0.131180311108     0.185607873068     1.007825032230
         H            1.107694398162     2.223113688892     1.185089873068     1.007825032230
         H            2.846808398162     2.032067688892     0.829138873068     1.007825032230
         H            1.690261398162     2.488449688892    -0.462539126932     1.007825032230
         H           -3.878527601838    -0.111170311108    -0.762968126932     1.007825032230
         H           -3.023317601838     1.456249688892    -0.637400126932     1.007825032230
         H           -3.719441601838     0.695586688892     0.816004873068     1.007825032230
         H           -1.106040601838    -1.943204311108     0.832526873068     1.007825032230
         H           -2.541051601838    -2.194160311108    -0.169453126932     1.007825032230
         H           -2.725609601838    -1.522805311108     1.468759873068     1.007825032230
         H            2.573347398162    -2.587872311108    -0.432920126932     1.007825032230

  Basis Set: AUG-CC-PVTZ
    Blend: AUG-CC-PVTZ
  Basis Set: (AUG-CC-PVTZ AUX)
    Blend: AUG-CC-PVTZ-JKFIT
	 Reference Energy          =    -509.8595092730998317 [Eh]
	 Singles Energy            =      -0.0000000000000000 [Eh]
	 Same-Spin Energy          =      -0.5440414071138298 [Eh]
	 Opposite-Spin Energy      =      -1.6956982477007430 [Eh]
	 Correlation Energy        =      -2.2397396548145725 [Eh]
	 Total Energy              =    -512.0992489279144593 [Eh]

	 ================> DF-SCS-MP2 Energies <==================
	-----------------------------------------------------------
	 SCS Same-Spin Scale       =       0.3333333333333333 [-]
	 SCS Opposite-Spin Scale   =       1.2000000000000000 [-]
	 SCS Same-Spin Energy      =      -0.1813471357046099 [Eh]
	 SCS Opposite-Spin Energy  =      -2.0348378972408914 [Eh]
	 SCS Correlation Energy    =      -2.2161850329455013 [Eh]
	 SCS Total Energy          =    -512.0756943060453068 [Eh]
	-----------------------------------------------------------

  Dipole Moment: [D]
     X:     0.6974      Y:     0.0396      Z:     1.7108     Total:     1.8480

*** Psi4 exiting successfully. Buy a developer a beer!
