                               Psi4 1.3.2 release

  ==> Input File <==

--------------------------------------------------------------------------
#psi4
#
memory 32 gb

molecule  {
0 1
  O       -0.7670850     1.7208920    -0.4354900
  N        1.6863020     0.4747470     0.1388600
  N       -1.9537154    -0.1514159     0.0383541
  N        0.7639310    -1.5088640    -0.3477740
  C        0.5182450    -0.2160980    -0.0822800
  C       -0.7756170     0.5047820    -0.1623390
  C        2.7114570    -0.4276410     0.0208990
  C        1.8666300     1.8964630     0.4257140
  C       -3.1904980     0.5035560    -0.1598940
  C       -2.0503370    -1.5461500     0.5645390
  C        2.1210610    -1.6392390    -0.2794470
  H        3.7418240    -0.1353950     0.1686580
  H        1.1394670     2.2188990     1.1681400
  H        2.8785810     2.0278530     0.8121890
  H        1.7220340     2.4842350    -0.4794890
  H       -3.8467550    -0.1153850    -0.7799180
  H       -2.9915450     1.4520350    -0.6543500
  H       -3.6876690     0.6913720     0.7990550
  H       -1.0742680    -1.9474190     0.8155770
  H       -2.5092790    -2.1983750    -0.1864030
  H       -2.6938370    -1.5270200     1.4518100
  H        2.6051200    -2.5920870    -0.4498700
units angstrom
no_reorient  #important for SAPT in psi4, default
symmetry c1  #important for SAPT in psi4, default
}

set PROPERTIES_ORIGIN ["COM"]
properties('MP2/aug-cc-pvtz', properties = ['dipole'])
--------------------------------------------------------------------------

    Molecular point group: c1
  Charge       = 0
  Multiplicity = 1
  Basis Set: AUG-CC-PVTZ
    Blend: AUG-CC-PVTZ
  Basis Set: (AUG-CC-PVTZ AUX)
    Blend: AUG-CC-PVTZ-JKFIT

    Orbital Energies [Eh]
    ---------------------

    Doubly Occupied:

       1A    -20.515701     2A    -15.634952     3A    -15.590855
       4A    -15.562589     5A    -11.362313     6A    -11.307367
       7A    -11.272336     8A    -11.270303     9A    -11.257825
      10A    -11.252207    11A    -11.249048    12A     -1.380901
      13A     -1.343001    14A     -1.244476    15A     -1.189761
      16A     -1.033439    17A     -0.977727    18A     -0.965404
      19A     -0.938049    20A     -0.832930    21A     -0.811539
      22A     -0.742179    23A     -0.710430    24A     -0.662616
      25A     -0.655465    26A     -0.645976    27A     -0.640521
      28A     -0.606748    29A     -0.593108    30A     -0.573054
      31A     -0.568377    32A     -0.559355    33A     -0.553651
      34A     -0.553172    35A     -0.522428    36A     -0.521492
      37A     -0.450999    38A     -0.429336    39A     -0.392256
      40A     -0.371159    41A     -0.321543

  @DF-RHF Final Energy:  -509.85815782104982

   => Energetics <=

    Nuclear Repulsion Energy =            628.8688422531140532
    One-Electron Energy =               -1941.3208224659661028
    Two-Electron Energy =                 802.5938223918021777
    Total Energy =                       -509.8581578210498719
  Basis Set: (AUG-CC-PVTZ AUX)
    Blend: AUG-CC-PVTZ-RI
    Molecular point group: c1

    Geometry (in Angstrom), charge = 0, multiplicity = 1:

       Center              X                  Y                   Z               Mass
    ------------   -----------------  -----------------  -----------------  -----------------
         O           -0.795443267646     1.719624697444    -0.417582725584    15.994914619570
         N            1.657943732354     0.473479697444     0.156767274416    14.003074004430
         N           -1.982073667646    -0.152683202556     0.056261374416    14.003074004430
         N            0.735572732354    -1.510131302556    -0.329866725584    14.003074004430
         C            0.489886732354    -0.217365302556    -0.064372725584    12.000000000000
         C           -0.803975267646     0.503514697444    -0.144431725584    12.000000000000
         C            2.683098732354    -0.428908302556     0.038806274416    12.000000000000
         C            1.838271732354     1.895195697444     0.443621274416    12.000000000000
         C           -3.218856267646     0.502288697444    -0.141986725584    12.000000000000
         C           -2.078695267646    -1.547417302556     0.582446274416    12.000000000000
         C            2.092702732354    -1.640506302556    -0.261539725584    12.000000000000
         H            3.713465732354    -0.136662302556     0.186565274416     1.007825032230
         H            1.111108732354     2.217631697444     1.186047274416     1.007825032230
         H            2.850222732354     2.026585697444     0.830096274416     1.007825032230
         H            1.693675732354     2.482967697444    -0.461581725584     1.007825032230
         H           -3.875113267646    -0.116652302556    -0.762010725584     1.007825032230
         H           -3.019903267646     1.450767697444    -0.636442725584     1.007825032230
         H           -3.716027267646     0.690104697444     0.816962274416     1.007825032230
         H           -1.102626267646    -1.948686302556     0.833484274416     1.007825032230
         H           -2.537637267646    -2.199642302556    -0.168495725584     1.007825032230
         H           -2.722195267646    -1.528287302556     1.469717274416     1.007825032230
         H            2.576761732354    -2.593354302556    -0.431962725584     1.007825032230

  Basis Set: AUG-CC-PVTZ
    Blend: AUG-CC-PVTZ
  Basis Set: (AUG-CC-PVTZ AUX)
    Blend: AUG-CC-PVTZ-JKFIT
	 Reference Energy          =    -509.8581578210498151 [Eh]
	 Singles Energy            =      -0.0000000000000000 [Eh]
	 Same-Spin Energy          =      -0.5439448335510675 [Eh]
	 Opposite-Spin Energy      =      -1.6954491035841126 [Eh]
	 Correlation Energy        =      -2.2393939371351799 [Eh]
	 Total Energy              =    -512.0975517581849772 [Eh]

	 ================> DF-SCS-MP2 Energies <==================
	-----------------------------------------------------------
	 SCS Same-Spin Scale       =       0.3333333333333333 [-]
	 SCS Opposite-Spin Scale   =       1.2000000000000000 [-]
	 SCS Same-Spin Energy      =      -0.1813149445170225 [Eh]
	 SCS Opposite-Spin Energy  =      -2.0345389243009349 [Eh]
	 SCS Correlation Energy    =      -2.2158538688179572 [Eh]
	 SCS Total Energy          =    -512.0740116898678025 [Eh]
	-----------------------------------------------------------

  Dipole Moment: [D]
     X:     0.8423      Y:    -0.0870      Z:     1.7297     Total:     1.9259

*** Psi4 exiting successfully. Buy a developer a beer!
