                               Psi4 1.3.2 release

  ==> Input File <==

--------------------------------------------------------------------------
#psi4
#
memory 32 gb

molecule  {
0 1
  O       -0.7670850     1.7208920    -0.4354900
  N        1.6863020     0.4747470     0.1388600
  N       -1.9291830    -0.1915810     0.0453950
  N        0.7639310    -1.5088640    -0.3477740
  C        0.5182450    -0.2160980    -0.0822800
  C       -0.7756170     0.5047820    -0.1623390
  C        2.5618894    -0.2959848     0.0381092
  C        1.8666300     1.8964630     0.4257140
  C       -3.1904980     0.5035560    -0.1598940
  C       -2.0503370    -1.5461500     0.5645390
  C        2.1210610    -1.6392390    -0.2794470
  H        3.7418240    -0.1353950     0.1686580
  H        1.1394670     2.2188990     1.1681400
  H        2.8785810     2.0278530     0.8121890
  H        1.7220340     2.4842350    -0.4794890
  H       -3.8467550    -0.1153850    -0.7799180
  H       -2.9915450     1.4520350    -0.6543500
  H       -3.6876690     0.6913720     0.7990550
  H       -1.0742680    -1.9474190     0.8155770
  H       -2.5092790    -2.1983750    -0.1864030
  H       -2.6938370    -1.5270200     1.4518100
  H        2.6051200    -2.5920870    -0.4498700
units angstrom
no_reorient  #important for SAPT in psi4, default
symmetry c1  #important for SAPT in psi4, default
}

set PROPERTIES_ORIGIN ["COM"]
properties('MP2/aug-cc-pvtz', properties = ['dipole'])
--------------------------------------------------------------------------

    Molecular point group: c1
  Charge       = 0
  Multiplicity = 1
  Basis Set: AUG-CC-PVTZ
    Blend: AUG-CC-PVTZ
  Basis Set: (AUG-CC-PVTZ AUX)
    Blend: AUG-CC-PVTZ-JKFIT

    Orbital Energies [Eh]
    ---------------------

    Doubly Occupied:

       1A    -20.508859     2A    -15.643911     3A    -15.584664
       4A    -15.569775     5A    -11.355344     6A    -11.285632
       7A    -11.283309     8A    -11.277349     9A    -11.251513
      10A    -11.248388    11A    -11.247050    12A     -1.415078
      13A     -1.363682    14A     -1.240274    15A     -1.211087
      16A     -1.033969    17A     -0.992512    18A     -0.962001
      19A     -0.931968    20A     -0.843716    21A     -0.802613
      22A     -0.755738    23A     -0.708007    24A     -0.683515
      25A     -0.665745    26A     -0.645113    27A     -0.644619
      28A     -0.610349    29A     -0.587224    30A     -0.569521
      31A     -0.565931    32A     -0.559006    33A     -0.549506
      34A     -0.541635    35A     -0.524227    36A     -0.521638
      37A     -0.444470    38A     -0.424111    39A     -0.416570
      40A     -0.368605    41A     -0.297902

  @DF-RHF Final Energy:  -509.80227267829764

   => Energetics <=

    Nuclear Repulsion Energy =            633.3879765883675645
    One-Electron Energy =               -1950.1082433815042805
    Two-Electron Energy =                 806.9179941148390753
    Total Energy =                       -509.8022726782976406
  Basis Set: (AUG-CC-PVTZ AUX)
    Blend: AUG-CC-PVTZ-RI
    Molecular point group: c1

    Geometry (in Angstrom), charge = 0, multiplicity = 1:

       Center              X                  Y                   Z               Mass
    ------------   -----------------  -----------------  -----------------  -----------------
         O           -0.785963352710     1.712978684488    -0.419575776869    15.994914619570
         N            1.667423647290     0.466833684488     0.154774223131    14.003074004430
         N           -1.948061352710    -0.199494315512     0.061309223131    14.003074004430
         N            0.745052647290    -1.516777315512    -0.331859776869    14.003074004430
         C            0.499366647290    -0.224011315512    -0.066365776869    12.000000000000
         C           -0.794495352710     0.496868684488    -0.146424776869    12.000000000000
         C            2.543011047290    -0.303898115512     0.054023423131    12.000000000000
         C            1.847751647290     1.888549684488     0.441628223131    12.000000000000
         C           -3.209376352710     0.495642684488    -0.143979776869    12.000000000000
         C           -2.069215352710    -1.554063315512     0.580453223131    12.000000000000
         C            2.102182647290    -1.647152315512    -0.263532776869    12.000000000000
         H            3.722945647290    -0.143308315512     0.184572223131     1.007825032230
         H            1.120588647290     2.210985684488     1.184054223131     1.007825032230
         H            2.859702647290     2.019939684488     0.828103223131     1.007825032230
         H            1.703155647290     2.476321684488    -0.463574776869     1.007825032230
         H           -3.865633352710    -0.123298315512    -0.764003776869     1.007825032230
         H           -3.010423352710     1.444121684488    -0.638435776869     1.007825032230
         H           -3.706547352710     0.683458684488     0.814969223131     1.007825032230
         H           -1.093146352710    -1.955332315512     0.831491223131     1.007825032230
         H           -2.528157352710    -2.206288315512    -0.170488776869     1.007825032230
         H           -2.712715352710    -1.534933315512     1.467724223131     1.007825032230
         H            2.586241647290    -2.600000315512    -0.433955776869     1.007825032230

  Basis Set: AUG-CC-PVTZ
    Blend: AUG-CC-PVTZ
  Basis Set: (AUG-CC-PVTZ AUX)
    Blend: AUG-CC-PVTZ-JKFIT
	 Reference Energy          =    -509.8022726782976406 [Eh]
	 Singles Energy            =      -0.0000000000000000 [Eh]
	 Same-Spin Energy          =      -0.5447622219689985 [Eh]
	 Opposite-Spin Energy      =      -1.6940753402802011 [Eh]
	 Correlation Energy        =      -2.2388375622491994 [Eh]
	 Total Energy              =    -512.0411102405468000 [Eh]

	 ================> DF-SCS-MP2 Energies <==================
	-----------------------------------------------------------
	 SCS Same-Spin Scale       =       0.3333333333333333 [-]
	 SCS Opposite-Spin Scale   =       1.2000000000000000 [-]
	 SCS Same-Spin Energy      =      -0.1815874073229995 [Eh]
	 SCS Opposite-Spin Energy  =      -2.0328904083362414 [Eh]
	 SCS Correlation Energy    =      -2.2144778156592411 [Eh]
	 SCS Total Energy          =    -512.0167504939569199 [Eh]
	-----------------------------------------------------------

  Dipole Moment: [D]
     X:     1.0237      Y:     0.2448      Z:     1.7777     Total:     2.0659

*** Psi4 exiting successfully. Buy a developer a beer!
