                               Psi4 1.4a3.dev225

  ==> Input File <==

--------------------------------------------------------------------------
#psi4
#
memory 32 gb

molecule  {
0 1
  O       -0.7670850     1.7208920    -0.4354900
  N        1.6863020     0.4747470     0.1388600
  N       -1.9291830    -0.1915810     0.0453950
  N        0.7639310    -1.5088640    -0.3477740
  C        0.5182450    -0.2160980    -0.0822800
  C       -0.7756170     0.5047820    -0.1623390
  C        2.7114570    -0.4276410     0.0208990
  C        1.8666300     1.8964630     0.4257140
  C       -3.1904980     0.5035560    -0.1598940
  C       -2.0503370    -1.5461500     0.5645390
  C        2.1210610    -1.6392390    -0.2794470
  H        3.6941728    -0.1489105     0.1618246
  H        1.1394670     2.2188990     1.1681400
  H        2.8785810     2.0278530     0.8121890
  H        1.7220340     2.4842350    -0.4794890
  H       -3.8467550    -0.1153850    -0.7799180
  H       -2.9915450     1.4520350    -0.6543500
  H       -3.6876690     0.6913720     0.7990550
  H       -1.0742680    -1.9474190     0.8155770
  H       -2.5092790    -2.1983750    -0.1864030
  H       -2.6938370    -1.5270200     1.4518100
  H        2.6051200    -2.5920870    -0.4498700
units angstrom
no_reorient  #important for SAPT in psi4, default
symmetry c1  #important for SAPT in psi4, default
}

set PROPERTIES_ORIGIN ["COM"]
properties('MP2/aug-cc-pvtz', properties = ['dipole'])
--------------------------------------------------------------------------

    Molecular point group: c1
  Charge       = 0
  Multiplicity = 1
  Basis Set: AUG-CC-PVTZ
    Blend: AUG-CC-PVTZ
  Basis Set: (AUG-CC-PVTZ AUX)
    Blend: AUG-CC-PVTZ-JKFIT

    Orbital Energies [Eh]
    ---------------------

    Doubly Occupied:

       1A    -20.517666     2A    -15.633451     3A    -15.592047
       4A    -15.561324     5A    -11.362987     6A    -11.305266
       7A    -11.272097     8A    -11.263788     9A    -11.255309
      10A    -11.252809    11A    -11.251191    12A     -1.380501
      13A     -1.341881    14A     -1.245478    15A     -1.188712
      16A     -1.033342    17A     -0.976739    18A     -0.966738
      19A     -0.939354    20A     -0.832147    21A     -0.815734
      22A     -0.741815    23A     -0.711832    24A     -0.663985
      25A     -0.655472    26A     -0.649099    27A     -0.640046
      28A     -0.608068    29A     -0.593574    30A     -0.574351
      31A     -0.564218    32A     -0.557048    33A     -0.554798
      34A     -0.553015    35A     -0.527256    36A     -0.522924
      37A     -0.450736    38A     -0.428841    39A     -0.391288
      40A     -0.373131    41A     -0.320551

  @DF-RHF Final Energy:  -509.85962076244908

   => Energetics <=

    Nuclear Repulsion Energy =            629.2686265755403383
    One-Electron Energy =               -1942.1152682185850153
    Two-Electron Energy =                 802.9870208805955372
    Total Energy =                       -509.8596207624491399
  Basis Set: (AUG-CC-PVTZ AUX)
    Blend: AUG-CC-PVTZ-RI
    Molecular point group: c1

    Geometry (in Angstrom), charge = 0, multiplicity = 1:

       Center              X                  Y                   Z               Mass
    ------------   -----------------  -----------------  -----------------  -----------------
         O           -0.797373534361     1.723387551512    -0.418181766966    15.994914619570
         N            1.656013465639     0.477242551512     0.156168233034    14.003074004430
         N           -1.959471534361    -0.189085448488     0.062703233034    14.003074004430
         N            0.733642465639    -1.506368448488    -0.330465766966    14.003074004430
         C            0.487956465639    -0.213602448488    -0.064971766966    12.000000000000
         C           -0.805905534361     0.507277551512    -0.145030766966    12.000000000000
         C            2.681168465639    -0.425145448488     0.038207233034    12.000000000000
         C            1.836341465639     1.898958551512     0.443022233034    12.000000000000
         C           -3.220786534361     0.506051551512    -0.142585766966    12.000000000000
         C           -2.080625534361    -1.543654448488     0.581847233034    12.000000000000
         C            2.090772465639    -1.636743448488    -0.262138766966    12.000000000000
         H            3.663884265639    -0.146414948488     0.179132833034     1.007825032230
         H            1.109178465639     2.221394551512     1.185448233034     1.007825032230
         H            2.848292465639     2.030348551512     0.829497233034     1.007825032230
         H            1.691745465639     2.486730551512    -0.462180766966     1.007825032230
         H           -3.877043534361    -0.112889448488    -0.762609766966     1.007825032230
         H           -3.021833534361     1.454530551512    -0.637041766966     1.007825032230
         H           -3.717957534361     0.693867551512     0.816363233034     1.007825032230
         H           -1.104556534361    -1.944923448488     0.832885233034     1.007825032230
         H           -2.539567534361    -2.195879448488    -0.169094766966     1.007825032230
         H           -2.724125534361    -1.524524448488     1.469118233034     1.007825032230
         H            2.574831465639    -2.589591448488    -0.432561766966     1.007825032230

  Basis Set: AUG-CC-PVTZ
    Blend: AUG-CC-PVTZ
  Basis Set: (AUG-CC-PVTZ AUX)
    Blend: AUG-CC-PVTZ-JKFIT
	 Reference Energy          =    -509.8596207624490830 [Eh]
	 Singles Energy            =      -0.0000000000000000 [Eh]
	 Same-Spin Energy          =      -0.5438329750429791 [Eh]
	 Opposite-Spin Energy      =      -1.6951649400182160 [Eh]
	 Correlation Energy        =      -2.2389979150611952 [Eh]
	 Total Energy              =    -512.0986186775103306 [Eh]

	 ================> DF-SCS-MP2 Energies <==================
	-----------------------------------------------------------
	 SCS Same-Spin Scale       =       0.3333333333333333 [-]
	 SCS Opposite-Spin Scale   =       1.2000000000000000 [-]
	 SCS Same-Spin Energy      =      -0.1812776583476597 [Eh]
	 SCS Opposite-Spin Energy  =      -2.0341979280218592 [Eh]
	 SCS Correlation Energy    =      -2.2154755863695188 [Eh]
	 SCS Total Energy          =    -512.0750963488186471 [Eh]
	-----------------------------------------------------------

  Dipole Moment: [D]
     X:     0.7424      Y:    -0.0030      Z:     1.7175     Total:     1.8711

*** Psi4 exiting successfully. Buy a developer a beer!
