                               Psi4 1.3.2 release

  ==> Input File <==

--------------------------------------------------------------------------
#psi4
#
memory 32 gb

molecule  {
0 1
  O       -0.7670850     1.7208920    -0.4354900
  N        1.6863020     0.4747470     0.1388600
  N       -1.9291830    -0.1915810     0.0453950
  N        0.7639310    -1.5088640    -0.3477740
  C        0.5182450    -0.2160980    -0.0822800
  C       -0.7756170     0.5047820    -0.1623390
  C        2.7114570    -0.4276410     0.0208990
  C        1.8666300     1.8964630     0.4257140
  C       -3.1904980     0.5035560    -0.1598940
  C       -2.0503370    -1.5461500     0.5645390
  C        2.1210610    -1.6392390    -0.2794470
  H        3.8371264    -0.1083641     0.1823248
  H        1.1394670     2.2188990     1.1681400
  H        2.8785810     2.0278530     0.8121890
  H        1.7220340     2.4842350    -0.4794890
  H       -3.8467550    -0.1153850    -0.7799180
  H       -2.9915450     1.4520350    -0.6543500
  H       -3.6876690     0.6913720     0.7990550
  H       -1.0742680    -1.9474190     0.8155770
  H       -2.5092790    -2.1983750    -0.1864030
  H       -2.6938370    -1.5270200     1.4518100
  H        2.6051200    -2.5920870    -0.4498700
units angstrom
no_reorient  #important for SAPT in psi4, default
symmetry c1  #important for SAPT in psi4, default
}

set PROPERTIES_ORIGIN ["COM"]
properties('MP2/aug-cc-pvtz', properties = ['dipole'])
--------------------------------------------------------------------------

    Molecular point group: c1
  Charge       = 0
  Multiplicity = 1
  Basis Set: AUG-CC-PVTZ
    Blend: AUG-CC-PVTZ
  Basis Set: (AUG-CC-PVTZ AUX)
    Blend: AUG-CC-PVTZ-JKFIT

    Orbital Energies [Eh]
    ---------------------

    Doubly Occupied:

       1A    -20.517804     2A    -15.634586     3A    -15.592231
       4A    -15.562226     5A    -11.363258     6A    -11.305889
       7A    -11.279887     8A    -11.271851     9A    -11.255487
      10A    -11.252936    11A    -11.252009    12A     -1.380774
      13A     -1.342485    14A     -1.245654    15A     -1.189050
      16A     -1.030174    17A     -0.976486    18A     -0.966682
      19A     -0.938106    20A     -0.831919    21A     -0.803176
      22A     -0.742192    23A     -0.706755    24A     -0.661290
      25A     -0.655396    26A     -0.641220    27A     -0.638303
      28A     -0.601482    29A     -0.586732    30A     -0.574245
      31A     -0.562491    32A     -0.557011    33A     -0.554954
      34A     -0.553165    35A     -0.527421    36A     -0.523016
      37A     -0.450695    38A     -0.428960    39A     -0.391924
      40A     -0.373290    41A     -0.320887

  @DF-RHF Final Energy:  -509.85268215319570

   => Energetics <=

    Nuclear Repulsion Energy =            628.4729710795354549
    One-Electron Energy =               -1940.5631090084416428
    Two-Electron Energy =                 802.2374557757104867
    Total Energy =                       -509.8526821531957012
  Basis Set: (AUG-CC-PVTZ AUX)
    Blend: AUG-CC-PVTZ-RI
    Molecular point group: c1

    Geometry (in Angstrom), charge = 0, multiplicity = 1:

       Center              X                  Y                   Z               Mass
    ------------   -----------------  -----------------  -----------------  -----------------
         O           -0.798314627947     1.723120626041    -0.418316724090    15.994914619570
         N            1.655072372053     0.476975626041     0.156033275910    14.003074004430
         N           -1.960412627947    -0.189352373959     0.062568275910    14.003074004430
         N            0.732701372053    -1.506635373959    -0.330600724090    14.003074004430
         C            0.487015372053    -0.213869373959    -0.065106724090    12.000000000000
         C           -0.806846627947     0.507010626041    -0.145165724090    12.000000000000
         C            2.680227372053    -0.425412373959     0.038072275910    12.000000000000
         C            1.835400372053     1.898691626041     0.442887275910    12.000000000000
         C           -3.221727627947     0.505784626041    -0.142720724090    12.000000000000
         C           -2.081566627947    -1.543921373959     0.581712275910    12.000000000000
         C            2.089831372053    -1.637010373959    -0.262273724090    12.000000000000
         H            3.805896772053    -0.106135473959     0.199498075910     1.007825032230
         H            1.108237372053     2.221127626041     1.185313275910     1.007825032230
         H            2.847351372053     2.030081626041     0.829362275910     1.007825032230
         H            1.690804372053     2.486463626041    -0.462315724090     1.007825032230
         H           -3.877984627947    -0.113156373959    -0.762744724090     1.007825032230
         H           -3.022774627947     1.454263626041    -0.637176724090     1.007825032230
         H           -3.718898627947     0.693600626041     0.816228275910     1.007825032230
         H           -1.105497627947    -1.945190373959     0.832750275910     1.007825032230
         H           -2.540508627947    -2.196146373959    -0.169229724090     1.007825032230
         H           -2.725066627947    -1.524791373959     1.468983275910     1.007825032230
         H            2.573890372053    -2.589858373959    -0.432696724090     1.007825032230

  Basis Set: AUG-CC-PVTZ
    Blend: AUG-CC-PVTZ
  Basis Set: (AUG-CC-PVTZ AUX)
    Blend: AUG-CC-PVTZ-JKFIT
	 Reference Energy          =    -509.8526821531957012 [Eh]
	 Singles Energy            =      -0.0000000000000000 [Eh]
	 Same-Spin Energy          =      -0.5442446555097548 [Eh]
	 Opposite-Spin Energy      =      -1.6964785621040037 [Eh]
	 Correlation Energy        =      -2.2407232176137586 [Eh]
	 Total Energy              =    -512.0934053708094780 [Eh]

	 ================> DF-SCS-MP2 Energies <==================
	-----------------------------------------------------------
	 SCS Same-Spin Scale       =       0.3333333333333333 [-]
	 SCS Opposite-Spin Scale   =       1.2000000000000000 [-]
	 SCS Same-Spin Energy      =      -0.1814148851699182 [Eh]
	 SCS Opposite-Spin Energy  =      -2.0357742745248042 [Eh]
	 SCS Correlation Energy    =      -2.2171891596947226 [Eh]
	 SCS Total Energy          =    -512.0698713128904274 [Eh]
	-----------------------------------------------------------

  Dipole Moment: [D]
     X:     0.7388      Y:    -0.0042      Z:     1.7168     Total:     1.8690

*** Psi4 exiting successfully. Buy a developer a beer!
