                               Psi4 1.3.2 release

  ==> Input File <==

--------------------------------------------------------------------------
#psi4
#
memory 32 gb

molecule  {
0 1
  O       -0.7670850     1.7208920    -0.4354900
  N        1.6863020     0.4747470     0.1388600
  N       -1.9291830    -0.1915810     0.0453950
  N        0.7639310    -1.5088640    -0.3477740
  C        0.3483414    -0.3165872    -0.1144467
  C       -0.7756170     0.5047820    -0.1623390
  C        2.7114570    -0.4276410     0.0208990
  C        1.8666300     1.8964630     0.4257140
  C       -3.1904980     0.5035560    -0.1598940
  C       -2.0503370    -1.5461500     0.5645390
  C        2.1210610    -1.6392390    -0.2794470
  H        3.7418240    -0.1353950     0.1686580
  H        1.1394670     2.2188990     1.1681400
  H        2.8785810     2.0278530     0.8121890
  H        1.7220340     2.4842350    -0.4794890
  H       -3.8467550    -0.1153850    -0.7799180
  H       -2.9915450     1.4520350    -0.6543500
  H       -3.6876690     0.6913720     0.7990550
  H       -1.0742680    -1.9474190     0.8155770
  H       -2.5092790    -2.1983750    -0.1864030
  H       -2.6938370    -1.5270200     1.4518100
  H        2.6051200    -2.5920870    -0.4498700
units angstrom
no_reorient  #important for SAPT in psi4, default
symmetry c1  #important for SAPT in psi4, default
}

set PROPERTIES_ORIGIN ["COM"]
properties('MP2/aug-cc-pvtz', properties = ['dipole'])
--------------------------------------------------------------------------

    Molecular point group: c1
  Charge       = 0
  Multiplicity = 1
  Basis Set: AUG-CC-PVTZ
    Blend: AUG-CC-PVTZ
  Basis Set: (AUG-CC-PVTZ AUX)
    Blend: AUG-CC-PVTZ-JKFIT

    Orbital Energies [Eh]
    ---------------------

    Doubly Occupied:

       1A    -20.519452     2A    -15.616677     3A    -15.590520
       4A    -15.576696     5A    -11.360577     6A    -11.310498
       7A    -11.284073     8A    -11.259970     9A    -11.258900
      10A    -11.252092    11A    -11.250631    12A     -1.379741
      13A     -1.319201    14A     -1.248867    15A     -1.188035
      16A     -1.044936    17A     -0.978754    18A     -0.968303
      19A     -0.926517    20A     -0.847928    21A     -0.803258
      22A     -0.737130    23A     -0.705605    24A     -0.664722
      25A     -0.657589    26A     -0.653011    27A     -0.624784
      28A     -0.607442    29A     -0.591427    30A     -0.570064
      31A     -0.557611    32A     -0.555371    33A     -0.553864
      34A     -0.551946    35A     -0.525469    36A     -0.520234
      37A     -0.450018    38A     -0.424523    39A     -0.397317
      40A     -0.374527    41A     -0.314092

  @DF-RHF Final Energy:  -509.81548241857428

   => Energetics <=

    Nuclear Repulsion Energy =            628.5108429139222608
    One-Electron Energy =               -1940.6079108351996183
    Two-Electron Energy =                 802.2815855027031375
    Total Energy =                       -509.8154824185742200
  Basis Set: (AUG-CC-PVTZ AUX)
    Blend: AUG-CC-PVTZ-RI
    Molecular point group: c1

    Geometry (in Angstrom), charge = 0, multiplicity = 1:

       Center              X                  Y                   Z               Mass
    ------------   -----------------  -----------------  -----------------  -----------------
         O           -0.784369312197     1.731175437657    -0.415705360908    15.994914619570
         N            1.669017687803     0.485030437657     0.158644639092    14.003074004430
         N           -1.946467312197    -0.181297562343     0.065179639092    14.003074004430
         N            0.746646687803    -1.498580562343    -0.327989360908    14.003074004430
         C            0.331057087803    -0.306303762343    -0.094662060908    12.000000000000
         C           -0.792901312197     0.515065437657    -0.142554360908    12.000000000000
         C            2.694172687803    -0.417357562343     0.040683639092    12.000000000000
         C            1.849345687803     1.906746437657     0.445498639092    12.000000000000
         C           -3.207782312197     0.513839437657    -0.140109360908    12.000000000000
         C           -2.067621312197    -1.535866562343     0.584323639092    12.000000000000
         C            2.103776687803    -1.628955562343    -0.259662360908    12.000000000000
         H            3.724539687803    -0.125111562343     0.188442639092     1.007825032230
         H            1.122182687803     2.229182437657     1.187924639092     1.007825032230
         H            2.861296687803     2.038136437657     0.831973639092     1.007825032230
         H            1.704749687803     2.494518437657    -0.459704360908     1.007825032230
         H           -3.864039312197    -0.105101562343    -0.760133360908     1.007825032230
         H           -3.008829312197     1.462318437657    -0.634565360908     1.007825032230
         H           -3.704953312197     0.701655437657     0.818839639092     1.007825032230
         H           -1.091552312197    -1.937135562343     0.835361639092     1.007825032230
         H           -2.526563312197    -2.188091562343    -0.166618360908     1.007825032230
         H           -2.711121312197    -1.516736562343     1.471594639092     1.007825032230
         H            2.587835687803    -2.581803562343    -0.430085360908     1.007825032230

  Basis Set: AUG-CC-PVTZ
    Blend: AUG-CC-PVTZ
  Basis Set: (AUG-CC-PVTZ AUX)
    Blend: AUG-CC-PVTZ-JKFIT
	 Reference Energy          =    -509.8154824185742768 [Eh]
	 Singles Energy            =      -0.0000000000000000 [Eh]
	 Same-Spin Energy          =      -0.5474836009134634 [Eh]
	 Opposite-Spin Energy      =      -1.7016362391732380 [Eh]
	 Correlation Energy        =      -2.2491198400867014 [Eh]
	 Total Energy              =    -512.0646022586610115 [Eh]

	 ================> DF-SCS-MP2 Energies <==================
	-----------------------------------------------------------
	 SCS Same-Spin Scale       =       0.3333333333333333 [-]
	 SCS Opposite-Spin Scale   =       1.2000000000000000 [-]
	 SCS Same-Spin Energy      =      -0.1824945336378211 [Eh]
	 SCS Opposite-Spin Energy  =      -2.0419634870078855 [Eh]
	 SCS Correlation Energy    =      -2.2244580206457067 [Eh]
	 SCS Total Energy          =    -512.0399404392200040 [Eh]
	-----------------------------------------------------------

  Dipole Moment: [D]
     X:     0.5913      Y:    -0.4241      Z:     1.6005     Total:     1.7581

*** Psi4 exiting successfully. Buy a developer a beer!
