                               Psi4 1.3.2 release

  ==> Input File <==

--------------------------------------------------------------------------
#psi4
#
memory 32 gb

molecule  {
0 1
  O       -0.7670850     1.7208920    -0.4354900
  N        1.6863020     0.4747470     0.1388600
  N       -1.9291830    -0.1915810     0.0453950
  N        0.7639310    -1.5088640    -0.3477740
  C        0.5182450    -0.2160980    -0.0822800
  C       -0.7756170     0.5047820    -0.1623390
  C        2.7114570    -0.4276410     0.0208990
  C        1.8666300     1.8964630     0.4257140
  C       -3.1904980     0.5035560    -0.1598940
  C       -2.0503370    -1.5461500     0.5645390
  C        2.1210610    -1.6392390    -0.2794470
  H        3.9324288    -0.0813332     0.1959915
  H        1.1394670     2.2188990     1.1681400
  H        2.8785810     2.0278530     0.8121890
  H        1.7220340     2.4842350    -0.4794890
  H       -3.8467550    -0.1153850    -0.7799180
  H       -2.9915450     1.4520350    -0.6543500
  H       -3.6876690     0.6913720     0.7990550
  H       -1.0742680    -1.9474190     0.8155770
  H       -2.5092790    -2.1983750    -0.1864030
  H       -2.6938370    -1.5270200     1.4518100
  H        2.6051200    -2.5920870    -0.4498700
units angstrom
no_reorient  #important for SAPT in psi4, default
symmetry c1  #important for SAPT in psi4, default
}

set PROPERTIES_ORIGIN ["COM"]
properties('MP2/aug-cc-pvtz', properties = ['dipole'])
--------------------------------------------------------------------------

    Molecular point group: c1
  Charge       = 0
  Multiplicity = 1
  Basis Set: AUG-CC-PVTZ
    Blend: AUG-CC-PVTZ
  Basis Set: (AUG-CC-PVTZ AUX)
    Blend: AUG-CC-PVTZ-JKFIT

    Orbital Energies [Eh]
    ---------------------

    Doubly Occupied:

       1A    -20.517991     2A    -15.635567     3A    -15.592445
       4A    -15.562993     5A    -11.363546     6A    -11.306505
       7A    -11.289376     8A    -11.271699     9A    -11.255683
      10A    -11.253085    11A    -11.252817    12A     -1.381070
      13A     -1.343087    14A     -1.245861    15A     -1.189488
      16A     -1.029207    17A     -0.976526    18A     -0.966776
      19A     -0.937722    20A     -0.832257    21A     -0.798001
      22A     -0.742546    23A     -0.704853    24A     -0.660933
      25A     -0.655549    26A     -0.640923    27A     -0.634463
      28A     -0.599895    29A     -0.579058    30A     -0.573505
      31A     -0.559276    32A     -0.555895    33A     -0.554521
      34A     -0.553260    35A     -0.527606    36A     -0.523067
      37A     -0.450602    38A     -0.429119    39A     -0.392498
      40A     -0.373472    41A     -0.321359

  @DF-RHF Final Energy:  -509.83710520162055

   => Energetics <=

    Nuclear Repulsion Energy =            628.0081271138766397
    One-Electron Energy =               -1939.6222613935494792
    Two-Electron Energy =                 801.7770290780522373
    Total Energy =                       -509.8371052016204885
  Basis Set: (AUG-CC-PVTZ AUX)
    Blend: AUG-CC-PVTZ-RI
    Molecular point group: c1

    Geometry (in Angstrom), charge = 0, multiplicity = 1:

       Center              X                  Y                   Z               Mass
    ------------   -----------------  -----------------  -----------------  -----------------
         O           -0.798942023670     1.722942675947    -0.418406694848    15.994914619570
         N            1.654444976330     0.476797675947     0.155943305152    14.003074004430
         N           -1.961040023670    -0.189530324053     0.062478305152    14.003074004430
         N            0.732073976330    -1.506813324053    -0.330690694848    14.003074004430
         C            0.486387976330    -0.214047324053    -0.065196694848    12.000000000000
         C           -0.807474023670     0.506832675947    -0.145255694848    12.000000000000
         C            2.679599976330    -0.425590324053     0.037982305152    12.000000000000
         C            1.834772976330     1.898513675947     0.442797305152    12.000000000000
         C           -3.222355023670     0.505606675947    -0.142810694848    12.000000000000
         C           -2.082194023670    -1.544099324053     0.581622305152    12.000000000000
         C            2.089203976330    -1.637188324053    -0.262363694848    12.000000000000
         H            3.900571776330    -0.079282524053     0.213074805152     1.007825032230
         H            1.107609976330     2.220949675947     1.185223305152     1.007825032230
         H            2.846723976330     2.029903675947     0.829272305152     1.007825032230
         H            1.690176976330     2.486285675947    -0.462405694848     1.007825032230
         H           -3.878612023670    -0.113334324053    -0.762834694848     1.007825032230
         H           -3.023402023670     1.454085675947    -0.637266694848     1.007825032230
         H           -3.719526023670     0.693422675947     0.816138305152     1.007825032230
         H           -1.106125023670    -1.945368324053     0.832660305152     1.007825032230
         H           -2.541136023670    -2.196324324053    -0.169319694848     1.007825032230
         H           -2.725694023670    -1.524969324053     1.468893305152     1.007825032230
         H            2.573262976330    -2.590036324053    -0.432786694848     1.007825032230

  Basis Set: AUG-CC-PVTZ
    Blend: AUG-CC-PVTZ
  Basis Set: (AUG-CC-PVTZ AUX)
    Blend: AUG-CC-PVTZ-JKFIT
	 Reference Energy          =    -509.8371052016205454 [Eh]
	 Singles Energy            =      -0.0000000000000000 [Eh]
	 Same-Spin Energy          =      -0.5445959328555905 [Eh]
	 Opposite-Spin Energy      =      -1.6978134663353175 [Eh]
	 Correlation Energy        =      -2.2424093991909082 [Eh]
	 Total Energy              =    -512.0795146008114216 [Eh]

	 ================> DF-SCS-MP2 Energies <==================
	-----------------------------------------------------------
	 SCS Same-Spin Scale       =       0.3333333333333333 [-]
	 SCS Opposite-Spin Scale   =       1.2000000000000000 [-]
	 SCS Same-Spin Energy      =      -0.1815319776185302 [Eh]
	 SCS Opposite-Spin Energy  =      -2.0373761596023807 [Eh]
	 SCS Correlation Energy    =      -2.2189081372209110 [Eh]
	 SCS Total Energy          =    -512.0560133388414670 [Eh]
	-----------------------------------------------------------

  Dipole Moment: [D]
     X:     0.7224      Y:    -0.0065      Z:     1.7152     Total:     1.8611

*** Psi4 exiting successfully. Buy a developer a beer!
