                               Psi4 1.3.2 release

  ==> Input File <==

--------------------------------------------------------------------------
#psi4
#
memory 32 gb

molecule  {
0 1
  O       -0.7670850     1.7208920    -0.4354900
  N        1.7101421     0.4703506     0.1467969
  N       -1.9291830    -0.1915810     0.0453950
  N        0.7639310    -1.5088640    -0.3477740
  C        0.5182450    -0.2160980    -0.0822800
  C       -0.7756170     0.5047820    -0.1623390
  C        2.7114570    -0.4276410     0.0208990
  C        1.8666300     1.8964630     0.4257140
  C       -3.1904980     0.5035560    -0.1598940
  C       -2.0503370    -1.5461500     0.5645390
  C        2.1210610    -1.6392390    -0.2794470
  H        3.7418240    -0.1353950     0.1686580
  H        1.1394670     2.2188990     1.1681400
  H        2.8785810     2.0278530     0.8121890
  H        1.7220340     2.4842350    -0.4794890
  H       -3.8467550    -0.1153850    -0.7799180
  H       -2.9915450     1.4520350    -0.6543500
  H       -3.6876690     0.6913720     0.7990550
  H       -1.0742680    -1.9474190     0.8155770
  H       -2.5092790    -2.1983750    -0.1864030
  H       -2.6938370    -1.5270200     1.4518100
  H        2.6051200    -2.5920870    -0.4498700
units angstrom
no_reorient  #important for SAPT in psi4, default
symmetry c1  #important for SAPT in psi4, default
}

set PROPERTIES_ORIGIN ["COM"]
properties('MP2/aug-cc-pvtz', properties = ['dipole'])
--------------------------------------------------------------------------

    Molecular point group: c1
  Charge       = 0
  Multiplicity = 1
  Basis Set: AUG-CC-PVTZ
    Blend: AUG-CC-PVTZ
  Basis Set: (AUG-CC-PVTZ AUX)
    Blend: AUG-CC-PVTZ-JKFIT

    Orbital Energies [Eh]
    ---------------------

    Doubly Occupied:

       1A    -20.517104     2A    -15.634039     3A    -15.591795
       4A    -15.564093     5A    -11.363071     6A    -11.305133
       7A    -11.272096     8A    -11.269901     9A    -11.255312
      10A    -11.252697    11A    -11.249964    12A     -1.379736
      13A     -1.342521    14A     -1.245274    15A     -1.190484
      16A     -1.032576    17A     -0.976749    18A     -0.966284
      19A     -0.937266    20A     -0.832350    21A     -0.810477
      22A     -0.742544    23A     -0.709979    24A     -0.662840
      25A     -0.655584    26A     -0.646571    27A     -0.640135
      28A     -0.605359    29A     -0.589700    30A     -0.573925
      31A     -0.566009    32A     -0.556935    33A     -0.554725
      34A     -0.552979    35A     -0.527107    36A     -0.523207
      37A     -0.451383    38A     -0.428764    39A     -0.393861
      40A     -0.372979    41A     -0.318408

  @DF-RHF Final Energy:  -509.85944178092075

   => Energetics <=

    Nuclear Repulsion Energy =            628.7346794262521144
    One-Electron Energy =               -1941.0644071278475167
    Two-Electron Energy =                 802.4702859206746552
    Total Energy =                       -509.8594417809207471
  Basis Set: (AUG-CC-PVTZ AUX)
    Blend: AUG-CC-PVTZ-RI
    Molecular point group: c1

    Geometry (in Angstrom), charge = 0, multiplicity = 1:

       Center              X                  Y                   Z               Mass
    ------------   -----------------  -----------------  -----------------  -----------------
         O           -0.799867872515     1.723700712326    -0.418952736371    15.994914619570
         N            1.677359227485     0.473159312326     0.163334163629    14.003074004430
         N           -1.961965872515    -0.188772287674     0.061932263629    14.003074004430
         N            0.731148127485    -1.506055287674    -0.331236736371    14.003074004430
         C            0.485462127485    -0.213289287674    -0.065742736371    12.000000000000
         C           -0.808399872515     0.507590712326    -0.145801736371    12.000000000000
         C            2.678674127485    -0.424832287674     0.037436263629    12.000000000000
         C            1.833847127485     1.899271712326     0.442251263629    12.000000000000
         C           -3.223280872515     0.506364712326    -0.143356736371    12.000000000000
         C           -2.083119872515    -1.543341287674     0.581076263629    12.000000000000
         C            2.088278127485    -1.636430287674    -0.262909736371    12.000000000000
         H            3.709041127485    -0.132586287674     0.185195263629     1.007825032230
         H            1.106684127485     2.221707712326     1.184677263629     1.007825032230
         H            2.845798127485     2.030661712326     0.828726263629     1.007825032230
         H            1.689251127485     2.487043712326    -0.462951736371     1.007825032230
         H           -3.879537872515    -0.112576287674    -0.763380736371     1.007825032230
         H           -3.024327872515     1.454843712326    -0.637812736371     1.007825032230
         H           -3.720451872515     0.694180712326     0.815592263629     1.007825032230
         H           -1.107050872515    -1.944610287674     0.832114263629     1.007825032230
         H           -2.542061872515    -2.195566287674    -0.169865736371     1.007825032230
         H           -2.726619872515    -1.524211287674     1.468347263629     1.007825032230
         H            2.572337127485    -2.589278287674    -0.433332736371     1.007825032230

  Basis Set: AUG-CC-PVTZ
    Blend: AUG-CC-PVTZ
  Basis Set: (AUG-CC-PVTZ AUX)
    Blend: AUG-CC-PVTZ-JKFIT
	 Reference Energy          =    -509.8594417809207471 [Eh]
	 Singles Energy            =      -0.0000000000000000 [Eh]
	 Same-Spin Energy          =      -0.5441130927615523 [Eh]
	 Opposite-Spin Energy      =      -1.6955722824278465 [Eh]
	 Correlation Energy        =      -2.2396853751893988 [Eh]
	 Total Energy              =    -512.0991271561101712 [Eh]

	 ================> DF-SCS-MP2 Energies <==================
	-----------------------------------------------------------
	 SCS Same-Spin Scale       =       0.3333333333333333 [-]
	 SCS Opposite-Spin Scale   =       1.2000000000000000 [-]
	 SCS Same-Spin Energy      =      -0.1813710309205174 [Eh]
	 SCS Opposite-Spin Energy  =      -2.0346867389134156 [Eh]
	 SCS Correlation Energy    =      -2.2160577698339328 [Eh]
	 SCS Total Energy          =    -512.0754995507546710 [Eh]
	-----------------------------------------------------------

  Dipole Moment: [D]
     X:     0.7435      Y:     0.0013      Z:     1.7128     Total:     1.8672

*** Psi4 exiting successfully. Buy a developer a beer!
