                               Psi4 1.3.2 release

  ==> Input File <==

--------------------------------------------------------------------------
#psi4
#
memory 32 gb

molecule  {
0 1
  O       -0.6803246     1.7161805    -0.4399015
  N        1.6863020     0.4747470     0.1388600
  N       -1.9291830    -0.1915810     0.0453950
  N        0.7639310    -1.5088640    -0.3477740
  C        0.5182450    -0.2160980    -0.0822800
  C       -0.7756170     0.5047820    -0.1623390
  C        2.7114570    -0.4276410     0.0208990
  C        1.8666300     1.8964630     0.4257140
  C       -3.1904980     0.5035560    -0.1598940
  C       -2.0503370    -1.5461500     0.5645390
  C        2.1210610    -1.6392390    -0.2794470
  H        3.7418240    -0.1353950     0.1686580
  H        1.1394670     2.2188990     1.1681400
  H        2.8785810     2.0278530     0.8121890
  H        1.7220340     2.4842350    -0.4794890
  H       -3.8467550    -0.1153850    -0.7799180
  H       -2.9915450     1.4520350    -0.6543500
  H       -3.6876690     0.6913720     0.7990550
  H       -1.0742680    -1.9474190     0.8155770
  H       -2.5092790    -2.1983750    -0.1864030
  H       -2.6938370    -1.5270200     1.4518100
  H        2.6051200    -2.5920870    -0.4498700
units angstrom
no_reorient  #important for SAPT in psi4, default
symmetry c1  #important for SAPT in psi4, default
}

set PROPERTIES_ORIGIN ["COM"]
properties('MP2/aug-cc-pvtz', properties = ['dipole'])
--------------------------------------------------------------------------

    Molecular point group: c1
  Charge       = 0
  Multiplicity = 1
  Basis Set: AUG-CC-PVTZ
    Blend: AUG-CC-PVTZ
  Basis Set: (AUG-CC-PVTZ AUX)
    Blend: AUG-CC-PVTZ-JKFIT

    Orbital Energies [Eh]
    ---------------------

    Doubly Occupied:

       1A    -20.519643     2A    -15.630697     3A    -15.596384
       4A    -15.558384     5A    -11.364151     6A    -11.302011
       7A    -11.269163     8A    -11.266711     9A    -11.257827
      10A    -11.256673    11A    -11.248831    12A     -1.381526
      13A     -1.338748    14A     -1.251007    15A     -1.186062
      16A     -1.028945    17A     -0.974851    18A     -0.969454
      19A     -0.940178    20A     -0.829838    21A     -0.808851
      22A     -0.741466    23A     -0.710493    24A     -0.662338
      25A     -0.656781    26A     -0.646114    27A     -0.639355
      28A     -0.603841    29A     -0.589623    30A     -0.574996
      31A     -0.563420    32A     -0.558231    33A     -0.556180
      34A     -0.552554    35A     -0.530179    36A     -0.523382
      37A     -0.448859    38A     -0.428446    39A     -0.389028
      40A     -0.376876    41A     -0.317704

  @DF-RHF Final Energy:  -509.85879382400583

   => Energetics <=

    Nuclear Repulsion Energy =            629.5373941746491937
    One-Electron Energy =               -1942.6927814488233253
    Two-Electron Energy =                 803.2965934501684160
    Total Energy =                       -509.8587938240058293
  Basis Set: (AUG-CC-PVTZ AUX)
    Blend: AUG-CC-PVTZ-RI
    Molecular point group: c1

    Geometry (in Angstrom), charge = 0, multiplicity = 1:

       Center              X                  Y                   Z               Mass
    ------------   -----------------  -----------------  -----------------  -----------------
         O           -0.719991586738     1.719079335172    -0.422177337734    15.994914619570
         N            1.646635013262     0.477645835172     0.156584162266    14.003074004430
         N           -1.968849986738    -0.188682164828     0.063119162266    14.003074004430
         N            0.724264013262    -1.505965164828    -0.330049837734    14.003074004430
         C            0.478578013262    -0.213199164828    -0.064555837734    12.000000000000
         C           -0.815283986738     0.507680835172    -0.144614837734    12.000000000000
         C            2.671790013262    -0.424742164828     0.038623162266    12.000000000000
         C            1.826963013262     1.899361835172     0.443438162266    12.000000000000
         C           -3.230164986738     0.506454835172    -0.142169837734    12.000000000000
         C           -2.090003986738    -1.543251164828     0.582263162266    12.000000000000
         C            2.081394013262    -1.636340164828    -0.261722837734    12.000000000000
         H            3.702157013262    -0.132496164828     0.186382162266     1.007825032230
         H            1.099800013262     2.221797835172     1.185864162266     1.007825032230
         H            2.838914013262     2.030751835172     0.829913162266     1.007825032230
         H            1.682367013262     2.487133835172    -0.461764837734     1.007825032230
         H           -3.886421986738    -0.112486164828    -0.762193837734     1.007825032230
         H           -3.031211986738     1.454933835172    -0.636625837734     1.007825032230
         H           -3.727335986738     0.694270835172     0.816779162266     1.007825032230
         H           -1.113934986738    -1.944520164828     0.833301162266     1.007825032230
         H           -2.548945986738    -2.195476164828    -0.168678837734     1.007825032230
         H           -2.733503986738    -1.524121164828     1.469534162266     1.007825032230
         H            2.565453013262    -2.589188164828    -0.432145837734     1.007825032230

  Basis Set: AUG-CC-PVTZ
    Blend: AUG-CC-PVTZ
  Basis Set: (AUG-CC-PVTZ AUX)
    Blend: AUG-CC-PVTZ-JKFIT
	 Reference Energy          =    -509.8587938240058293 [Eh]
	 Singles Energy            =      -0.0000000000000000 [Eh]
	 Same-Spin Energy          =      -0.5439619975462736 [Eh]
	 Opposite-Spin Energy      =      -1.6956285217981635 [Eh]
	 Correlation Energy        =      -2.2395905193444370 [Eh]
	 Total Energy              =    -512.0983843433502898 [Eh]

	 ================> DF-SCS-MP2 Energies <==================
	-----------------------------------------------------------
	 SCS Same-Spin Scale       =       0.3333333333333333 [-]
	 SCS Opposite-Spin Scale   =       1.2000000000000000 [-]
	 SCS Same-Spin Energy      =      -0.1813206658487579 [Eh]
	 SCS Opposite-Spin Energy  =      -2.0347542261577960 [Eh]
	 SCS Correlation Energy    =      -2.2160748920065538 [Eh]
	 SCS Total Energy          =    -512.0748687160123609 [Eh]
	-----------------------------------------------------------

  Dipole Moment: [D]
     X:     0.3924      Y:     0.0169      Z:     1.7243     Total:     1.7685

*** Psi4 exiting successfully. Buy a developer a beer!
