                               Psi4 1.4a3.dev225

  ==> Input File <==

--------------------------------------------------------------------------
#psi4
#
memory 32 gb

molecule  {
0 1
  O       -0.7670850     1.7208920    -0.4354900
  N        1.6863020     0.4747470     0.1388600
  N       -1.9291830    -0.1915810     0.0453950
  N        0.7639310    -1.5088640    -0.3477740
  C        0.5012546    -0.2261469    -0.0854967
  C       -0.7756170     0.5047820    -0.1623390
  C        2.7114570    -0.4276410     0.0208990
  C        1.8666300     1.8964630     0.4257140
  C       -3.1904980     0.5035560    -0.1598940
  C       -2.0503370    -1.5461500     0.5645390
  C        2.1210610    -1.6392390    -0.2794470
  H        3.7418240    -0.1353950     0.1686580
  H        1.1394670     2.2188990     1.1681400
  H        2.8785810     2.0278530     0.8121890
  H        1.7220340     2.4842350    -0.4794890
  H       -3.8467550    -0.1153850    -0.7799180
  H       -2.9915450     1.4520350    -0.6543500
  H       -3.6876690     0.6913720     0.7990550
  H       -1.0742680    -1.9474190     0.8155770
  H       -2.5092790    -2.1983750    -0.1864030
  H       -2.6938370    -1.5270200     1.4518100
  H        2.6051200    -2.5920870    -0.4498700
units angstrom
no_reorient  #important for SAPT in psi4, default
symmetry c1  #important for SAPT in psi4, default
}

set PROPERTIES_ORIGIN ["COM"]
properties('MP2/aug-cc-pvtz', properties = ['dipole'])
--------------------------------------------------------------------------

    Molecular point group: c1
  Charge       = 0
  Multiplicity = 1
  Basis Set: AUG-CC-PVTZ
    Blend: AUG-CC-PVTZ
  Basis Set: (AUG-CC-PVTZ AUX)
    Blend: AUG-CC-PVTZ-JKFIT

    Orbital Energies [Eh]
    ---------------------

    Doubly Occupied:

       1A    -20.517847     2A    -15.632439     3A    -15.591848
       4A    -15.563092     5A    -11.362640     6A    -11.305697
       7A    -11.271113     8A    -11.270825     9A    -11.255641
      10A    -11.252710    11A    -11.251217    12A     -1.380115
      13A     -1.338886    14A     -1.245728    15A     -1.188903
      16A     -1.033178    17A     -0.975674    18A     -0.966646
      19A     -0.937899    20A     -0.833577    21A     -0.809842
      22A     -0.741406    23A     -0.709347    24A     -0.662281
      25A     -0.655457    26A     -0.646512    27A     -0.638555
      28A     -0.606029    29A     -0.590888    30A     -0.575228
      31A     -0.563365    32A     -0.557230    33A     -0.554612
      34A     -0.553097    35A     -0.527222    36A     -0.522711
      37A     -0.451007    38A     -0.429013    39A     -0.391659
      40A     -0.373245    41A     -0.320413

  @DF-RHF Final Energy:  -509.85923390519145

   => Energetics <=

    Nuclear Repulsion Energy =            628.9234531266870363
    One-Electron Energy =               -1941.4557877881020431
    Two-Electron Energy =                 802.6731007562235618
    Total Energy =                       -509.8592339051914450
  Basis Set: (AUG-CC-PVTZ AUX)
    Blend: AUG-CC-PVTZ-RI
    Molecular point group: c1

    Geometry (in Angstrom), charge = 0, multiplicity = 1:

       Center              X                  Y                   Z               Mass
    ------------   -----------------  -----------------  -----------------  -----------------
         O           -0.796355437085     1.724086260720    -0.417974611146    15.994914619570
         N            1.657031562915     0.477941260720     0.156375388854    14.003074004430
         N           -1.958453437085    -0.188386739280     0.062910388854    14.003074004430
         N            0.734660562915    -1.505669739280    -0.330258611146    14.003074004430
         C            0.471984162915    -0.222952639280    -0.067981311146    12.000000000000
         C           -0.804887437085     0.507976260720    -0.144823611146    12.000000000000
         C            2.682186562915    -0.424446739280     0.038414388854    12.000000000000
         C            1.837359562915     1.899657260720     0.443229388854    12.000000000000
         C           -3.219768437085     0.506750260720    -0.142378611146    12.000000000000
         C           -2.079607437085    -1.542955739280     0.582054388854    12.000000000000
         C            2.091790562915    -1.636044739280    -0.261931611146    12.000000000000
         H            3.712553562915    -0.132200739280     0.186173388854     1.007825032230
         H            1.110196562915     2.222093260720     1.185655388854     1.007825032230
         H            2.849310562915     2.031047260720     0.829704388854     1.007825032230
         H            1.692763562915     2.487429260720    -0.461973611146     1.007825032230
         H           -3.876025437085    -0.112190739280    -0.762402611146     1.007825032230
         H           -3.020815437085     1.455229260720    -0.636834611146     1.007825032230
         H           -3.716939437085     0.694566260720     0.816570388854     1.007825032230
         H           -1.103538437085    -1.944224739280     0.833092388854     1.007825032230
         H           -2.538549437085    -2.195180739280    -0.168887611146     1.007825032230
         H           -2.723107437085    -1.523825739280     1.469325388854     1.007825032230
         H            2.575849562915    -2.588892739280    -0.432354611146     1.007825032230

  Basis Set: AUG-CC-PVTZ
    Blend: AUG-CC-PVTZ
  Basis Set: (AUG-CC-PVTZ AUX)
    Blend: AUG-CC-PVTZ-JKFIT
	 Reference Energy          =    -509.8592339051914450 [Eh]
	 Singles Energy            =      -0.0000000000000000 [Eh]
	 Same-Spin Energy          =      -0.5441879725167391 [Eh]
	 Opposite-Spin Energy      =      -1.6959176128958171 [Eh]
	 Correlation Energy        =      -2.2401055854125564 [Eh]
	 Total Energy              =    -512.0993394906040521 [Eh]

	 ================> DF-SCS-MP2 Energies <==================
	-----------------------------------------------------------
	 SCS Same-Spin Scale       =       0.3333333333333333 [-]
	 SCS Opposite-Spin Scale   =       1.2000000000000000 [-]
	 SCS Same-Spin Energy      =      -0.1813959908389130 [Eh]
	 SCS Opposite-Spin Energy  =      -2.0351011354749806 [Eh]
	 SCS Correlation Energy    =      -2.2164971263138935 [Eh]
	 SCS Total Energy          =    -512.0757310315053701 [Eh]
	-----------------------------------------------------------

  Dipole Moment: [D]
     X:     0.7381      Y:    -0.0439      Z:     1.7063     Total:     1.8596

*** Psi4 exiting successfully. Buy a developer a beer!
