                               Psi4 1.3.2 release

  ==> Input File <==

--------------------------------------------------------------------------
#psi4
#
memory 32 gb

molecule  {
0 1
  O       -0.7670850     1.7208920    -0.4354900
  N        1.6331800     0.5534680     0.1526990
  N       -1.9291830    -0.1915810     0.0453950
  N        0.7639310    -1.5088640    -0.3477740
  C        0.5182450    -0.2160980    -0.0822800
  C       -0.7756170     0.5047820    -0.1623390
  C        2.7114570    -0.4276410     0.0208990
  C        1.8666300     1.8964630     0.4257140
  C       -3.1904980     0.5035560    -0.1598940
  C       -2.0503370    -1.5461500     0.5645390
  C        2.1210610    -1.6392390    -0.2794470
  H        3.7418240    -0.1353950     0.1686580
  H        1.1394670     2.2188990     1.1681400
  H        2.8785810     2.0278530     0.8121890
  H        1.7220340     2.4842350    -0.4794890
  H       -3.8467550    -0.1153850    -0.7799180
  H       -2.9915450     1.4520350    -0.6543500
  H       -3.6876690     0.6913720     0.7990550
  H       -1.0742680    -1.9474190     0.8155770
  H       -2.5092790    -2.1983750    -0.1864030
  H       -2.6938370    -1.5270200     1.4518100
  H        2.6051200    -2.5920870    -0.4498700
units angstrom
no_reorient  #important for SAPT in psi4, default
symmetry c1  #important for SAPT in psi4, default
}

set PROPERTIES_ORIGIN ["COM"]
properties('MP2/aug-cc-pvtz', properties = ['dipole'])
--------------------------------------------------------------------------

    Molecular point group: c1
  Charge       = 0
  Multiplicity = 1
  Basis Set: AUG-CC-PVTZ
    Blend: AUG-CC-PVTZ
  Basis Set: (AUG-CC-PVTZ AUX)
    Blend: AUG-CC-PVTZ-JKFIT

    Orbital Energies [Eh]
    ---------------------

    Doubly Occupied:

       1A    -20.519411     2A    -15.632048     3A    -15.592860
       4A    -15.562520     5A    -11.362526     6A    -11.315355
       7A    -11.274051     8A    -11.264124     9A    -11.259322
      10A    -11.256218    11A    -11.253258    12A     -1.381324
      13A     -1.331683    14A     -1.246653    15A     -1.198783
      16A     -1.027096    17A     -0.981000    18A     -0.967422
      19A     -0.940005    20A     -0.830264    21A     -0.809243
      22A     -0.741553    23A     -0.708414    24A     -0.662636
      25A     -0.656095    26A     -0.642555    27A     -0.639103
      28A     -0.614379    29A     -0.609789    30A     -0.574647
      31A     -0.557829    32A     -0.554190    33A     -0.552360
      34A     -0.542857    35A     -0.526604    36A     -0.520103
      37A     -0.453511    38A     -0.429394    39A     -0.384756
      40A     -0.373768    41A     -0.325435

  @DF-RHF Final Energy:  -509.84591700089925

   => Energetics <=

    Nuclear Repulsion Energy =            628.7957172159837000
    One-Electron Energy =               -1941.1329704285346907
    Two-Electron Energy =                 802.4913362116516282
    Total Energy =                       -509.8459170008992487
  Basis Set: (AUG-CC-PVTZ AUX)
    Blend: AUG-CC-PVTZ-RI
    Molecular point group: c1

    Geometry (in Angstrom), charge = 0, multiplicity = 1:

       Center              X                  Y                   Z               Mass
    ------------   -----------------  -----------------  -----------------  -----------------
         O           -0.792828193310     1.716098011355    -0.419492598077    15.994914619570
         N            1.607436806690     0.548674011355     0.168696401923    14.003074004430
         N           -1.954926193310    -0.196374988645     0.061392401923    14.003074004430
         N            0.738187806690    -1.513657988645    -0.331776598077    14.003074004430
         C            0.492501806690    -0.220891988645    -0.066282598077    12.000000000000
         C           -0.801360193310     0.499988011355    -0.146341598077    12.000000000000
         C            2.685713806690    -0.432434988645     0.036896401923    12.000000000000
         C            1.840886806690     1.891669011355     0.441711401923    12.000000000000
         C           -3.216241193310     0.498762011355    -0.143896598077    12.000000000000
         C           -2.076080193310    -1.550943988645     0.580536401923    12.000000000000
         C            2.095317806690    -1.644032988645    -0.263449598077    12.000000000000
         H            3.716080806690    -0.140188988645     0.184655401923     1.007825032230
         H            1.113723806690     2.214105011355     1.184137401923     1.007825032230
         H            2.852837806690     2.023059011355     0.828186401923     1.007825032230
         H            1.696290806690     2.479441011355    -0.463491598077     1.007825032230
         H           -3.872498193310    -0.120178988645    -0.763920598077     1.007825032230
         H           -3.017288193310     1.447241011355    -0.638352598077     1.007825032230
         H           -3.713412193310     0.686578011355     0.815052401923     1.007825032230
         H           -1.100011193310    -1.952212988645     0.831574401923     1.007825032230
         H           -2.535022193310    -2.203168988645    -0.170405598077     1.007825032230
         H           -2.719580193310    -1.531813988645     1.467807401923     1.007825032230
         H            2.579376806690    -2.596880988645    -0.433872598077     1.007825032230

  Basis Set: AUG-CC-PVTZ
    Blend: AUG-CC-PVTZ
  Basis Set: (AUG-CC-PVTZ AUX)
    Blend: AUG-CC-PVTZ-JKFIT
	 Reference Energy          =    -509.8459170008992487 [Eh]
	 Singles Energy            =      -0.0000000000000000 [Eh]
	 Same-Spin Energy          =      -0.5444293049807882 [Eh]
	 Opposite-Spin Energy      =      -1.6976667832247299 [Eh]
	 Correlation Energy        =      -2.2420960882055181 [Eh]
	 Total Energy              =    -512.0880130891047202 [Eh]

	 ================> DF-SCS-MP2 Energies <==================
	-----------------------------------------------------------
	 SCS Same-Spin Scale       =       0.3333333333333333 [-]
	 SCS Opposite-Spin Scale   =       1.2000000000000000 [-]
	 SCS Same-Spin Energy      =      -0.1814764349935961 [Eh]
	 SCS Opposite-Spin Energy  =      -2.0372001398696757 [Eh]
	 SCS Correlation Energy    =      -2.2186765748632720 [Eh]
	 SCS Total Energy          =    -512.0645935757625011 [Eh]
	-----------------------------------------------------------

  Dipole Moment: [D]
     X:     0.7053      Y:    -0.2262      Z:     1.6699     Total:     1.8268

*** Psi4 exiting successfully. Buy a developer a beer!
