                               Psi4 1.3.2 release

  ==> Input File <==

--------------------------------------------------------------------------
#psi4
#
memory 32 gb

molecule  {
0 1
  O       -0.7670850     1.7208920    -0.4354900
  N        1.6863020     0.4747470     0.1388600
  N       -1.9291830    -0.1915810     0.0453950
  N        0.7639310    -1.5088640    -0.3477740
  C        0.5182450    -0.2160980    -0.0822800
  C       -0.7756170     0.5047820    -0.1623390
  C        2.7114570    -0.4276410     0.0208990
  C        1.8666300     1.8964630     0.4257140
  C       -3.1904980     0.5035560    -0.1598940
  C       -2.0503370    -1.5461500     0.5645390
  C        2.0783050    -1.7269820    -0.3011978
  H        3.7418240    -0.1353950     0.1686580
  H        1.1394670     2.2188990     1.1681400
  H        2.8785810     2.0278530     0.8121890
  H        1.7220340     2.4842350    -0.4794890
  H       -3.8467550    -0.1153850    -0.7799180
  H       -2.9915450     1.4520350    -0.6543500
  H       -3.6876690     0.6913720     0.7990550
  H       -1.0742680    -1.9474190     0.8155770
  H       -2.5092790    -2.1983750    -0.1864030
  H       -2.6938370    -1.5270200     1.4518100
  H        2.6051200    -2.5920870    -0.4498700
units angstrom
no_reorient  #important for SAPT in psi4, default
symmetry c1  #important for SAPT in psi4, default
}

set PROPERTIES_ORIGIN ["COM"]
properties('MP2/aug-cc-pvtz', properties = ['dipole'])
--------------------------------------------------------------------------

    Molecular point group: c1
  Charge       = 0
  Multiplicity = 1
  Basis Set: AUG-CC-PVTZ
    Blend: AUG-CC-PVTZ
  Basis Set: (AUG-CC-PVTZ AUX)
    Blend: AUG-CC-PVTZ-JKFIT

    Orbital Energies [Eh]
    ---------------------

    Doubly Occupied:

       1A    -20.514744     2A    -15.642357     3A    -15.589632
       4A    -15.562995     5A    -11.360889     6A    -11.300361
       7A    -11.279965     8A    -11.274319     9A    -11.258758
      10A    -11.254142    11A    -11.251333    12A     -1.378297
      13A     -1.340079    14A     -1.243576    15A     -1.196810
      16A     -1.021935    17A     -0.979392    18A     -0.964968
      19A     -0.936517    20A     -0.831902    21A     -0.815390
      22A     -0.740973    23A     -0.707501    24A     -0.664113
      25A     -0.657505    26A     -0.644470    27A     -0.639342
      28A     -0.627054    29A     -0.584340    30A     -0.574864
      31A     -0.568793    32A     -0.556270    33A     -0.554054
      34A     -0.551883    35A     -0.525992    36A     -0.520466
      37A     -0.443196    38A     -0.424250    39A     -0.399970
      40A     -0.371602    41A     -0.305220

  @DF-RHF Final Energy:  -509.84601287928484

   => Energetics <=

    Nuclear Repulsion Energy =            627.8983614585274609
    One-Electron Energy =               -1939.3683109769976909
    Two-Electron Energy =                 801.6239366391853309
    Total Energy =                       -509.8460128792848991
  Basis Set: (AUG-CC-PVTZ AUX)
    Blend: AUG-CC-PVTZ-RI
    Molecular point group: c1

    Geometry (in Angstrom), charge = 0, multiplicity = 1:

       Center              X                  Y                   Z               Mass
    ------------   -----------------  -----------------  -----------------  -----------------
         O           -0.794335796534     1.730176324793    -0.416521812844    15.994914619570
         N            1.659051203466     0.484031324793     0.157828187156    14.003074004430
         N           -1.956433796534    -0.182296675207     0.064363187156    14.003074004430
         N            0.736680203466    -1.499579675207    -0.328805812844    14.003074004430
         C            0.490994203466    -0.206813675207    -0.063311812844    12.000000000000
         C           -0.802867796534     0.514066324793    -0.143370812844    12.000000000000
         C            2.684206203466    -0.418356675207     0.039867187156    12.000000000000
         C            1.839379203466     1.905747324793     0.444682187156    12.000000000000
         C           -3.217748796534     0.512840324793    -0.140925812844    12.000000000000
         C           -2.077587796534    -1.536865675207     0.583507187156    12.000000000000
         C            2.051054203466    -1.717697675207    -0.282229612844    12.000000000000
         H            3.714573203466    -0.126110675207     0.187626187156     1.007825032230
         H            1.112216203466     2.228183324793     1.187108187156     1.007825032230
         H            2.851330203466     2.037137324793     0.831157187156     1.007825032230
         H            1.694783203466     2.493519324793    -0.460520812844     1.007825032230
         H           -3.874005796534    -0.106100675207    -0.760949812844     1.007825032230
         H           -3.018795796534     1.461319324793    -0.635381812844     1.007825032230
         H           -3.714919796534     0.700656324793     0.818023187156     1.007825032230
         H           -1.101518796534    -1.938134675207     0.834545187156     1.007825032230
         H           -2.536529796534    -2.189090675207    -0.167434812844     1.007825032230
         H           -2.721087796534    -1.517735675207     1.470778187156     1.007825032230
         H            2.577869203466    -2.582802675207    -0.430901812844     1.007825032230

  Basis Set: AUG-CC-PVTZ
    Blend: AUG-CC-PVTZ
  Basis Set: (AUG-CC-PVTZ AUX)
    Blend: AUG-CC-PVTZ-JKFIT
	 Reference Energy          =    -509.8460128792848423 [Eh]
	 Singles Energy            =      -0.0000000000000000 [Eh]
	 Same-Spin Energy          =      -0.5453232866935537 [Eh]
	 Opposite-Spin Energy      =      -1.6973774244198969 [Eh]
	 Correlation Energy        =      -2.2427007111134505 [Eh]
	 Total Energy              =    -512.0887135903982426 [Eh]

	 ================> DF-SCS-MP2 Energies <==================
	-----------------------------------------------------------
	 SCS Same-Spin Scale       =       0.3333333333333333 [-]
	 SCS Opposite-Spin Scale   =       1.2000000000000000 [-]
	 SCS Same-Spin Energy      =      -0.1817744288978512 [Eh]
	 SCS Opposite-Spin Energy  =      -2.0368529093038763 [Eh]
	 SCS Correlation Energy    =      -2.2186273382017276 [Eh]
	 SCS Total Energy          =    -512.0646402174866125 [Eh]
	-----------------------------------------------------------

  Dipole Moment: [D]
     X:     0.7906      Y:    -0.0903      Z:     1.6942     Total:     1.8718

*** Psi4 exiting successfully. Buy a developer a beer!
