                               Psi4 1.3.2 release

  ==> Input File <==

--------------------------------------------------------------------------
#psi4
#
memory 32 gb

molecule  {
0 1
  O       -0.7670850     1.7208920    -0.4354900
  N        1.5446680     0.5101637     0.0931564
  N       -1.9291830    -0.1915810     0.0453950
  N        0.7639310    -1.5088640    -0.3477740
  C        0.5182450    -0.2160980    -0.0822800
  C       -0.7756170     0.5047820    -0.1623390
  C        2.7114570    -0.4276410     0.0208990
  C        1.8666300     1.8964630     0.4257140
  C       -3.1904980     0.5035560    -0.1598940
  C       -2.0503370    -1.5461500     0.5645390
  C        2.1210610    -1.6392390    -0.2794470
  H        3.7418240    -0.1353950     0.1686580
  H        1.1394670     2.2188990     1.1681400
  H        2.8785810     2.0278530     0.8121890
  H        1.7220340     2.4842350    -0.4794890
  H       -3.8467550    -0.1153850    -0.7799180
  H       -2.9915450     1.4520350    -0.6543500
  H       -3.6876690     0.6913720     0.7990550
  H       -1.0742680    -1.9474190     0.8155770
  H       -2.5092790    -2.1983750    -0.1864030
  H       -2.6938370    -1.5270200     1.4518100
  H        2.6051200    -2.5920870    -0.4498700
units angstrom
no_reorient  #important for SAPT in psi4, default
symmetry c1  #important for SAPT in psi4, default
}

set PROPERTIES_ORIGIN ["COM"]
properties('MP2/aug-cc-pvtz', properties = ['dipole'])
--------------------------------------------------------------------------

    Molecular point group: c1
  Charge       = 0
  Multiplicity = 1
  Basis Set: AUG-CC-PVTZ
    Blend: AUG-CC-PVTZ
  Basis Set: (AUG-CC-PVTZ AUX)
    Blend: AUG-CC-PVTZ-JKFIT

    Orbital Energies [Eh]
    ---------------------

    Doubly Occupied:

       1A    -20.520367     2A    -15.632128     3A    -15.593100
       4A    -15.546449     5A    -11.361941     6A    -11.305971
       7A    -11.275110     8A    -11.266790     9A    -11.259542
      10A    -11.255129    11A    -11.253184    12A     -1.386941
      13A     -1.343167    14A     -1.246513    15A     -1.184423
      16A     -1.031597    17A     -0.979399    18A     -0.966547
      19A     -0.944446    20A     -0.829759    21A     -0.810914
      22A     -0.738574    23A     -0.709250    24A     -0.664579
      25A     -0.655099    26A     -0.643114    27A     -0.638429
      28A     -0.615390    29A     -0.606883    30A     -0.573719
      31A     -0.558647    32A     -0.556391    33A     -0.553551
      34A     -0.534722    35A     -0.526444    36A     -0.521425
      37A     -0.447085    38A     -0.427961    39A     -0.388170
      40A     -0.373780    41A     -0.325393

  @DF-RHF Final Energy:  -509.83647061734149

   => Energetics <=

    Nuclear Repulsion Energy =            630.5122487238173790
    One-Electron Energy =               -1944.5933904488163080
    Two-Electron Energy =                 804.2446711076573820
    Total Energy =                       -509.8364706173414334
  Basis Set: (AUG-CC-PVTZ AUX)
    Blend: AUG-CC-PVTZ-RI
    Molecular point group: c1

    Geometry (in Angstrom), charge = 0, multiplicity = 1:

       Center              X                  Y                   Z               Mass
    ------------   -----------------  -----------------  -----------------  -----------------
         O           -0.784732051367     1.720059030873    -0.414046270560    15.994914619570
         N            1.527020948633     0.509330730873     0.114600129440    14.003074004430
         N           -1.946830051367    -0.192413969127     0.066838729440    14.003074004430
         N            0.746283948633    -1.509696969127    -0.326330270560    14.003074004430
         C            0.500597948633    -0.216930969127    -0.060836270560    12.000000000000
         C           -0.793264051367     0.503949030873    -0.140895270560    12.000000000000
         C            2.693809948633    -0.428473969127     0.042342729440    12.000000000000
         C            1.848982948633     1.895630030873     0.447157729440    12.000000000000
         C           -3.208145051367     0.502723030873    -0.138450270560    12.000000000000
         C           -2.067984051367    -1.546982969127     0.585982729440    12.000000000000
         C            2.103413948633    -1.640071969127    -0.258003270560    12.000000000000
         H            3.724176948633    -0.136227969127     0.190101729440     1.007825032230
         H            1.121819948633     2.218066030873     1.189583729440     1.007825032230
         H            2.860933948633     2.027020030873     0.833632729440     1.007825032230
         H            1.704386948633     2.483402030873    -0.458045270560     1.007825032230
         H           -3.864402051367    -0.116217969127    -0.758474270560     1.007825032230
         H           -3.009192051367     1.451202030873    -0.632906270560     1.007825032230
         H           -3.705316051367     0.690539030873     0.820498729440     1.007825032230
         H           -1.091915051367    -1.948251969127     0.837020729440     1.007825032230
         H           -2.526926051367    -2.199207969127    -0.164959270560     1.007825032230
         H           -2.711484051367    -1.527852969127     1.473253729440     1.007825032230
         H            2.587472948633    -2.592919969127    -0.428426270560     1.007825032230

  Basis Set: AUG-CC-PVTZ
    Blend: AUG-CC-PVTZ
  Basis Set: (AUG-CC-PVTZ AUX)
    Blend: AUG-CC-PVTZ-JKFIT
	 Reference Energy          =    -509.8364706173414902 [Eh]
	 Singles Energy            =      -0.0000000000000000 [Eh]
	 Same-Spin Energy          =      -0.5431789283308273 [Eh]
	 Opposite-Spin Energy      =      -1.6960552902658181 [Eh]
	 Correlation Energy        =      -2.2392342185966454 [Eh]
	 Total Energy              =    -512.0757048359381542 [Eh]

	 ================> DF-SCS-MP2 Energies <==================
	-----------------------------------------------------------
	 SCS Same-Spin Scale       =       0.3333333333333333 [-]
	 SCS Opposite-Spin Scale   =       1.2000000000000000 [-]
	 SCS Same-Spin Energy      =      -0.1810596427769424 [Eh]
	 SCS Opposite-Spin Energy  =      -2.0352663483189817 [Eh]
	 SCS Correlation Energy    =      -2.2163259910959239 [Eh]
	 SCS Total Energy          =    -512.0527966084374611 [Eh]
	-----------------------------------------------------------

  Dipole Moment: [D]
     X:     0.7416      Y:     0.0334      Z:     1.7590     Total:     1.9093

*** Psi4 exiting successfully. Buy a developer a beer!
