                               Psi4 1.3.2 release

  ==> Input File <==

--------------------------------------------------------------------------
#psi4
#
memory 32 gb

molecule  {
0 1
  O       -0.7670850     1.7208920    -0.4354900
  N        1.6863020     0.4747470     0.1388600
  N       -1.9291830    -0.1915810     0.0453950
  N        0.7639310    -1.5088640    -0.3477740
  C        0.5182450    -0.2160980    -0.0822800
  C       -0.7756170     0.5047820    -0.1623390
  C        2.7114570    -0.4276410     0.0208990
  C        1.8542917     1.7991874     0.4060871
  C       -3.1904980     0.5035560    -0.1598940
  C       -2.0503370    -1.5461500     0.5645390
  C        2.1210610    -1.6392390    -0.2794470
  H        3.7418240    -0.1353950     0.1686580
  H        1.1394670     2.2188990     1.1681400
  H        2.8785810     2.0278530     0.8121890
  H        1.7220340     2.4842350    -0.4794890
  H       -3.8467550    -0.1153850    -0.7799180
  H       -2.9915450     1.4520350    -0.6543500
  H       -3.6876690     0.6913720     0.7990550
  H       -1.0742680    -1.9474190     0.8155770
  H       -2.5092790    -2.1983750    -0.1864030
  H       -2.6938370    -1.5270200     1.4518100
  H        2.6051200    -2.5920870    -0.4498700
units angstrom
no_reorient  #important for SAPT in psi4, default
symmetry c1  #important for SAPT in psi4, default
}

set PROPERTIES_ORIGIN ["COM"]
properties('MP2/aug-cc-pvtz', properties = ['dipole'])
--------------------------------------------------------------------------

    Molecular point group: c1
  Charge       = 0
  Multiplicity = 1
  Basis Set: AUG-CC-PVTZ
    Blend: AUG-CC-PVTZ
  Basis Set: (AUG-CC-PVTZ AUX)
    Blend: AUG-CC-PVTZ-JKFIT

    Orbital Energies [Eh]
    ---------------------

    Doubly Occupied:

       1A    -20.518681     2A    -15.635885     3A    -15.593061
       4A    -15.565231     5A    -11.364474     6A    -11.309375
       7A    -11.272423     8A    -11.270506     9A    -11.256417
      10A    -11.254716    11A    -11.253500    12A     -1.384635
      13A     -1.352540    14A     -1.246997    15A     -1.205351
      16A     -1.036716    17A     -0.977605    18A     -0.967608
      19A     -0.939116    20A     -0.835216    21A     -0.816014
      22A     -0.750172    23A     -0.712936    24A     -0.667495
      25A     -0.659006    26A     -0.648557    27A     -0.643234
      28A     -0.610401    29A     -0.604352    30A     -0.575156
      31A     -0.559498    32A     -0.554555    33A     -0.549133
      34A     -0.539103    35A     -0.526635    36A     -0.519290
      37A     -0.453568    38A     -0.428367    39A     -0.388419
      40A     -0.373792    41A     -0.323759

  @DF-RHF Final Energy:  -509.84956435067505

   => Energetics <=

    Nuclear Repulsion Energy =            631.1043267690087077
    One-Electron Energy =               -1945.6207904048487762
    Two-Electron Energy =                 804.6668992851648454
    Total Energy =                       -509.8495643506751094
  Basis Set: (AUG-CC-PVTZ AUX)
    Blend: AUG-CC-PVTZ-RI
    Molecular point group: c1

    Geometry (in Angstrom), charge = 0, multiplicity = 1:

       Center              X                  Y                   Z               Mass
    ------------   -----------------  -----------------  -----------------  -----------------
         O           -0.796720092664     1.730923539122    -0.416688295075    15.994914619570
         N            1.656666907336     0.484778539122     0.157661704925    14.003074004430
         N           -1.958818092664    -0.181549460878     0.064196704925    14.003074004430
         N            0.734295907336    -1.498832460878    -0.328972295075    14.003074004430
         C            0.488609907336    -0.206066460878    -0.063478295075    12.000000000000
         C           -0.805252092664     0.514813539122    -0.143537295075    12.000000000000
         C            2.681821907336    -0.417609460878     0.039700704925    12.000000000000
         C            1.824656607336     1.809218939122     0.424888804925    12.000000000000
         C           -3.220133092664     0.513587539122    -0.141092295075    12.000000000000
         C           -2.079972092664    -1.536118460878     0.583340704925    12.000000000000
         C            2.091425907336    -1.629207460878    -0.260645295075    12.000000000000
         H            3.712188907336    -0.125363460878     0.187459704925     1.007825032230
         H            1.109831907336     2.228930539122     1.186941704925     1.007825032230
         H            2.848945907336     2.037884539122     0.830990704925     1.007825032230
         H            1.692398907336     2.494266539122    -0.460687295075     1.007825032230
         H           -3.876390092664    -0.105353460878    -0.761116295075     1.007825032230
         H           -3.021180092664     1.462066539122    -0.635548295075     1.007825032230
         H           -3.717304092664     0.701403539122     0.817856704925     1.007825032230
         H           -1.103903092664    -1.937387460878     0.834378704925     1.007825032230
         H           -2.538914092664    -2.188343460878    -0.167601295075     1.007825032230
         H           -2.723472092664    -1.516988460878     1.470611704925     1.007825032230
         H            2.575484907336    -2.582055460878    -0.431068295075     1.007825032230

  Basis Set: AUG-CC-PVTZ
    Blend: AUG-CC-PVTZ
  Basis Set: (AUG-CC-PVTZ AUX)
    Blend: AUG-CC-PVTZ-JKFIT
	 Reference Energy          =    -509.8495643506750525 [Eh]
	 Singles Energy            =      -0.0000000000000000 [Eh]
	 Same-Spin Energy          =      -0.5449186116680986 [Eh]
	 Opposite-Spin Energy      =      -1.6963590114111937 [Eh]
	 Correlation Energy        =      -2.2412776230792923 [Eh]
	 Total Energy              =    -512.0908419737543227 [Eh]

	 ================> DF-SCS-MP2 Energies <==================
	-----------------------------------------------------------
	 SCS Same-Spin Scale       =       0.3333333333333333 [-]
	 SCS Opposite-Spin Scale   =       1.2000000000000000 [-]
	 SCS Same-Spin Energy      =      -0.1816395372226995 [Eh]
	 SCS Opposite-Spin Energy  =      -2.0356308136934325 [Eh]
	 SCS Correlation Energy    =      -2.2172703509161318 [Eh]
	 SCS Total Energy          =    -512.0668347015912332 [Eh]
	-----------------------------------------------------------

  Dipole Moment: [D]
     X:     0.6705      Y:    -0.2532      Z:     1.6636     Total:     1.8114

*** Psi4 exiting successfully. Buy a developer a beer!
