                               Psi4 1.3.2 release

  ==> Input File <==

--------------------------------------------------------------------------
#psi4
#
memory 32 gb

molecule  {
0 1
  O       -0.7670850     1.7208920    -0.4354900
  N        1.6863020     0.4747470     0.1388600
  N       -1.9291830    -0.1915810     0.0453950
  N        0.7639310    -1.5088640    -0.3477740
  C        0.5182450    -0.2160980    -0.0822800
  C       -0.6011589     0.4075820    -0.1515442
  C        2.7114570    -0.4276410     0.0208990
  C        1.8666300     1.8964630     0.4257140
  C       -3.1904980     0.5035560    -0.1598940
  C       -2.0503370    -1.5461500     0.5645390
  C        2.1210610    -1.6392390    -0.2794470
  H        3.7418240    -0.1353950     0.1686580
  H        1.1394670     2.2188990     1.1681400
  H        2.8785810     2.0278530     0.8121890
  H        1.7220340     2.4842350    -0.4794890
  H       -3.8467550    -0.1153850    -0.7799180
  H       -2.9915450     1.4520350    -0.6543500
  H       -3.6876690     0.6913720     0.7990550
  H       -1.0742680    -1.9474190     0.8155770
  H       -2.5092790    -2.1983750    -0.1864030
  H       -2.6938370    -1.5270200     1.4518100
  H        2.6051200    -2.5920870    -0.4498700
units angstrom
no_reorient  #important for SAPT in psi4, default
symmetry c1  #important for SAPT in psi4, default
}

set PROPERTIES_ORIGIN ["COM"]
properties('MP2/aug-cc-pvtz', properties = ['dipole'])
--------------------------------------------------------------------------

    Molecular point group: c1
  Charge       = 0
  Multiplicity = 1
  Basis Set: AUG-CC-PVTZ
    Blend: AUG-CC-PVTZ
  Basis Set: (AUG-CC-PVTZ AUX)
    Blend: AUG-CC-PVTZ-JKFIT

    Orbital Energies [Eh]
    ---------------------

    Doubly Occupied:

       1A    -20.503839     2A    -15.652897     3A    -15.585579
       4A    -15.579316     5A    -11.359501     6A    -11.299430
       7A    -11.293782     8A    -11.278545     9A    -11.270136
      10A    -11.243037    11A    -11.240550    12A     -1.376655
      13A     -1.302667    14A     -1.214830    15A     -1.194003
      16A     -1.078434    17A     -0.992509    18A     -0.953142
      19A     -0.925174    20A     -0.860147    21A     -0.829760
      22A     -0.752638    23A     -0.696537    24A     -0.672289
      25A     -0.654310    26A     -0.636788    27A     -0.626857
      28A     -0.610553    29A     -0.604919    30A     -0.573502
      31A     -0.569137    32A     -0.563314    33A     -0.540953
      34A     -0.539409    35A     -0.505796    36A     -0.489892
      37A     -0.462712    38A     -0.415109    39A     -0.404286
      40A     -0.349944    41A     -0.333389

  @DF-RHF Final Energy:  -509.78399388058364

   => Energetics <=

    Nuclear Repulsion Energy =            629.7240339423939304
    One-Electron Energy =               -1942.9435189865314442
    Two-Electron Energy =                 803.4354911635538201
    Total Energy =                       -509.7839938805835800
  Basis Set: (AUG-CC-PVTZ AUX)
    Blend: AUG-CC-PVTZ-RI
    Molecular point group: c1

    Geometry (in Angstrom), charge = 0, multiplicity = 1:

       Center              X                  Y                   Z               Mass
    ------------   -----------------  -----------------  -----------------  -----------------
         O           -0.811362157437     1.730917613205    -0.419072904746    15.994914619570
         N            1.642024842563     0.484772613205     0.155277095254    14.003074004430
         N           -1.973460157437    -0.181555386795     0.061812095254    14.003074004430
         N            0.719653842563    -1.498838386795    -0.331356904746    14.003074004430
         C            0.473967842563    -0.206072386795    -0.065862904746    12.000000000000
         C           -0.645436057437     0.417607613205    -0.135127104746    12.000000000000
         C            2.667179842563    -0.417615386795     0.037316095254    12.000000000000
         C            1.822352842563     1.906488613205     0.442131095254    12.000000000000
         C           -3.234775157437     0.513581613205    -0.143476904746    12.000000000000
         C           -2.094614157437    -1.536124386795     0.580956095254    12.000000000000
         C            2.076783842563    -1.629213386795    -0.263029904746    12.000000000000
         H            3.697546842563    -0.125369386795     0.185075095254     1.007825032230
         H            1.095189842563     2.228924613205     1.184557095254     1.007825032230
         H            2.834303842563     2.037878613205     0.828606095254     1.007825032230
         H            1.677756842563     2.494260613205    -0.463071904746     1.007825032230
         H           -3.891032157437    -0.105359386795    -0.763500904746     1.007825032230
         H           -3.035822157437     1.462060613205    -0.637932904746     1.007825032230
         H           -3.731946157437     0.701397613205     0.815472095254     1.007825032230
         H           -1.118545157437    -1.937393386795     0.831994095254     1.007825032230
         H           -2.553556157437    -2.188349386795    -0.169985904746     1.007825032230
         H           -2.738114157437    -1.516994386795     1.468227095254     1.007825032230
         H            2.560842842563    -2.582061386795    -0.433452904746     1.007825032230

  Basis Set: AUG-CC-PVTZ
    Blend: AUG-CC-PVTZ
  Basis Set: (AUG-CC-PVTZ AUX)
    Blend: AUG-CC-PVTZ-JKFIT
	 Reference Energy          =    -509.7839938805836368 [Eh]
	 Singles Energy            =      -0.0000000000000000 [Eh]
	 Same-Spin Energy          =      -0.5513786365672977 [Eh]
	 Opposite-Spin Energy      =      -1.7084782856083676 [Eh]
	 Correlation Energy        =      -2.2598569221756653 [Eh]
	 Total Energy              =    -512.0438508027592661 [Eh]

	 ================> DF-SCS-MP2 Energies <==================
	-----------------------------------------------------------
	 SCS Same-Spin Scale       =       0.3333333333333333 [-]
	 SCS Opposite-Spin Scale   =       1.2000000000000000 [-]
	 SCS Same-Spin Energy      =      -0.1837928788557659 [Eh]
	 SCS Opposite-Spin Energy  =      -2.0501739427300412 [Eh]
	 SCS Correlation Energy    =      -2.2339668215858071 [Eh]
	 SCS Total Energy          =    -512.0179607021694892 [Eh]
	-----------------------------------------------------------

  Dipole Moment: [D]
     X:     2.2442      Y:    -0.3399      Z:     1.6954     Total:     2.8331

*** Psi4 exiting successfully. Buy a developer a beer!
