                               Psi4 1.3.2 release

  ==> Input File <==

--------------------------------------------------------------------------
#psi4
#
memory 32 gb

molecule  {
0 1
  O       -0.7670850     1.7208920    -0.4354900
  N        1.7536696     0.3476982     0.1330960
  N       -1.9291830    -0.1915810     0.0453950
  N        0.7639310    -1.5088640    -0.3477740
  C        0.5182450    -0.2160980    -0.0822800
  C       -0.7756170     0.5047820    -0.1623390
  C        2.7114570    -0.4276410     0.0208990
  C        1.8666300     1.8964630     0.4257140
  C       -3.1904980     0.5035560    -0.1598940
  C       -2.0503370    -1.5461500     0.5645390
  C        2.1210610    -1.6392390    -0.2794470
  H        3.7418240    -0.1353950     0.1686580
  H        1.1394670     2.2188990     1.1681400
  H        2.8785810     2.0278530     0.8121890
  H        1.7220340     2.4842350    -0.4794890
  H       -3.8467550    -0.1153850    -0.7799180
  H       -2.9915450     1.4520350    -0.6543500
  H       -3.6876690     0.6913720     0.7990550
  H       -1.0742680    -1.9474190     0.8155770
  H       -2.5092790    -2.1983750    -0.1864030
  H       -2.6938370    -1.5270200     1.4518100
  H        2.6051200    -2.5920870    -0.4498700
units angstrom
no_reorient  #important for SAPT in psi4, default
symmetry c1  #important for SAPT in psi4, default
}

set PROPERTIES_ORIGIN ["COM"]
properties('MP2/aug-cc-pvtz', properties = ['dipole'])
--------------------------------------------------------------------------

    Molecular point group: c1
  Charge       = 0
  Multiplicity = 1
  Basis Set: AUG-CC-PVTZ
    Blend: AUG-CC-PVTZ
  Basis Set: (AUG-CC-PVTZ AUX)
    Blend: AUG-CC-PVTZ-JKFIT

    Orbital Energies [Eh]
    ---------------------

    Doubly Occupied:

       1A    -20.514360     2A    -15.635090     3A    -15.590324
       4A    -15.559638     5A    -11.363310     6A    -11.291277
       7A    -11.284772     8A    -11.261243     9A    -11.253666
      10A    -11.251793    11A    -11.239802    12A     -1.386533
      13A     -1.362361    14A     -1.243585    15A     -1.182925
      16A     -1.039622    17A     -0.971125    18A     -0.964337
      19A     -0.937032    20A     -0.833571    21A     -0.816112
      22A     -0.740419    23A     -0.712950    24A     -0.674115
      25A     -0.658719    26A     -0.649342    27A     -0.641331
      28A     -0.600688    29A     -0.585454    30A     -0.570071
      31A     -0.565931    32A     -0.555748    33A     -0.551992
      34A     -0.547715    35A     -0.528048    36A     -0.524470
      37A     -0.445877    38A     -0.427394    39A     -0.401693
      40A     -0.371841    41A     -0.310877

  @DF-RHF Final Energy:  -509.83158242572699

   => Energetics <=

    Nuclear Repulsion Energy =            629.7534091019706466
    One-Electron Energy =               -1943.0756753632683740
    Two-Electron Energy =                 803.4906838355707350
    Total Energy =                       -509.8315824257269924
  Basis Set: (AUG-CC-PVTZ AUX)
    Blend: AUG-CC-PVTZ-RI
    Molecular point group: c1

    Geometry (in Angstrom), charge = 0, multiplicity = 1:

       Center              X                  Y                   Z               Mass
    ------------   -----------------  -----------------  -----------------  -----------------
         O           -0.803849308008     1.734919657102    -0.417699522895    15.994914619570
         N            1.716905291992     0.361725857102     0.150886477105    14.003074004430
         N           -1.965947308008    -0.177553342898     0.063185477105    14.003074004430
         N            0.727166691992    -1.494836342898    -0.329983522895    14.003074004430
         C            0.481480691992    -0.202070342898    -0.064489522895    12.000000000000
         C           -0.812381308008     0.518809657102    -0.144548522895    12.000000000000
         C            2.674692691992    -0.413613342898     0.038689477105    12.000000000000
         C            1.829865691992     1.910490657102     0.443504477105    12.000000000000
         C           -3.227262308008     0.517583657102    -0.142103522895    12.000000000000
         C           -2.087101308008    -1.532122342898     0.582329477105    12.000000000000
         C            2.084296691992    -1.625211342898    -0.261656522895    12.000000000000
         H            3.705059691992    -0.121367342898     0.186448477105     1.007825032230
         H            1.102702691992     2.232926657102     1.185930477105     1.007825032230
         H            2.841816691992     2.041880657102     0.829979477105     1.007825032230
         H            1.685269691992     2.498262657102    -0.461698522895     1.007825032230
         H           -3.883519308008    -0.101357342898    -0.762127522895     1.007825032230
         H           -3.028309308008     1.466062657102    -0.636559522895     1.007825032230
         H           -3.724433308008     0.705399657102     0.816845477105     1.007825032230
         H           -1.111032308008    -1.933391342898     0.833367477105     1.007825032230
         H           -2.546043308008    -2.184347342898    -0.168612522895     1.007825032230
         H           -2.730601308008    -1.512992342898     1.469600477105     1.007825032230
         H            2.568355691992    -2.578059342898    -0.432079522895     1.007825032230

  Basis Set: AUG-CC-PVTZ
    Blend: AUG-CC-PVTZ
  Basis Set: (AUG-CC-PVTZ AUX)
    Blend: AUG-CC-PVTZ-JKFIT
	 Reference Energy          =    -509.8315824257269924 [Eh]
	 Singles Energy            =      -0.0000000000000000 [Eh]
	 Same-Spin Energy          =      -0.5443761571867477 [Eh]
	 Opposite-Spin Energy      =      -1.6947668262325977 [Eh]
	 Correlation Energy        =      -2.2391429834193453 [Eh]
	 Total Energy              =    -512.0707254091463483 [Eh]

	 ================> DF-SCS-MP2 Energies <==================
	-----------------------------------------------------------
	 SCS Same-Spin Scale       =       0.3333333333333333 [-]
	 SCS Opposite-Spin Scale   =       1.2000000000000000 [-]
	 SCS Same-Spin Energy      =      -0.1814587190622492 [Eh]
	 SCS Opposite-Spin Energy  =      -2.0337201914791172 [Eh]
	 SCS Correlation Energy    =      -2.2151789105413666 [Eh]
	 SCS Total Energy          =    -512.0467613362683323 [Eh]
	-----------------------------------------------------------

  Dipole Moment: [D]
     X:     0.8727      Y:     0.3465      Z:     1.7899     Total:     2.0212

*** Psi4 exiting successfully. Buy a developer a beer!
