                               Psi4 1.3.2 release

  ==> Input File <==

--------------------------------------------------------------------------
#psi4
#
memory 32 gb

molecule  {
0 1
  O       -0.7670850     1.7208920    -0.4354900
  N        1.6863020     0.4747470     0.1388600
  N       -1.9291830    -0.1915810     0.0453950
  N        0.7639310    -1.5088640    -0.3477740
  C        0.6881486    -0.1156088    -0.0501133
  C       -0.7756170     0.5047820    -0.1623390
  C        2.7114570    -0.4276410     0.0208990
  C        1.8666300     1.8964630     0.4257140
  C       -3.1904980     0.5035560    -0.1598940
  C       -2.0503370    -1.5461500     0.5645390
  C        2.1210610    -1.6392390    -0.2794470
  H        3.7418240    -0.1353950     0.1686580
  H        1.1394670     2.2188990     1.1681400
  H        2.8785810     2.0278530     0.8121890
  H        1.7220340     2.4842350    -0.4794890
  H       -3.8467550    -0.1153850    -0.7799180
  H       -2.9915450     1.4520350    -0.6543500
  H       -3.6876690     0.6913720     0.7990550
  H       -1.0742680    -1.9474190     0.8155770
  H       -2.5092790    -2.1983750    -0.1864030
  H       -2.6938370    -1.5270200     1.4518100
  H        2.6051200    -2.5920870    -0.4498700
units angstrom
no_reorient  #important for SAPT in psi4, default
symmetry c1  #important for SAPT in psi4, default
}

set PROPERTIES_ORIGIN ["COM"]
properties('MP2/aug-cc-pvtz', properties = ['dipole'])
--------------------------------------------------------------------------

    Molecular point group: c1
  Charge       = 0
  Multiplicity = 1
  Basis Set: AUG-CC-PVTZ
    Blend: AUG-CC-PVTZ
  Basis Set: (AUG-CC-PVTZ AUX)
    Blend: AUG-CC-PVTZ-JKFIT

    Orbital Energies [Eh]
    ---------------------

    Doubly Occupied:

       1A    -20.516621     2A    -15.642637     3A    -15.594766
       4A    -15.545824     5A    -11.367928     6A    -11.302693
       7A    -11.284574     8A    -11.254446     9A    -11.254290
      10A    -11.252806    11A    -11.250075    12A     -1.413474
      13A     -1.367451    14A     -1.244223    15A     -1.185265
      16A     -1.024231    17A     -1.002212    18A     -0.966309
      19A     -0.940850    20A     -0.828726    21A     -0.804719
      22A     -0.750144    23A     -0.713697    24A     -0.683039
      25A     -0.654503    26A     -0.647954    27A     -0.640580
      28A     -0.610104    29A     -0.598961    30A     -0.571173
      31A     -0.565823    32A     -0.559630    33A     -0.552577
      34A     -0.544190    35A     -0.527007    36A     -0.523722
      37A     -0.443137    38A     -0.419863    39A     -0.399676
      40A     -0.372824    41A     -0.313983

  @DF-RHF Final Energy:  -509.80666062340219

   => Energetics <=

    Nuclear Repulsion Energy =            630.0319987414479783
    One-Electron Energy =               -1943.4039090414059956
    Two-Electron Energy =                 803.5652496765558226
    Total Energy =                       -509.8066606234021947
  Basis Set: (AUG-CC-PVTZ AUX)
    Blend: AUG-CC-PVTZ-RI
    Molecular point group: c1

    Geometry (in Angstrom), charge = 0, multiplicity = 1:

       Center              X                  Y                   Z               Mass
    ------------   -----------------  -----------------  -----------------  -----------------
         O           -0.811005152249     1.715421714615    -0.420748144440    15.994914619570
         N            1.642381847751     0.469276714615     0.153601855560    14.003074004430
         N           -1.973103152249    -0.197051285385     0.060136855560    14.003074004430
         N            0.720010847751    -1.514334285385    -0.333032144440    14.003074004430
         C            0.644228447751    -0.121079085385    -0.035371444440    12.000000000000
         C           -0.819537152249     0.499311714615    -0.147597144440    12.000000000000
         C            2.667536847751    -0.433111285385     0.035640855560    12.000000000000
         C            1.822709847751     1.890992714615     0.440455855560    12.000000000000
         C           -3.234418152249     0.498085714615    -0.145152144440    12.000000000000
         C           -2.094257152249    -1.551620285385     0.579280855560    12.000000000000
         C            2.077140847751    -1.644709285385    -0.264705144440    12.000000000000
         H            3.697903847751    -0.140865285385     0.183399855560     1.007825032230
         H            1.095546847751     2.213428714615     1.182881855560     1.007825032230
         H            2.834660847751     2.022382714615     0.826930855560     1.007825032230
         H            1.678113847751     2.478764714615    -0.464747144440     1.007825032230
         H           -3.890675152249    -0.120855285385    -0.765176144440     1.007825032230
         H           -3.035465152249     1.446564714615    -0.639608144440     1.007825032230
         H           -3.731589152249     0.685901714615     0.813796855560     1.007825032230
         H           -1.118188152249    -1.952889285385     0.830318855560     1.007825032230
         H           -2.553199152249    -2.203845285385    -0.171661144440     1.007825032230
         H           -2.737757152249    -1.532490285385     1.466551855560     1.007825032230
         H            2.561199847751    -2.597557285385    -0.435128144440     1.007825032230

  Basis Set: AUG-CC-PVTZ
    Blend: AUG-CC-PVTZ
  Basis Set: (AUG-CC-PVTZ AUX)
    Blend: AUG-CC-PVTZ-JKFIT
	 Reference Energy          =    -509.8066606234021947 [Eh]
	 Singles Energy            =      -0.0000000000000000 [Eh]
	 Same-Spin Energy          =      -0.5421078110386004 [Eh]
	 Opposite-Spin Energy      =      -1.6928512380336866 [Eh]
	 Correlation Energy        =      -2.2349590490722870 [Eh]
	 Total Energy              =    -512.0416196724744395 [Eh]

	 ================> DF-SCS-MP2 Energies <==================
	-----------------------------------------------------------
	 SCS Same-Spin Scale       =       0.3333333333333333 [-]
	 SCS Opposite-Spin Scale   =       1.2000000000000000 [-]
	 SCS Same-Spin Energy      =      -0.1807026036795334 [Eh]
	 SCS Opposite-Spin Energy  =      -2.0314214856404238 [Eh]
	 SCS Correlation Energy    =      -2.2121240893199574 [Eh]
	 SCS Total Energy          =    -512.0187847127222085 [Eh]
	-----------------------------------------------------------

  Dipole Moment: [D]
     X:     0.6648      Y:     0.4629      Z:     1.8335     Total:     2.0045

*** Psi4 exiting successfully. Buy a developer a beer!
