                               Psi4 1.3.2 release

  ==> Input File <==

--------------------------------------------------------------------------
#psi4
#
memory 32 gb

molecule  {
0 1
  O       -0.7670850     1.7208920    -0.4354900
  N        1.6045648     0.5914458     0.1591931
  N       -1.9291830    -0.1915810     0.0453950
  N        0.7639310    -1.5088640    -0.3477740
  C        0.5182450    -0.2160980    -0.0822800
  C       -0.7756170     0.5047820    -0.1623390
  C        2.7114570    -0.4276410     0.0208990
  C        1.8666300     1.8964630     0.4257140
  C       -3.1904980     0.5035560    -0.1598940
  C       -2.0503370    -1.5461500     0.5645390
  C        2.1210610    -1.6392390    -0.2794470
  H        3.7418240    -0.1353950     0.1686580
  H        1.1394670     2.2188990     1.1681400
  H        2.8785810     2.0278530     0.8121890
  H        1.7220340     2.4842350    -0.4794890
  H       -3.8467550    -0.1153850    -0.7799180
  H       -2.9915450     1.4520350    -0.6543500
  H       -3.6876690     0.6913720     0.7990550
  H       -1.0742680    -1.9474190     0.8155770
  H       -2.5092790    -2.1983750    -0.1864030
  H       -2.6938370    -1.5270200     1.4518100
  H        2.6051200    -2.5920870    -0.4498700
units angstrom
no_reorient  #important for SAPT in psi4, default
symmetry c1  #important for SAPT in psi4, default
}

set PROPERTIES_ORIGIN ["COM"]
properties('MP2/aug-cc-pvtz', properties = ['dipole'])
--------------------------------------------------------------------------

    Molecular point group: c1
  Charge       = 0
  Multiplicity = 1
  Basis Set: AUG-CC-PVTZ
    Blend: AUG-CC-PVTZ
  Basis Set: (AUG-CC-PVTZ AUX)
    Blend: AUG-CC-PVTZ-JKFIT

    Orbital Energies [Eh]
    ---------------------

    Doubly Occupied:

       1A    -20.520062     2A    -15.631132     3A    -15.593095
       4A    -15.562860     5A    -11.362139     6A    -11.320338
       7A    -11.276070     8A    -11.263109     9A    -11.260742
      10A    -11.256550    11A    -11.253369    12A     -1.381949
      13A     -1.328239    14A     -1.247199    15A     -1.204857
      16A     -1.025894    17A     -0.982887    18A     -0.967596
      19A     -0.940502    20A     -0.829096    21A     -0.809096
      22A     -0.741133    23A     -0.707891    24A     -0.663563
      25A     -0.656801    26A     -0.643663    27A     -0.637460
      28A     -0.623535    29A     -0.612086    30A     -0.575043
      31A     -0.558052    32A     -0.554397    33A     -0.551354
      34A     -0.533788    35A     -0.522604    36A     -0.518683
      37A     -0.454772    38A     -0.429482    39A     -0.381644
      40A     -0.373930    41A     -0.327140

  @DF-RHF Final Energy:  -509.83034430503221

   => Energetics <=

    Nuclear Repulsion Energy =            628.7842439171598699
    One-Electron Energy =               -1941.0615750681365625
    Two-Electron Energy =                 802.4469868459445934
    Total Energy =                       -509.8303443050322130
  Basis Set: (AUG-CC-PVTZ AUX)
    Blend: AUG-CC-PVTZ-RI
    Molecular point group: c1

    Geometry (in Angstrom), charge = 0, multiplicity = 1:

       Center              X                  Y                   Z               Mass
    ------------   -----------------  -----------------  -----------------  -----------------
         O           -0.790210777356     1.712624203742    -0.420086609685    15.994914619570
         N            1.581439022644     0.583178003742     0.174596490315    14.003074004430
         N           -1.952308777356    -0.199848796258     0.060798390315    14.003074004430
         N            0.740805222644    -1.517131796258    -0.332370609685    14.003074004430
         C            0.495119222644    -0.224365796258    -0.066876609685    12.000000000000
         C           -0.798742777356     0.496514203742    -0.146935609685    12.000000000000
         C            2.688331222644    -0.435908796258     0.036302390315    12.000000000000
         C            1.843504222644     1.888195203742     0.441117390315    12.000000000000
         C           -3.213623777356     0.495288203742    -0.144490609685    12.000000000000
         C           -2.073462777356    -1.554417796258     0.579942390315    12.000000000000
         C            2.097935222644    -1.647506796258    -0.264043609685    12.000000000000
         H            3.718698222644    -0.143662796258     0.184061390315     1.007825032230
         H            1.116341222644     2.210631203742     1.183543390315     1.007825032230
         H            2.855455222644     2.019585203742     0.827592390315     1.007825032230
         H            1.698908222644     2.475967203742    -0.464085609685     1.007825032230
         H           -3.869880777356    -0.123652796258    -0.764514609685     1.007825032230
         H           -3.014670777356     1.443767203742    -0.638946609685     1.007825032230
         H           -3.710794777356     0.683104203742     0.814458390315     1.007825032230
         H           -1.097393777356    -1.955686796258     0.830980390315     1.007825032230
         H           -2.532404777356    -2.206642796258    -0.170999609685     1.007825032230
         H           -2.716962777356    -1.535287796258     1.467213390315     1.007825032230
         H            2.581994222644    -2.600354796258    -0.434466609685     1.007825032230

  Basis Set: AUG-CC-PVTZ
    Blend: AUG-CC-PVTZ
  Basis Set: (AUG-CC-PVTZ AUX)
    Blend: AUG-CC-PVTZ-JKFIT
	 Reference Energy          =    -509.8303443050322130 [Eh]
	 Singles Energy            =      -0.0000000000000000 [Eh]
	 Same-Spin Energy          =      -0.5449499523133604 [Eh]
	 Opposite-Spin Energy      =      -1.6992684843808967 [Eh]
	 Correlation Energy        =      -2.2442184366942572 [Eh]
	 Total Energy              =    -512.0745627417264814 [Eh]

	 ================> DF-SCS-MP2 Energies <==================
	-----------------------------------------------------------
	 SCS Same-Spin Scale       =       0.3333333333333333 [-]
	 SCS Opposite-Spin Scale   =       1.2000000000000000 [-]
	 SCS Same-Spin Energy      =      -0.1816499841044535 [Eh]
	 SCS Opposite-Spin Energy  =      -2.0391221812570759 [Eh]
	 SCS Correlation Energy    =      -2.2207721653615295 [Eh]
	 SCS Total Energy          =    -512.0511164703937084 [Eh]
	-----------------------------------------------------------

  Dipole Moment: [D]
     X:     0.6977      Y:    -0.3252      Z:     1.6493     Total:     1.8201

*** Psi4 exiting successfully. Buy a developer a beer!
