                               Psi4 1.4a3.dev225

  ==> Input File <==

--------------------------------------------------------------------------
#psi4
#
memory 32 gb

molecule  {
0 1
  O       -0.7670850     1.7208920    -0.4354900
  N        1.6863020     0.4747470     0.1388600
  N       -1.9291830    -0.1915810     0.0453950
  N        0.7639310    -1.5088640    -0.3477740
  C        0.5182450    -0.2160980    -0.0822800
  C       -0.7756170     0.5047820    -0.1623390
  C        2.6740651    -0.3947270     0.0252016
  C        1.8666300     1.8964630     0.4257140
  C       -3.1904980     0.5035560    -0.1598940
  C       -2.0503370    -1.5461500     0.5645390
  C        2.1210610    -1.6392390    -0.2794470
  H        3.7418240    -0.1353950     0.1686580
  H        1.1394670     2.2188990     1.1681400
  H        2.8785810     2.0278530     0.8121890
  H        1.7220340     2.4842350    -0.4794890
  H       -3.8467550    -0.1153850    -0.7799180
  H       -2.9915450     1.4520350    -0.6543500
  H       -3.6876690     0.6913720     0.7990550
  H       -1.0742680    -1.9474190     0.8155770
  H       -2.5092790    -2.1983750    -0.1864030
  H       -2.6938370    -1.5270200     1.4518100
  H        2.6051200    -2.5920870    -0.4498700
units angstrom
no_reorient  #important for SAPT in psi4, default
symmetry c1  #important for SAPT in psi4, default
}

set PROPERTIES_ORIGIN ["COM"]
properties('MP2/aug-cc-pvtz', properties = ['dipole'])
--------------------------------------------------------------------------

    Molecular point group: c1
  Charge       = 0
  Multiplicity = 1
  Basis Set: AUG-CC-PVTZ
    Blend: AUG-CC-PVTZ
  Basis Set: (AUG-CC-PVTZ AUX)
    Blend: AUG-CC-PVTZ-JKFIT

    Orbital Energies [Eh]
    ---------------------

    Doubly Occupied:

       1A    -20.515713     2A    -15.636778     3A    -15.590416
       4A    -15.563426     5A    -11.361303     6A    -11.300801
       7A    -11.274564     8A    -11.270810     9A    -11.254477
      10A    -11.251834    11A    -11.249926    12A     -1.381791
      13A     -1.351181    14A     -1.244254    15A     -1.194293
      16A     -1.031268    17A     -0.980467    18A     -0.965613
      19A     -0.937329    20A     -0.832963    21A     -0.810040
      22A     -0.744838    23A     -0.709292    24A     -0.664967
      25A     -0.656098    26A     -0.645778    27A     -0.642819
      28A     -0.605785    29A     -0.586187    30A     -0.573831
      31A     -0.569321    32A     -0.557408    33A     -0.554962
      34A     -0.552333    35A     -0.526772    36A     -0.523006
      37A     -0.449694    38A     -0.427658    39A     -0.397231
      40A     -0.372132    41A     -0.314970

  @DF-RHF Final Energy:  -509.85816187938218

   => Energetics <=

    Nuclear Repulsion Energy =            630.0129174815274382
    One-Electron Energy =               -1943.5934996194782798
    Two-Electron Energy =                 803.7224202585687181
    Total Energy =                       -509.8581618793821235
  Basis Set: (AUG-CC-PVTZ AUX)
    Blend: AUG-CC-PVTZ-RI
    Molecular point group: c1

    Geometry (in Angstrom), charge = 0, multiplicity = 1:

       Center              X                  Y                   Z               Mass
    ------------   -----------------  -----------------  -----------------  -----------------
         O           -0.794756262344     1.720718607143    -0.418564012642    15.994914619570
         N            1.658630737656     0.474573607143     0.155785987358    14.003074004430
         N           -1.956854262344    -0.191754392857     0.062320987358    14.003074004430
         N            0.736259737656    -1.509037392857    -0.330848012642    14.003074004430
         C            0.490573737656    -0.216271392857    -0.065354012642    12.000000000000
         C           -0.803288262344     0.504608607143    -0.145413012642    12.000000000000
         C            2.646393837656    -0.394900392857     0.042127587358    12.000000000000
         C            1.838958737656     1.896289607143     0.442639987358    12.000000000000
         C           -3.218169262344     0.503382607143    -0.142968012642    12.000000000000
         C           -2.078008262344    -1.546323392857     0.581464987358    12.000000000000
         C            2.093389737656    -1.639412392857    -0.262521012642    12.000000000000
         H            3.714152737656    -0.135568392857     0.185583987358     1.007825032230
         H            1.111795737656     2.218725607143     1.185065987358     1.007825032230
         H            2.850909737656     2.027679607143     0.829114987358     1.007825032230
         H            1.694362737656     2.484061607143    -0.462563012642     1.007825032230
         H           -3.874426262344    -0.115558392857    -0.762992012642     1.007825032230
         H           -3.019216262344     1.451861607143    -0.637424012642     1.007825032230
         H           -3.715340262344     0.691198607143     0.815980987358     1.007825032230
         H           -1.101939262344    -1.947592392857     0.832502987358     1.007825032230
         H           -2.536950262344    -2.198548392857    -0.169477012642     1.007825032230
         H           -2.721508262344    -1.527193392857     1.468735987358     1.007825032230
         H            2.577448737656    -2.592260392857    -0.432944012642     1.007825032230

  Basis Set: AUG-CC-PVTZ
    Blend: AUG-CC-PVTZ
  Basis Set: (AUG-CC-PVTZ AUX)
    Blend: AUG-CC-PVTZ-JKFIT
	 Reference Energy          =    -509.8581618793821804 [Eh]
	 Singles Energy            =      -0.0000000000000000 [Eh]
	 Same-Spin Energy          =      -0.5442255376987979 [Eh]
	 Opposite-Spin Energy      =      -1.6950409462931109 [Eh]
	 Correlation Energy        =      -2.2392664839919085 [Eh]
	 Total Energy              =    -512.0974283633740924 [Eh]

	 ================> DF-SCS-MP2 Energies <==================
	-----------------------------------------------------------
	 SCS Same-Spin Scale       =       0.3333333333333333 [-]
	 SCS Opposite-Spin Scale   =       1.2000000000000000 [-]
	 SCS Same-Spin Energy      =      -0.1814085125662659 [Eh]
	 SCS Opposite-Spin Energy  =      -2.0340491355517329 [Eh]
	 SCS Correlation Energy    =      -2.2154576481179991 [Eh]
	 SCS Total Energy          =    -512.0736195275002274 [Eh]
	-----------------------------------------------------------

  Dipole Moment: [D]
     X:     0.7996      Y:     0.0464      Z:     1.7298     Total:     1.9062

*** Psi4 exiting successfully. Buy a developer a beer!
