                               Psi4 1.3.2 release

  ==> Input File <==

--------------------------------------------------------------------------
#psi4
#
memory 32 gb

molecule  {
0 1
  O       -0.7670850     1.7208920    -0.4354900
  N        1.6863020     0.4747470     0.1388600
  N       -1.9291830    -0.1915810     0.0453950
  N        0.7639310    -1.5088640    -0.3477740
  C        0.4494074    -0.0914921    -0.0611196
  C       -0.7756170     0.5047820    -0.1623390
  C        2.7114570    -0.4276410     0.0208990
  C        1.8666300     1.8964630     0.4257140
  C       -3.1904980     0.5035560    -0.1598940
  C       -2.0503370    -1.5461500     0.5645390
  C        2.1210610    -1.6392390    -0.2794470
  H        3.7418240    -0.1353950     0.1686580
  H        1.1394670     2.2188990     1.1681400
  H        2.8785810     2.0278530     0.8121890
  H        1.7220340     2.4842350    -0.4794890
  H       -3.8467550    -0.1153850    -0.7799180
  H       -2.9915450     1.4520350    -0.6543500
  H       -3.6876690     0.6913720     0.7990550
  H       -1.0742680    -1.9474190     0.8155770
  H       -2.5092790    -2.1983750    -0.1864030
  H       -2.6938370    -1.5270200     1.4518100
  H        2.6051200    -2.5920870    -0.4498700
units angstrom
no_reorient  #important for SAPT in psi4, default
symmetry c1  #important for SAPT in psi4, default
}

set PROPERTIES_ORIGIN ["COM"]
properties('MP2/aug-cc-pvtz', properties = ['dipole'])
--------------------------------------------------------------------------

    Molecular point group: c1
  Charge       = 0
  Multiplicity = 1
  Basis Set: AUG-CC-PVTZ
    Blend: AUG-CC-PVTZ
  Basis Set: (AUG-CC-PVTZ AUX)
    Blend: AUG-CC-PVTZ-JKFIT

    Orbital Energies [Eh]
    ---------------------

    Doubly Occupied:

       1A    -20.511120     2A    -15.649964     3A    -15.589155
       4A    -15.570884     5A    -11.352278     6A    -11.304486
       7A    -11.276282     8A    -11.272127     9A    -11.259031
      10A    -11.252455    11A    -11.251020    12A     -1.382261
      13A     -1.332399    14A     -1.242981    15A     -1.167508
      16A     -1.045853    17A     -0.978129    18A     -0.964132
      19A     -0.940276    20A     -0.854301    21A     -0.805328
      22A     -0.739008    23A     -0.709983    24A     -0.669497
      25A     -0.658637    26A     -0.648228    27A     -0.639147
      28A     -0.604772    29A     -0.586839    30A     -0.577516
      31A     -0.561935    32A     -0.556323    33A     -0.551922
      34A     -0.550986    35A     -0.523094    36A     -0.520502
      37A     -0.433959    38A     -0.430774    39A     -0.385637
      40A     -0.371088    41A     -0.315527

  @DF-RHF Final Energy:  -509.82176684153455

   => Energetics <=

    Nuclear Repulsion Energy =            629.0252911156591153
    One-Electron Energy =               -1941.6194313326075189
    Two-Electron Energy =                 802.7723733754137356
    Total Energy =                       -509.8217668415345543
  Basis Set: (AUG-CC-PVTZ AUX)
    Blend: AUG-CC-PVTZ-RI
    Molecular point group: c1

    Geometry (in Angstrom), charge = 0, multiplicity = 1:

       Center              X                  Y                   Z               Mass
    ------------   -----------------  -----------------  -----------------  -----------------
         O           -0.792291386275     1.713531323347    -0.419885413908    15.994914619570
         N            1.661095613725     0.467386323347     0.154464586092    14.003074004430
         N           -1.954389386275    -0.198941676653     0.060999586092    14.003074004430
         N            0.738724613725    -1.516224676653    -0.332169413908    14.003074004430
         C            0.424201013725    -0.098852776653    -0.045515013908    12.000000000000
         C           -0.800823386275     0.497421323347    -0.146734413908    12.000000000000
         C            2.686250613725    -0.435001676653     0.036503586092    12.000000000000
         C            1.841423613725     1.889102323347     0.441318586092    12.000000000000
         C           -3.215704386275     0.496195323347    -0.144289413908    12.000000000000
         C           -2.075543386275    -1.553510676653     0.580143586092    12.000000000000
         C            2.095854613725    -1.646599676653    -0.263842413908    12.000000000000
         H            3.716617613725    -0.142755676653     0.184262586092     1.007825032230
         H            1.114260613725     2.211538323347     1.183744586092     1.007825032230
         H            2.853374613725     2.020492323347     0.827793586092     1.007825032230
         H            1.696827613725     2.476874323347    -0.463884413908     1.007825032230
         H           -3.871961386275    -0.122745676653    -0.764313413908     1.007825032230
         H           -3.016751386275     1.444674323347    -0.638745413908     1.007825032230
         H           -3.712875386275     0.684011323347     0.814659586092     1.007825032230
         H           -1.099474386275    -1.954779676653     0.831181586092     1.007825032230
         H           -2.534485386275    -2.205735676653    -0.170798413908     1.007825032230
         H           -2.719043386275    -1.534380676653     1.467414586092     1.007825032230
         H            2.579913613725    -2.599447676653    -0.434265413908     1.007825032230

  Basis Set: AUG-CC-PVTZ
    Blend: AUG-CC-PVTZ
  Basis Set: (AUG-CC-PVTZ AUX)
    Blend: AUG-CC-PVTZ-JKFIT
	 Reference Energy          =    -509.8217668415345543 [Eh]
	 Singles Energy            =      -0.0000000000000000 [Eh]
	 Same-Spin Energy          =      -0.5491113482982559 [Eh]
	 Opposite-Spin Energy      =      -1.7043133042272300 [Eh]
	 Correlation Energy        =      -2.2534246525254860 [Eh]
	 Total Energy              =    -512.0751914940600500 [Eh]

	 ================> DF-SCS-MP2 Energies <==================
	-----------------------------------------------------------
	 SCS Same-Spin Scale       =       0.3333333333333333 [-]
	 SCS Opposite-Spin Scale   =       1.2000000000000000 [-]
	 SCS Same-Spin Energy      =      -0.1830371160994186 [Eh]
	 SCS Opposite-Spin Energy  =      -2.0451759650726760 [Eh]
	 SCS Correlation Energy    =      -2.2282130811720946 [Eh]
	 SCS Total Energy          =    -512.0499799227065978 [Eh]
	-----------------------------------------------------------

  Dipole Moment: [D]
     X:     1.1444      Y:    -0.0552      Z:     1.7428     Total:     2.0857

*** Psi4 exiting successfully. Buy a developer a beer!
