                               Psi4 1.3.2 release

  ==> Input File <==

--------------------------------------------------------------------------
#psi4
#
memory 32 gb

molecule  {
0 1
  O       -0.7670850     1.7208920    -0.4354900
  N        1.6735453     0.4947581     0.1424235
  N       -1.9291830    -0.1915810     0.0453950
  N        0.7639310    -1.5088640    -0.3477740
  C        0.5182450    -0.2160980    -0.0822800
  C       -0.7756170     0.5047820    -0.1623390
  C        2.7114570    -0.4276410     0.0208990
  C        1.8666300     1.8964630     0.4257140
  C       -3.1904980     0.5035560    -0.1598940
  C       -2.0503370    -1.5461500     0.5645390
  C        2.1210610    -1.6392390    -0.2794470
  H        3.7418240    -0.1353950     0.1686580
  H        1.1394670     2.2188990     1.1681400
  H        2.8785810     2.0278530     0.8121890
  H        1.7220340     2.4842350    -0.4794890
  H       -3.8467550    -0.1153850    -0.7799180
  H       -2.9915450     1.4520350    -0.6543500
  H       -3.6876690     0.6913720     0.7990550
  H       -1.0742680    -1.9474190     0.8155770
  H       -2.5092790    -2.1983750    -0.1864030
  H       -2.6938370    -1.5270200     1.4518100
  H        2.6051200    -2.5920870    -0.4498700
units angstrom
no_reorient  #important for SAPT in psi4, default
symmetry c1  #important for SAPT in psi4, default
}

set PROPERTIES_ORIGIN ["COM"]
properties('MP2/aug-cc-pvtz', properties = ['dipole'])
--------------------------------------------------------------------------

    Molecular point group: c1
  Charge       = 0
  Multiplicity = 1
  Basis Set: AUG-CC-PVTZ
    Blend: AUG-CC-PVTZ
  Basis Set: (AUG-CC-PVTZ AUX)
    Blend: AUG-CC-PVTZ-JKFIT

    Orbital Energies [Eh]
    ---------------------

    Doubly Occupied:

       1A    -20.518175     2A    -15.633384     3A    -15.592322
       4A    -15.561854     5A    -11.362957     6A    -11.307904
       7A    -11.270610     8A    -11.269934     9A    -11.255594
      10A    -11.253414    11A    -11.252969    12A     -1.380659
      13A     -1.339011    14A     -1.245815    15A     -1.190918
      16A     -1.030572    17A     -0.977712    18A     -0.966931
      19A     -0.939140    20A     -0.831564    21A     -0.810269
      22A     -0.741911    23A     -0.709403    24A     -0.662290
      25A     -0.655422    26A     -0.644425    27A     -0.640097
      28A     -0.606607    29A     -0.598257    30A     -0.574206
      31A     -0.560102    32A     -0.557004    33A     -0.554214
      34A     -0.552791    35A     -0.527308    36A     -0.522265
      37A     -0.451456    38A     -0.429035    39A     -0.389760
      40A     -0.373347    41A     -0.321978

  @DF-RHF Final Energy:  -509.85906172181001

   => Energetics <=

    Nuclear Repulsion Energy =            628.9172476176786404
    One-Electron Energy =               -1941.4254468477824958
    Two-Electron Energy =                 802.6491375082938475
    Total Energy =                       -509.8590617218100078
  Basis Set: (AUG-CC-PVTZ AUX)
    Blend: AUG-CC-PVTZ-RI
    Molecular point group: c1

    Geometry (in Angstrom), charge = 0, multiplicity = 1:

       Center              X                  Y                   Z               Mass
    ------------   -----------------  -----------------  -----------------  -----------------
         O           -0.796520384180     1.721468172281    -0.418552703978    15.994914619570
         N            1.644109915820     0.495334272281     0.159360796022    14.003074004430
         N           -1.958618384180    -0.191004827719     0.062332296022    14.003074004430
         N            0.734495615820    -1.508287827719    -0.330836703978    14.003074004430
         C            0.488809615820    -0.215521827719    -0.065342703978    12.000000000000
         C           -0.805052384180     0.505358172281    -0.145401703978    12.000000000000
         C            2.682021615820    -0.427064827719     0.037836296022    12.000000000000
         C            1.837194615820     1.897039172281     0.442651296022    12.000000000000
         C           -3.219933384180     0.504132172281    -0.142956703978    12.000000000000
         C           -2.079772384180    -1.545573827719     0.581476296022    12.000000000000
         C            2.091625615820    -1.638662827719    -0.262509703978    12.000000000000
         H            3.712388615820    -0.134818827719     0.185595296022     1.007825032230
         H            1.110031615820     2.219475172281     1.185077296022     1.007825032230
         H            2.849145615820     2.028429172281     0.829126296022     1.007825032230
         H            1.692598615820     2.484811172281    -0.462551703978     1.007825032230
         H           -3.876190384180    -0.114808827719    -0.762980703978     1.007825032230
         H           -3.020980384180     1.452611172281    -0.637412703978     1.007825032230
         H           -3.717104384180     0.691948172281     0.815992296022     1.007825032230
         H           -1.103703384180    -1.946842827719     0.832514296022     1.007825032230
         H           -2.538714384180    -2.197798827719    -0.169465703978     1.007825032230
         H           -2.723272384180    -1.526443827719     1.468747296022     1.007825032230
         H            2.575684615820    -2.591510827719    -0.432932703978     1.007825032230

  Basis Set: AUG-CC-PVTZ
    Blend: AUG-CC-PVTZ
  Basis Set: (AUG-CC-PVTZ AUX)
    Blend: AUG-CC-PVTZ-JKFIT
	 Reference Energy          =    -509.8590617218100078 [Eh]
	 Singles Energy            =      -0.0000000000000000 [Eh]
	 Same-Spin Energy          =      -0.5440050387581967 [Eh]
	 Opposite-Spin Energy      =      -1.6959096780152654 [Eh]
	 Correlation Energy        =      -2.2399147167734621 [Eh]
	 Total Energy              =    -512.0989764385834633 [Eh]

	 ================> DF-SCS-MP2 Energies <==================
	-----------------------------------------------------------
	 SCS Same-Spin Scale       =       0.3333333333333333 [-]
	 SCS Opposite-Spin Scale   =       1.2000000000000000 [-]
	 SCS Same-Spin Energy      =      -0.1813350129193989 [Eh]
	 SCS Opposite-Spin Energy  =      -2.0350916136183184 [Eh]
	 SCS Correlation Energy    =      -2.2164266265377170 [Eh]
	 SCS Total Energy          =    -512.0754883483476760 [Eh]
	-----------------------------------------------------------

  Dipole Moment: [D]
     X:     0.7308      Y:    -0.0612      Z:     1.7049     Total:     1.8560

*** Psi4 exiting successfully. Buy a developer a beer!
