                               Psi4 1.3.2 release

  ==> Input File <==

--------------------------------------------------------------------------
#psi4
#
memory 32 gb

molecule  {
0 1
  O       -0.7670850     1.7208920    -0.4354900
  N        1.6387939     0.4848375     0.1232508
  N       -1.9291830    -0.1915810     0.0453950
  N        0.7639310    -1.5088640    -0.3477740
  C        0.5182450    -0.2160980    -0.0822800
  C       -0.7756170     0.5047820    -0.1623390
  C        2.7114570    -0.4276410     0.0208990
  C        1.8666300     1.8964630     0.4257140
  C       -3.1904980     0.5035560    -0.1598940
  C       -2.0503370    -1.5461500     0.5645390
  C        2.1210610    -1.6392390    -0.2794470
  H        3.7418240    -0.1353950     0.1686580
  H        1.1394670     2.2188990     1.1681400
  H        2.8785810     2.0278530     0.8121890
  H        1.7220340     2.4842350    -0.4794890
  H       -3.8467550    -0.1153850    -0.7799180
  H       -2.9915450     1.4520350    -0.6543500
  H       -3.6876690     0.6913720     0.7990550
  H       -1.0742680    -1.9474190     0.8155770
  H       -2.5092790    -2.1983750    -0.1864030
  H       -2.6938370    -1.5270200     1.4518100
  H        2.6051200    -2.5920870    -0.4498700
units angstrom
no_reorient  #important for SAPT in psi4, default
symmetry c1  #important for SAPT in psi4, default
}

set PROPERTIES_ORIGIN ["COM"]
properties('MP2/aug-cc-pvtz', properties = ['dipole'])
--------------------------------------------------------------------------

    Molecular point group: c1
  Charge       = 0
  Multiplicity = 1
  Basis Set: AUG-CC-PVTZ
    Blend: AUG-CC-PVTZ
  Basis Set: (AUG-CC-PVTZ AUX)
    Blend: AUG-CC-PVTZ-JKFIT

    Orbital Energies [Eh]
    ---------------------

    Doubly Occupied:

       1A    -20.518773     2A    -15.633260     3A    -15.592588
       4A    -15.556521     5A    -11.362896     6A    -11.305863
       7A    -11.272375     8A    -11.268346     9A    -11.255373
      10A    -11.254233    11A    -11.253061    12A     -1.382416
      13A     -1.341751    14A     -1.245957    15A     -1.186199
      16A     -1.031222    17A     -0.976828    18A     -0.967191
      19A     -0.941507    20A     -0.831069    21A     -0.811239
      22A     -0.740714    23A     -0.709458    24A     -0.662685
      25A     -0.655148    26A     -0.644361    27A     -0.639805
      28A     -0.606144    29A     -0.600034    30A     -0.574219
      31A     -0.558666    32A     -0.556051    33A     -0.554678
      34A     -0.552720    35A     -0.527555    36A     -0.522447
      37A     -0.449465    38A     -0.428848    39A     -0.388089
      40A     -0.373493    41A     -0.323984

  @DF-RHF Final Energy:  -509.85805409639727

   => Energetics <=

    Nuclear Repulsion Energy =            629.4969469286791082
    One-Electron Energy =               -1942.5955412880748554
    Two-Electron Energy =                 803.2405402629984792
    Total Energy =                       -509.8580540963972680
  Basis Set: (AUG-CC-PVTZ AUX)
    Blend: AUG-CC-PVTZ-RI
    Molecular point group: c1

    Geometry (in Angstrom), charge = 0, multiplicity = 1:

       Center              X                  Y                   Z               Mass
    ------------   -----------------  -----------------  -----------------  -----------------
         O           -0.793341693527     1.722375603880    -0.416798988091    15.994914619570
         N            1.612537206473     0.486321103880     0.141941811909    14.003074004430
         N           -1.955439693527    -0.190097396120     0.064086011909    14.003074004430
         N            0.737674306473    -1.507380396120    -0.329082988091    14.003074004430
         C            0.491988306473    -0.214614396120    -0.063588988091    12.000000000000
         C           -0.801873693527     0.506265603880    -0.143647988091    12.000000000000
         C            2.685200306473    -0.426157396120     0.039590011909    12.000000000000
         C            1.840373306473     1.897946603880     0.444405011909    12.000000000000
         C           -3.216754693527     0.505039603880    -0.141202988091    12.000000000000
         C           -2.076593693527    -1.544666396120     0.583230011909    12.000000000000
         C            2.094804306473    -1.637755396120    -0.260755988091    12.000000000000
         H            3.715567306473    -0.133911396120     0.187349011909     1.007825032230
         H            1.113210306473     2.220382603880     1.186831011909     1.007825032230
         H            2.852324306473     2.029336603880     0.830880011909     1.007825032230
         H            1.695777306473     2.485718603880    -0.460797988091     1.007825032230
         H           -3.873011693527    -0.113901396120    -0.761226988091     1.007825032230
         H           -3.017801693527     1.453518603880    -0.635658988091     1.007825032230
         H           -3.713925693527     0.692855603880     0.817746011909     1.007825032230
         H           -1.100524693527    -1.945935396120     0.834268011909     1.007825032230
         H           -2.535535693527    -2.196891396120    -0.167711988091     1.007825032230
         H           -2.720093693527    -1.525536396120     1.470501011909     1.007825032230
         H            2.578863306473    -2.590603396120    -0.431178988091     1.007825032230

  Basis Set: AUG-CC-PVTZ
    Blend: AUG-CC-PVTZ
  Basis Set: (AUG-CC-PVTZ AUX)
    Blend: AUG-CC-PVTZ-JKFIT
	 Reference Energy          =    -509.8580540963972680 [Eh]
	 Singles Energy            =      -0.0000000000000000 [Eh]
	 Same-Spin Energy          =      -0.5436440657554715 [Eh]
	 Opposite-Spin Energy      =      -1.6954914414113460 [Eh]
	 Correlation Energy        =      -2.2391355071668175 [Eh]
	 Total Energy              =    -512.0971896035640611 [Eh]

	 ================> DF-SCS-MP2 Energies <==================
	-----------------------------------------------------------
	 SCS Same-Spin Scale       =       0.3333333333333333 [-]
	 SCS Opposite-Spin Scale   =       1.2000000000000000 [-]
	 SCS Same-Spin Energy      =      -0.1812146885851572 [Eh]
	 SCS Opposite-Spin Energy  =      -2.0345897296936153 [Eh]
	 SCS Correlation Energy    =      -2.2158044182787724 [Eh]
	 SCS Total Energy          =    -512.0738585146760897 [Eh]
	-----------------------------------------------------------

  Dipole Moment: [D]
     X:     0.7447      Y:    -0.0032      Z:     1.7289     Total:     1.8825

*** Psi4 exiting successfully. Buy a developer a beer!
