                               Psi4 1.3.2 release

  ==> Input File <==

--------------------------------------------------------------------------
#psi4
#
memory 32 gb

molecule  {
0 1
  O       -0.7670850     1.7208920    -0.4354900
  N        1.6863020     0.4747470     0.1388600
  N       -1.9291830    -0.1915810     0.0453950
  N        0.7639310    -1.5088640    -0.3477740
  C        0.5058612    -0.1958201    -0.0789156
  C       -0.7756170     0.5047820    -0.1623390
  C        2.7114570    -0.4276410     0.0208990
  C        1.8666300     1.8964630     0.4257140
  C       -3.1904980     0.5035560    -0.1598940
  C       -2.0503370    -1.5461500     0.5645390
  C        2.1210610    -1.6392390    -0.2794470
  H        3.7418240    -0.1353950     0.1686580
  H        1.1394670     2.2188990     1.1681400
  H        2.8785810     2.0278530     0.8121890
  H        1.7220340     2.4842350    -0.4794890
  H       -3.8467550    -0.1153850    -0.7799180
  H       -2.9915450     1.4520350    -0.6543500
  H       -3.6876690     0.6913720     0.7990550
  H       -1.0742680    -1.9474190     0.8155770
  H       -2.5092790    -2.1983750    -0.1864030
  H       -2.6938370    -1.5270200     1.4518100
  H        2.6051200    -2.5920870    -0.4498700
units angstrom
no_reorient  #important for SAPT in psi4, default
symmetry c1  #important for SAPT in psi4, default
}

set PROPERTIES_ORIGIN ["COM"]
properties('MP2/aug-cc-pvtz', properties = ['dipole'])
--------------------------------------------------------------------------

    Molecular point group: c1
  Charge       = 0
  Multiplicity = 1
  Basis Set: AUG-CC-PVTZ
    Blend: AUG-CC-PVTZ
  Basis Set: (AUG-CC-PVTZ AUX)
    Blend: AUG-CC-PVTZ-JKFIT

    Orbital Energies [Eh]
    ---------------------

    Doubly Occupied:

       1A    -20.516836     2A    -15.636397     3A    -15.591813
       4A    -15.563261     5A    -11.361759     6A    -11.305451
       7A    -11.271982     8A    -11.270232     9A    -11.254948
      10A    -11.252666    11A    -11.252494    12A     -1.380765
      13A     -1.339833    14A     -1.245285    15A     -1.184512
      16A     -1.034044    17A     -0.976817    18A     -0.966399
      19A     -0.939150    20A     -0.835481    21A     -0.809805
      22A     -0.741523    23A     -0.709829    24A     -0.663233
      25A     -0.655890    26A     -0.646657    27A     -0.639808
      28A     -0.605275    29A     -0.591188    30A     -0.575525
      31A     -0.563878    32A     -0.557135    33A     -0.554195
      34A     -0.552788    35A     -0.526784    36A     -0.522648
      37A     -0.447506    38A     -0.430231    39A     -0.389864
      40A     -0.372959    41A     -0.320031

  @DF-RHF Final Energy:  -509.85767890788463

   => Energetics <=

    Nuclear Repulsion Energy =            628.9666385996099507
    One-Electron Energy =               -1941.5348784611212523
    Two-Electron Energy =                 802.7105609536266684
    Total Energy =                       -509.8576789078846332
  Basis Set: (AUG-CC-PVTZ AUX)
    Blend: AUG-CC-PVTZ-RI
    Molecular point group: c1

    Geometry (in Angstrom), charge = 0, multiplicity = 1:

       Center              X                  Y                   Z               Mass
    ------------   -----------------  -----------------  -----------------  -----------------
         O           -0.796716526140     1.721709089801    -0.418490471690    15.994914619570
         N            1.656670473860     0.475564089801     0.155859528310    14.003074004430
         N           -1.958814526140    -0.190763910199     0.062394528310    14.003074004430
         N            0.734299473860    -1.508046910199    -0.330774471690    14.003074004430
         C            0.476229673860    -0.195003010199    -0.061916071690    12.000000000000
         C           -0.805248526140     0.505599089801    -0.145339471690    12.000000000000
         C            2.681825473860    -0.426823910199     0.037898528310    12.000000000000
         C            1.836998473860     1.897280089801     0.442713528310    12.000000000000
         C           -3.220129526140     0.504373089801    -0.142894471690    12.000000000000
         C           -2.079968526140    -1.545332910199     0.581538528310    12.000000000000
         C            2.091429473860    -1.638421910199    -0.262447471690    12.000000000000
         H            3.712192473860    -0.134577910199     0.185657528310     1.007825032230
         H            1.109835473860     2.219716089801     1.185139528310     1.007825032230
         H            2.848949473860     2.028670089801     0.829188528310     1.007825032230
         H            1.692402473860     2.485052089801    -0.462489471690     1.007825032230
         H           -3.876386526140    -0.114567910199    -0.762918471690     1.007825032230
         H           -3.021176526140     1.452852089801    -0.637350471690     1.007825032230
         H           -3.717300526140     0.692189089801     0.816054528310     1.007825032230
         H           -1.103899526140    -1.946601910199     0.832576528310     1.007825032230
         H           -2.538910526140    -2.197557910199    -0.169403471690     1.007825032230
         H           -2.723468526140    -1.526202910199     1.468809528310     1.007825032230
         H            2.575488473860    -2.591269910199    -0.432870471690     1.007825032230

  Basis Set: AUG-CC-PVTZ
    Blend: AUG-CC-PVTZ
  Basis Set: (AUG-CC-PVTZ AUX)
    Blend: AUG-CC-PVTZ-JKFIT
	 Reference Energy          =    -509.8576789078846332 [Eh]
	 Singles Energy            =      -0.0000000000000000 [Eh]
	 Same-Spin Energy          =      -0.5447038486347324 [Eh]
	 Opposite-Spin Energy      =      -1.6967052495136650 [Eh]
	 Correlation Energy        =      -2.2414090981483974 [Eh]
	 Total Energy              =    -512.0990880060330710 [Eh]

	 ================> DF-SCS-MP2 Energies <==================
	-----------------------------------------------------------
	 SCS Same-Spin Scale       =       0.3333333333333333 [-]
	 SCS Opposite-Spin Scale   =       1.2000000000000000 [-]
	 SCS Same-Spin Energy      =      -0.1815679495449108 [Eh]
	 SCS Opposite-Spin Energy  =      -2.0360462994163977 [Eh]
	 SCS Correlation Energy    =      -2.2176142489613087 [Eh]
	 SCS Total Energy          =    -512.0752931568459871 [Eh]
	-----------------------------------------------------------

  Dipole Moment: [D]
     X:     0.8119      Y:    -0.0080      Z:     1.7232     Total:     1.9049

*** Psi4 exiting successfully. Buy a developer a beer!
