                               Psi4 1.3.2 release

  ==> Input File <==

--------------------------------------------------------------------------
#psi4
#
memory 32 gb

molecule  {
0 1
  O       -0.7670850     1.7208920    -0.4354900
  N        1.6863020     0.4747470     0.1388600
  N       -1.9291830    -0.1915810     0.0453950
  N        0.7639310    -1.5088640    -0.3477740
  C        0.5309846    -0.2361655    -0.0855771
  C       -0.7756170     0.5047820    -0.1623390
  C        2.7114570    -0.4276410     0.0208990
  C        1.8666300     1.8964630     0.4257140
  C       -3.1904980     0.5035560    -0.1598940
  C       -2.0503370    -1.5461500     0.5645390
  C        2.1210610    -1.6392390    -0.2794470
  H        3.7418240    -0.1353950     0.1686580
  H        1.1394670     2.2188990     1.1681400
  H        2.8785810     2.0278530     0.8121890
  H        1.7220340     2.4842350    -0.4794890
  H       -3.8467550    -0.1153850    -0.7799180
  H       -2.9915450     1.4520350    -0.6543500
  H       -3.6876690     0.6913720     0.7990550
  H       -1.0742680    -1.9474190     0.8155770
  H       -2.5092790    -2.1983750    -0.1864030
  H       -2.6938370    -1.5270200     1.4518100
  H        2.6051200    -2.5920870    -0.4498700
units angstrom
no_reorient  #important for SAPT in psi4, default
symmetry c1  #important for SAPT in psi4, default
}

set PROPERTIES_ORIGIN ["COM"]
properties('MP2/aug-cc-pvtz', properties = ['dipole'])
--------------------------------------------------------------------------

    Molecular point group: c1
  Charge       = 0
  Multiplicity = 1
  Basis Set: AUG-CC-PVTZ
    Blend: AUG-CC-PVTZ
  Basis Set: (AUG-CC-PVTZ AUX)
    Blend: AUG-CC-PVTZ-JKFIT

    Orbital Energies [Eh]
    ---------------------

    Doubly Occupied:

       1A    -20.518429     2A    -15.631223     3A    -15.592270
       4A    -15.559902     5A    -11.364102     6A    -11.305350
       7A    -11.272070     8A    -11.268625     9A    -11.255721
      10A    -11.252949    11A    -11.250438    12A     -1.380427
      13A     -1.344517    14A     -1.245668    15A     -1.193289
      16A     -1.030111    17A     -0.976378    18A     -0.966917
      19A     -0.938468    20A     -0.828674    21A     -0.811602
      22A     -0.742289    23A     -0.709743    24A     -0.662077
      25A     -0.654914    26A     -0.645032    27A     -0.640172
      28A     -0.606035    29A     -0.593477    30A     -0.573049
      31A     -0.563854    32A     -0.556988    33A     -0.555452
      34A     -0.553264    35A     -0.527735    36A     -0.523150
      37A     -0.453944    38A     -0.427218    39A     -0.393335
      40A     -0.373311    41A     -0.321090

  @DF-RHF Final Energy:  -509.86154776863043

   => Energetics <=

    Nuclear Repulsion Energy =            629.0221900662276084
    One-Electron Energy =               -1941.6409486833804294
    Two-Electron Energy =                 802.7572108485222770
    Total Energy =                       -509.8615477686304303
  Basis Set: (AUG-CC-PVTZ AUX)
    Blend: AUG-CC-PVTZ-RI
    Molecular point group: c1

    Geometry (in Angstrom), charge = 0, multiplicity = 1:

       Center              X                  Y                   Z               Mass
    ------------   -----------------  -----------------  -----------------  -----------------
         O           -0.798685827744     1.724871570234    -0.417968308979    15.994914619570
         N            1.654701172256     0.478726570234     0.156381691021    14.003074004430
         N           -1.960783827744    -0.187601429766     0.062916691021    14.003074004430
         N            0.732330172256    -1.504884429766    -0.330252308979    14.003074004430
         C            0.499383772256    -0.232185929766    -0.068055408979    12.000000000000
         C           -0.807217827744     0.508761570234    -0.144817308979    12.000000000000
         C            2.679856172256    -0.423661429766     0.038420691021    12.000000000000
         C            1.835029172256     1.900442570234     0.443235691021    12.000000000000
         C           -3.222098827744     0.507535570234    -0.142372308979    12.000000000000
         C           -2.081937827744    -1.542170429766     0.582060691021    12.000000000000
         C            2.089460172256    -1.635259429766    -0.261925308979    12.000000000000
         H            3.710223172256    -0.131415429766     0.186179691021     1.007825032230
         H            1.107866172256     2.222878570234     1.185661691021     1.007825032230
         H            2.846980172256     2.031832570234     0.829710691021     1.007825032230
         H            1.690433172256     2.488214570234    -0.461967308979     1.007825032230
         H           -3.878355827744    -0.111405429766    -0.762396308979     1.007825032230
         H           -3.023145827744     1.456014570234    -0.636828308979     1.007825032230
         H           -3.719269827744     0.695351570234     0.816576691021     1.007825032230
         H           -1.105868827744    -1.943439429766     0.833098691021     1.007825032230
         H           -2.540879827744    -2.194395429766    -0.168881308979     1.007825032230
         H           -2.725437827744    -1.523040429766     1.469331691021     1.007825032230
         H            2.573519172256    -2.588107429766    -0.432348308979     1.007825032230

  Basis Set: AUG-CC-PVTZ
    Blend: AUG-CC-PVTZ
  Basis Set: (AUG-CC-PVTZ AUX)
    Blend: AUG-CC-PVTZ-JKFIT
	 Reference Energy          =    -509.8615477686304303 [Eh]
	 Singles Energy            =      -0.0000000000000000 [Eh]
	 Same-Spin Energy          =      -0.5432438585084735 [Eh]
	 Opposite-Spin Energy      =      -1.6943942825198433 [Eh]
	 Correlation Energy        =      -2.2376381410283166 [Eh]
	 Total Energy              =    -512.0991859096587859 [Eh]

	 ================> DF-SCS-MP2 Energies <==================
	-----------------------------------------------------------
	 SCS Same-Spin Scale       =       0.3333333333333333 [-]
	 SCS Opposite-Spin Scale   =       1.2000000000000000 [-]
	 SCS Same-Spin Energy      =      -0.1810812861694912 [Eh]
	 SCS Opposite-Spin Energy  =      -2.0332731390238119 [Eh]
	 SCS Correlation Energy    =      -2.2143544251933029 [Eh]
	 SCS Total Energy          =    -512.0759021938237083 [Eh]
	-----------------------------------------------------------

  Dipole Moment: [D]
     X:     0.6787      Y:    -0.0012      Z:     1.7112     Total:     1.8408

*** Psi4 exiting successfully. Buy a developer a beer!
