                               Psi4 1.3.2 release

  ==> Input File <==

--------------------------------------------------------------------------
#psi4
#
memory 32 gb

molecule  {
0 1
  O       -0.7670850     1.7208920    -0.4354900
  N        1.6863020     0.4747470     0.1388600
  N       -1.9291830    -0.1915810     0.0453950
  N        0.7639310    -1.5088640    -0.3477740
  C        0.5182450    -0.2160980    -0.0822800
  C       -0.7756170     0.5047820    -0.1623390
  C        2.7114570    -0.4276410     0.0208990
  C        1.8666300     1.8964630     0.4257140
  C       -3.1904980     0.5035560    -0.1598940
  C       -2.0503370    -1.5461500     0.5645390
  C        2.2065730    -1.4637531    -0.2359454
  H        3.7418240    -0.1353950     0.1686580
  H        1.1394670     2.2188990     1.1681400
  H        2.8785810     2.0278530     0.8121890
  H        1.7220340     2.4842350    -0.4794890
  H       -3.8467550    -0.1153850    -0.7799180
  H       -2.9915450     1.4520350    -0.6543500
  H       -3.6876690     0.6913720     0.7990550
  H       -1.0742680    -1.9474190     0.8155770
  H       -2.5092790    -2.1983750    -0.1864030
  H       -2.6938370    -1.5270200     1.4518100
  H        2.6051200    -2.5920870    -0.4498700
units angstrom
no_reorient  #important for SAPT in psi4, default
symmetry c1  #important for SAPT in psi4, default
}

set PROPERTIES_ORIGIN ["COM"]
properties('MP2/aug-cc-pvtz', properties = ['dipole'])
--------------------------------------------------------------------------

    Molecular point group: c1
  Charge       = 0
  Multiplicity = 1
  Basis Set: AUG-CC-PVTZ
    Blend: AUG-CC-PVTZ
  Basis Set: (AUG-CC-PVTZ AUX)
    Blend: AUG-CC-PVTZ-JKFIT

    Orbital Energies [Eh]
    ---------------------

    Doubly Occupied:

       1A    -20.522582     2A    -15.616781     3A    -15.596178
       4A    -15.561457     5A    -11.366529     6A    -11.314928
       7A    -11.267271     8A    -11.257496     9A    -11.255362
      10A    -11.242081    11A    -11.235745    12A     -1.384768
      13A     -1.348543    14A     -1.248846    15A     -1.170905
      16A     -1.069630    17A     -0.974593    18A     -0.967260
      19A     -0.941611    20A     -0.846863    21A     -0.795222
      22A     -0.733074    23A     -0.713157    24A     -0.665397
      25A     -0.656522    26A     -0.649681    27A     -0.642581
      28A     -0.605361    29A     -0.585845    30A     -0.572236
      31A     -0.562279    32A     -0.556826    33A     -0.555458
      34A     -0.532285    35A     -0.529055    36A     -0.507616
      37A     -0.461774    38A     -0.431649    39A     -0.378473
      40A     -0.374452    41A     -0.360944

  @DF-RHF Final Energy:  -509.79647300754840

   => Energetics <=

    Nuclear Repulsion Energy =            631.5190427542480620
    One-Electron Energy =               -1946.5124034562475117
    Two-Electron Energy =                 805.1968876944509930
    Total Energy =                       -509.7964730075483430
  Basis Set: (AUG-CC-PVTZ AUX)
    Blend: AUG-CC-PVTZ-RI
    Molecular point group: c1

    Geometry (in Angstrom), charge = 0, multiplicity = 1:

       Center              X                  Y                   Z               Mass
    ------------   -----------------  -----------------  -----------------  -----------------
         O           -0.804390103600     1.709543086659    -0.421636632334    15.994914619570
         N            1.648996896400     0.463398086659     0.152713367666    14.003074004430
         N           -1.966488103600    -0.202929913341     0.059248367666    14.003074004430
         N            0.726625896400    -1.520212913341    -0.333920632334    14.003074004430
         C            0.480939896400    -0.227446913341    -0.068426632334    12.000000000000
         C           -0.812922103600     0.493433086659    -0.148485632334    12.000000000000
         C            2.674151896400    -0.438989913341     0.034752367666    12.000000000000
         C            1.829324896400     1.885114086659     0.439567367666    12.000000000000
         C           -3.227803103600     0.492207086659    -0.146040632334    12.000000000000
         C           -2.087642103600    -1.557498913341     0.578392367666    12.000000000000
         C            2.169267896400    -1.475102013341    -0.222092032334    12.000000000000
         H            3.704518896400    -0.146743913341     0.182511367666     1.007825032230
         H            1.102161896400     2.207550086659     1.181993367666     1.007825032230
         H            2.841275896400     2.016504086659     0.826042367666     1.007825032230
         H            1.684728896400     2.472886086659    -0.465635632334     1.007825032230
         H           -3.884060103600    -0.126733913341    -0.766064632334     1.007825032230
         H           -3.028850103600     1.440686086659    -0.640496632334     1.007825032230
         H           -3.724974103600     0.680023086659     0.812908367666     1.007825032230
         H           -1.111573103600    -1.958767913341     0.829430367666     1.007825032230
         H           -2.546584103600    -2.209723913341    -0.172549632334     1.007825032230
         H           -2.731142103600    -1.538368913341     1.465663367666     1.007825032230
         H            2.567814896400    -2.603435913341    -0.436016632334     1.007825032230

  Basis Set: AUG-CC-PVTZ
    Blend: AUG-CC-PVTZ
  Basis Set: (AUG-CC-PVTZ AUX)
    Blend: AUG-CC-PVTZ-JKFIT
	 Reference Energy          =    -509.7964730075483999 [Eh]
	 Singles Energy            =      -0.0000000000000000 [Eh]
	 Same-Spin Energy          =      -0.5420090258955339 [Eh]
	 Opposite-Spin Energy      =      -1.6946658131121173 [Eh]
	 Correlation Energy        =      -2.2366748390076512 [Eh]
	 Total Energy              =    -512.0331478465560622 [Eh]

	 ================> DF-SCS-MP2 Energies <==================
	-----------------------------------------------------------
	 SCS Same-Spin Scale       =       0.3333333333333333 [-]
	 SCS Opposite-Spin Scale   =       1.2000000000000000 [-]
	 SCS Same-Spin Energy      =      -0.1806696752985113 [Eh]
	 SCS Opposite-Spin Energy  =      -2.0335989757345407 [Eh]
	 SCS Correlation Energy    =      -2.2142686510330520 [Eh]
	 SCS Total Energy          =    -512.0107416585814235 [Eh]
	-----------------------------------------------------------

  Dipole Moment: [D]
     X:     0.5458      Y:     0.1060      Z:     1.7442     Total:     1.8307

*** Psi4 exiting successfully. Buy a developer a beer!
