                               Psi4 1.3.2 release

  ==> Input File <==

--------------------------------------------------------------------------
#psi4
#
memory 32 gb

molecule  {
0 1
  O       -0.7670850     1.7208920    -0.4354900
  N        1.6863020     0.4747470     0.1388600
  N       -1.9291830    -0.1915810     0.0453950
  N        0.7639310    -1.5088640    -0.3477740
  C        0.5712989    -0.2950446    -0.0950542
  C       -0.7756170     0.5047820    -0.1623390
  C        2.7114570    -0.4276410     0.0208990
  C        1.8666300     1.8964630     0.4257140
  C       -3.1904980     0.5035560    -0.1598940
  C       -2.0503370    -1.5461500     0.5645390
  C        2.1210610    -1.6392390    -0.2794470
  H        3.7418240    -0.1353950     0.1686580
  H        1.1394670     2.2188990     1.1681400
  H        2.8785810     2.0278530     0.8121890
  H        1.7220340     2.4842350    -0.4794890
  H       -3.8467550    -0.1153850    -0.7799180
  H       -2.9915450     1.4520350    -0.6543500
  H       -3.6876690     0.6913720     0.7990550
  H       -1.0742680    -1.9474190     0.8155770
  H       -2.5092790    -2.1983750    -0.1864030
  H       -2.6938370    -1.5270200     1.4518100
  H        2.6051200    -2.5920870    -0.4498700
units angstrom
no_reorient  #important for SAPT in psi4, default
symmetry c1  #important for SAPT in psi4, default
}

set PROPERTIES_ORIGIN ["COM"]
properties('MP2/aug-cc-pvtz', properties = ['dipole'])
--------------------------------------------------------------------------

    Molecular point group: c1
  Charge       = 0
  Multiplicity = 1
  Basis Set: AUG-CC-PVTZ
    Blend: AUG-CC-PVTZ
  Basis Set: (AUG-CC-PVTZ AUX)
    Blend: AUG-CC-PVTZ-JKFIT

    Orbital Energies [Eh]
    ---------------------

    Doubly Occupied:

       1A    -20.519780     2A    -15.624074     3A    -15.592147
       4A    -15.554864     5A    -11.365496     6A    -11.304837
       7A    -11.272402     8A    -11.267219     9A    -11.256567
      10A    -11.252856    11A    -11.248350    12A     -1.380820
      13A     -1.353339    14A     -1.245607    15A     -1.207911
      16A     -1.025781    17A     -0.975505    18A     -0.967138
      19A     -0.937078    20A     -0.824788    21A     -0.808763
      22A     -0.743308    23A     -0.709702    24A     -0.661361
      25A     -0.653532    26A     -0.642664    27A     -0.640546
      28A     -0.608010    29A     -0.596086    30A     -0.570385
      31A     -0.562870    32A     -0.558960    33A     -0.554746
      34A     -0.552935    35A     -0.528638    36A     -0.522961
      37A     -0.463664    38A     -0.420322    39A     -0.400372
      40A     -0.373267    41A     -0.322046

  @DF-RHF Final Energy:  -509.85428846665064

   => Energetics <=

    Nuclear Repulsion Energy =            629.2008911462393144
    One-Electron Energy =               -1941.9669714856588598
    Two-Electron Energy =                 802.9117918727690721
    Total Energy =                       -509.8542884666505870
  Basis Set: (AUG-CC-PVTZ AUX)
    Blend: AUG-CC-PVTZ-RI
    Molecular point group: c1

    Geometry (in Angstrom), charge = 0, multiplicity = 1:

       Center              X                  Y                   Z               Mass
    ------------   -----------------  -----------------  -----------------  -----------------
         O           -0.801845870399     1.729486817616    -0.417225445027    15.994914619570
         N            1.651541129601     0.483341817616     0.157124554973    14.003074004430
         N           -1.963943870399    -0.182986182384     0.063659554973    14.003074004430
         N            0.729170129601    -1.500269182384    -0.329509445027    14.003074004430
         C            0.536538029601    -0.286449782384    -0.076789645027    12.000000000000
         C           -0.810377870399     0.513376817616    -0.144074445027    12.000000000000
         C            2.676696129601    -0.419046182384     0.039163554973    12.000000000000
         C            1.831869129601     1.905057817616     0.443978554973    12.000000000000
         C           -3.225258870399     0.512150817616    -0.141629445027    12.000000000000
         C           -2.085097870399    -1.537555182384     0.582803554973    12.000000000000
         C            2.086300129601    -1.630644182384    -0.261182445027    12.000000000000
         H            3.707063129601    -0.126800182384     0.186922554973     1.007825032230
         H            1.104706129601     2.227493817616     1.186404554973     1.007825032230
         H            2.843820129601     2.036447817616     0.830453554973     1.007825032230
         H            1.687273129601     2.492829817616    -0.461224445027     1.007825032230
         H           -3.881515870399    -0.106790182384    -0.761653445027     1.007825032230
         H           -3.026305870399     1.460629817616    -0.636085445027     1.007825032230
         H           -3.722429870399     0.699966817616     0.817319554973     1.007825032230
         H           -1.109028870399    -1.938824182384     0.833841554973     1.007825032230
         H           -2.544039870399    -2.189780182384    -0.168138445027     1.007825032230
         H           -2.728597870399    -1.518425182384     1.470074554973     1.007825032230
         H            2.570359129601    -2.583492182384    -0.431605445027     1.007825032230

  Basis Set: AUG-CC-PVTZ
    Blend: AUG-CC-PVTZ
  Basis Set: (AUG-CC-PVTZ AUX)
    Blend: AUG-CC-PVTZ-JKFIT
	 Reference Energy          =    -509.8542884666506438 [Eh]
	 Singles Energy            =      -0.0000000000000000 [Eh]
	 Same-Spin Energy          =      -0.5414305519153740 [Eh]
	 Opposite-Spin Energy      =      -1.6917694308881022 [Eh]
	 Correlation Energy        =      -2.2331999828034763 [Eh]
	 Total Energy              =    -512.0874884494540993 [Eh]

	 ================> DF-SCS-MP2 Energies <==================
	-----------------------------------------------------------
	 SCS Same-Spin Scale       =       0.3333333333333333 [-]
	 SCS Opposite-Spin Scale   =       1.2000000000000000 [-]
	 SCS Same-Spin Energy      =      -0.1804768506384580 [Eh]
	 SCS Opposite-Spin Energy  =      -2.0301233170657227 [Eh]
	 SCS Correlation Energy    =      -2.2106001677041807 [Eh]
	 SCS Total Energy          =    -512.0648886343548156 [Eh]
	-----------------------------------------------------------

  Dipole Moment: [D]
     X:     0.5116      Y:    -0.0188      Z:     1.6884     Total:     1.7643

*** Psi4 exiting successfully. Buy a developer a beer!
