                               Psi4 1.4a3.dev225

  ==> Input File <==

--------------------------------------------------------------------------
#psi4
#
memory 32 gb

molecule  {
0 1
  O       -0.7670850     1.7208920    -0.4354900
  N        1.6863020     0.4747470     0.1388600
  N       -1.9291830    -0.1915810     0.0453950
  N        0.7639310    -1.5088640    -0.3477740
  C        0.5182450    -0.2160980    -0.0822800
  C       -0.7756170     0.5047820    -0.1623390
  C        2.7488489    -0.4605550     0.0165964
  C        1.8666300     1.8964630     0.4257140
  C       -3.1904980     0.5035560    -0.1598940
  C       -2.0503370    -1.5461500     0.5645390
  C        2.1210610    -1.6392390    -0.2794470
  H        3.7418240    -0.1353950     0.1686580
  H        1.1394670     2.2188990     1.1681400
  H        2.8785810     2.0278530     0.8121890
  H        1.7220340     2.4842350    -0.4794890
  H       -3.8467550    -0.1153850    -0.7799180
  H       -2.9915450     1.4520350    -0.6543500
  H       -3.6876690     0.6913720     0.7990550
  H       -1.0742680    -1.9474190     0.8155770
  H       -2.5092790    -2.1983750    -0.1864030
  H       -2.6938370    -1.5270200     1.4518100
  H        2.6051200    -2.5920870    -0.4498700
units angstrom
no_reorient  #important for SAPT in psi4, default
symmetry c1  #important for SAPT in psi4, default
}

set PROPERTIES_ORIGIN ["COM"]
properties('MP2/aug-cc-pvtz', properties = ['dipole'])
--------------------------------------------------------------------------

    Molecular point group: c1
  Charge       = 0
  Multiplicity = 1
  Basis Set: AUG-CC-PVTZ
    Blend: AUG-CC-PVTZ
  Basis Set: (AUG-CC-PVTZ AUX)
    Blend: AUG-CC-PVTZ-JKFIT

    Orbital Energies [Eh]
    ---------------------

    Doubly Occupied:

       1A    -20.519469     2A    -15.630522     3A    -15.593600
       4A    -15.559913     5A    -11.364636     6A    -11.309705
       7A    -11.269608     8A    -11.268523     9A    -11.256150
      10A    -11.253742    11A    -11.253218    12A     -1.380649
      13A     -1.333475    14A     -1.246673    15A     -1.183547
      16A     -1.033142    17A     -0.973461    18A     -0.967567
      19A     -0.939945    20A     -0.832068    21A     -0.811172
      22A     -0.739416    23A     -0.710354    24A     -0.661270
      25A     -0.655632    26A     -0.646310    27A     -0.636599
      28A     -0.609513    29A     -0.593735    30A     -0.575190
      31A     -0.559825    32A     -0.555183    33A     -0.554521
      34A     -0.551441    35A     -0.527615    36A     -0.522706
      37A     -0.451554    38A     -0.429946    39A     -0.386291
      40A     -0.374103    41A     -0.326044

  @DF-RHF Final Energy:  -509.85689841977489

   => Energetics <=

    Nuclear Repulsion Energy =            628.0010800790120129
    One-Electron Energy =               -1939.6198919098126225
    Two-Electron Energy =                 801.7619134110256027
    Total Energy =                       -509.8568984197748932
  Basis Set: (AUG-CC-PVTZ AUX)
    Blend: AUG-CC-PVTZ-RI
    Molecular point group: c1

    Geometry (in Angstrom), charge = 0, multiplicity = 1:

       Center              X                  Y                   Z               Mass
    ------------   -----------------  -----------------  -----------------  -----------------
         O           -0.800618202101     1.725878545128    -0.417889492706    15.994914619570
         N            1.652768797899     0.479733545128     0.156460507294    14.003074004430
         N           -1.962716202101    -0.186594454872     0.062995507294    14.003074004430
         N            0.730397797899    -1.503877454872    -0.330173492706    14.003074004430
         C            0.484711797899    -0.211111454872    -0.064679492706    12.000000000000
         C           -0.809150202101     0.509768545128    -0.144738492706    12.000000000000
         C            2.715315697899    -0.455568454872     0.034196907294    12.000000000000
         C            1.833096797899     1.901449545128     0.443314507294    12.000000000000
         C           -3.224031202101     0.508542545128    -0.142293492706    12.000000000000
         C           -2.083870202101    -1.541163454872     0.582139507294    12.000000000000
         C            2.087527797899    -1.634252454872    -0.261846492706    12.000000000000
         H            3.708290797899    -0.130408454872     0.186258507294     1.007825032230
         H            1.105933797899     2.223885545128     1.185740507294     1.007825032230
         H            2.845047797899     2.032839545128     0.829789507294     1.007825032230
         H            1.688500797899     2.489221545128    -0.461888492706     1.007825032230
         H           -3.880288202101    -0.110398454872    -0.762317492706     1.007825032230
         H           -3.025078202101     1.457021545128    -0.636749492706     1.007825032230
         H           -3.721202202101     0.696358545128     0.816655507294     1.007825032230
         H           -1.107801202101    -1.942432454872     0.833177507294     1.007825032230
         H           -2.542812202101    -2.193388454872    -0.168802492706     1.007825032230
         H           -2.727370202101    -1.522033454872     1.469410507294     1.007825032230
         H            2.571586797899    -2.587100454872    -0.432269492706     1.007825032230

  Basis Set: AUG-CC-PVTZ
    Blend: AUG-CC-PVTZ
  Basis Set: (AUG-CC-PVTZ AUX)
    Blend: AUG-CC-PVTZ-JKFIT
	 Reference Energy          =    -509.8568984197748932 [Eh]
	 Singles Energy            =      -0.0000000000000000 [Eh]
	 Same-Spin Energy          =      -0.5436930178823896 [Eh]
	 Opposite-Spin Energy      =      -1.6960596131045333 [Eh]
	 Correlation Energy        =      -2.2397526309869229 [Eh]
	 Total Energy              =    -512.0966510507618068 [Eh]

	 ================> DF-SCS-MP2 Energies <==================
	-----------------------------------------------------------
	 SCS Same-Spin Scale       =       0.3333333333333333 [-]
	 SCS Opposite-Spin Scale   =       1.2000000000000000 [-]
	 SCS Same-Spin Energy      =      -0.1812310059607965 [Eh]
	 SCS Opposite-Spin Energy  =      -2.0352715357254398 [Eh]
	 SCS Correlation Energy    =      -2.2165025416862365 [Eh]
	 SCS Total Energy          =    -512.0734009614611750 [Eh]
	-----------------------------------------------------------

  Dipole Moment: [D]
     X:     0.6952      Y:    -0.0473      Z:     1.7064     Total:     1.8432

*** Psi4 exiting successfully. Buy a developer a beer!
