                               Psi4 1.3.2 release

  ==> Input File <==

--------------------------------------------------------------------------
#psi4
#
memory 32 gb

molecule  {
0 1
  O       -0.6370922     1.7116090    -0.4416012
  N        1.6863020     0.4747470     0.1388600
  N       -1.9291830    -0.1915810     0.0453950
  N        0.7639310    -1.5088640    -0.3477740
  C        0.5182450    -0.2160980    -0.0822800
  C       -0.7756170     0.5047820    -0.1623390
  C        2.7114570    -0.4276410     0.0208990
  C        1.8666300     1.8964630     0.4257140
  C       -3.1904980     0.5035560    -0.1598940
  C       -2.0503370    -1.5461500     0.5645390
  C        2.1210610    -1.6392390    -0.2794470
  H        3.7418240    -0.1353950     0.1686580
  H        1.1394670     2.2188990     1.1681400
  H        2.8785810     2.0278530     0.8121890
  H        1.7220340     2.4842350    -0.4794890
  H       -3.8467550    -0.1153850    -0.7799180
  H       -2.9915450     1.4520350    -0.6543500
  H       -3.6876690     0.6913720     0.7990550
  H       -1.0742680    -1.9474190     0.8155770
  H       -2.5092790    -2.1983750    -0.1864030
  H       -2.6938370    -1.5270200     1.4518100
  H        2.6051200    -2.5920870    -0.4498700
units angstrom
no_reorient  #important for SAPT in psi4, default
symmetry c1  #important for SAPT in psi4, default
}

set PROPERTIES_ORIGIN ["COM"]
properties('MP2/aug-cc-pvtz', properties = ['dipole'])
--------------------------------------------------------------------------

    Molecular point group: c1
  Charge       = 0
  Multiplicity = 1
  Basis Set: AUG-CC-PVTZ
    Blend: AUG-CC-PVTZ
  Basis Set: (AUG-CC-PVTZ AUX)
    Blend: AUG-CC-PVTZ-JKFIT

    Orbital Energies [Eh]
    ---------------------

    Doubly Occupied:

       1A    -20.520521     2A    -15.629088     3A    -15.598509
       4A    -15.556723     5A    -11.364763     6A    -11.300320
       7A    -11.267756     8A    -11.265345     9A    -11.259002
      10A    -11.258503    11A    -11.247498    12A     -1.382306
      13A     -1.337062    14A     -1.253647    15A     -1.184657
      16A     -1.027383    17A     -0.974196    18A     -0.970660
      19A     -0.940767    20A     -0.828767    21A     -0.807835
      22A     -0.741349    23A     -0.710725    24A     -0.662487
      25A     -0.657712    26A     -0.646136    27A     -0.638930
      28A     -0.602915    29A     -0.588224    30A     -0.575417
      31A     -0.563987    32A     -0.558433    33A     -0.557074
      34A     -0.551536    35A     -0.531501    36A     -0.523419
      37A     -0.447751    38A     -0.427945    39A     -0.387781
      40A     -0.378689    41A     -0.316165

  @DF-RHF Final Energy:  -509.85669243342454

   => Energetics <=

    Nuclear Repulsion Energy =            629.8711226825006406
    One-Electron Energy =               -1943.3686652720928123
    Two-Electron Energy =                 803.6408501561677440
    Total Energy =                       -509.8566924334245414
  Basis Set: (AUG-CC-PVTZ AUX)
    Blend: AUG-CC-PVTZ-RI
    Molecular point group: c1

    Geometry (in Angstrom), charge = 0, multiplicity = 1:

       Center              X                  Y                   Z               Mass
    ------------   -----------------  -----------------  -----------------  -----------------
         O           -0.681276121804     1.714985466963    -0.423699452531    15.994914619570
         N            1.642118078196     0.478123466963     0.156761747469    14.003074004430
         N           -1.973366921804    -0.188204533037     0.063296747469    14.003074004430
         N            0.719747078196    -1.505487533037    -0.329872252531    14.003074004430
         C            0.474061078196    -0.212721533037    -0.064378252531    12.000000000000
         C           -0.819800921804     0.508158466963    -0.144437252531    12.000000000000
         C            2.667273078196    -0.424264533037     0.038800747469    12.000000000000
         C            1.822446078196     1.899839466963     0.443615747469    12.000000000000
         C           -3.234681921804     0.506932466963    -0.141992252531    12.000000000000
         C           -2.094520921804    -1.542773533037     0.582440747469    12.000000000000
         C            2.076877078196    -1.635862533037    -0.261545252531    12.000000000000
         H            3.697640078196    -0.132018533037     0.186559747469     1.007825032230
         H            1.095283078196     2.222275466963     1.186041747469     1.007825032230
         H            2.834397078196     2.031229466963     0.830090747469     1.007825032230
         H            1.677850078196     2.487611466963    -0.461587252531     1.007825032230
         H           -3.890938921804    -0.112008533037    -0.762016252531     1.007825032230
         H           -3.035728921804     1.455411466963    -0.636448252531     1.007825032230
         H           -3.731852921804     0.694748466963     0.816956747469     1.007825032230
         H           -1.118451921804    -1.944042533037     0.833478747469     1.007825032230
         H           -2.553462921804    -2.194998533037    -0.168501252531     1.007825032230
         H           -2.738020921804    -1.523643533037     1.469711747469     1.007825032230
         H            2.560936078196    -2.588710533037    -0.431968252531     1.007825032230

  Basis Set: AUG-CC-PVTZ
    Blend: AUG-CC-PVTZ
  Basis Set: (AUG-CC-PVTZ AUX)
    Blend: AUG-CC-PVTZ-JKFIT
	 Reference Energy          =    -509.8566924334245414 [Eh]
	 Singles Energy            =      -0.0000000000000000 [Eh]
	 Same-Spin Energy          =      -0.5440341738672386 [Eh]
	 Opposite-Spin Energy      =      -1.6958035424460269 [Eh]
	 Correlation Energy        =      -2.2398377163132657 [Eh]
	 Total Energy              =    -512.0965301497377595 [Eh]

	 ================> DF-SCS-MP2 Energies <==================
	-----------------------------------------------------------
	 SCS Same-Spin Scale       =       0.3333333333333333 [-]
	 SCS Opposite-Spin Scale   =       1.2000000000000000 [-]
	 SCS Same-Spin Energy      =      -0.1813447246224129 [Eh]
	 SCS Opposite-Spin Energy  =      -2.0349642509352321 [Eh]
	 SCS Correlation Energy    =      -2.2163089755576451 [Eh]
	 SCS Total Energy          =    -512.0730014089822362 [Eh]
	-----------------------------------------------------------

  Dipole Moment: [D]
     X:     0.2158      Y:     0.0332      Z:     1.7261     Total:     1.7398

*** Psi4 exiting successfully. Buy a developer a beer!
