                               Psi4 1.3.2 release

  ==> Input File <==

--------------------------------------------------------------------------
#psi4
#
memory 32 gb

molecule  {
0 1
  O       -0.8105072     1.7210263    -0.4327836
  N        1.6863020     0.4747470     0.1388600
  N       -1.9291830    -0.1915810     0.0453950
  N        0.7639310    -1.5088640    -0.3477740
  C        0.5182450    -0.2160980    -0.0822800
  C       -0.7756170     0.5047820    -0.1623390
  C        2.7114570    -0.4276410     0.0208990
  C        1.8666300     1.8964630     0.4257140
  C       -3.1904980     0.5035560    -0.1598940
  C       -2.0503370    -1.5461500     0.5645390
  C        2.1210610    -1.6392390    -0.2794470
  H        3.7418240    -0.1353950     0.1686580
  H        1.1394670     2.2188990     1.1681400
  H        2.8785810     2.0278530     0.8121890
  H        1.7220340     2.4842350    -0.4794890
  H       -3.8467550    -0.1153850    -0.7799180
  H       -2.9915450     1.4520350    -0.6543500
  H       -3.6876690     0.6913720     0.7990550
  H       -1.0742680    -1.9474190     0.8155770
  H       -2.5092790    -2.1983750    -0.1864030
  H       -2.6938370    -1.5270200     1.4518100
  H        2.6051200    -2.5920870    -0.4498700
units angstrom
no_reorient  #important for SAPT in psi4, default
symmetry c1  #important for SAPT in psi4, default
}

set PROPERTIES_ORIGIN ["COM"]
properties('MP2/aug-cc-pvtz', properties = ['dipole'])
--------------------------------------------------------------------------

    Molecular point group: c1
  Charge       = 0
  Multiplicity = 1
  Basis Set: AUG-CC-PVTZ
    Blend: AUG-CC-PVTZ
  Basis Set: (AUG-CC-PVTZ AUX)
    Blend: AUG-CC-PVTZ-JKFIT

    Orbital Energies [Eh]
    ---------------------

    Doubly Occupied:

       1A    -20.516615     2A    -15.635258     3A    -15.589922
       4A    -15.563140     5A    -11.362577     6A    -11.307156
       7A    -11.273449     8A    -11.270657     9A    -11.254053
      10A    -11.252659    11A    -11.250833    12A     -1.380384
      13A     -1.343653    14A     -1.242670    15A     -1.190084
      16A     -1.033476    17A     -0.977603    18A     -0.965216
      19A     -0.938088    20A     -0.832874    21A     -0.811799
      22A     -0.742256    23A     -0.709294    24A     -0.662946
      25A     -0.654961    26A     -0.645739    27A     -0.640109
      28A     -0.606425    29A     -0.593707    30A     -0.574203
      31A     -0.564646    32A     -0.556972    33A     -0.554343
      34A     -0.551970    35A     -0.525755    36A     -0.522529
      37A     -0.451504    38A     -0.428718    39A     -0.392662
      40A     -0.371281    41A     -0.321983

  @DF-RHF Final Energy:  -509.85995747776383

   => Energetics <=

    Nuclear Repulsion Energy =            628.7731238154083258
    One-Electron Energy =               -1941.1378302346647615
    Two-Electron Energy =                 802.5047489414926076
    Total Energy =                       -509.8599574777638281
  Basis Set: (AUG-CC-PVTZ AUX)
    Blend: AUG-CC-PVTZ-RI
    Molecular point group: c1

    Geometry (in Angstrom), charge = 0, multiplicity = 1:

       Center              X                  Y                   Z               Mass
    ------------   -----------------  -----------------  -----------------  -----------------
         O           -0.836572666792     1.723418844429    -0.415803118217    15.994914619570
         N            1.660236533208     0.477139544429     0.155840481783    14.003074004430
         N           -1.955248466792    -0.189188455571     0.062375481783    14.003074004430
         N            0.737865533208    -1.506471455571    -0.330793518217    14.003074004430
         C            0.492179533208    -0.213705455571    -0.065299518217    12.000000000000
         C           -0.801682466792     0.507174544429    -0.145358518217    12.000000000000
         C            2.685391533208    -0.425248455571     0.037879481783    12.000000000000
         C            1.840564533208     1.898855544429     0.442694481783    12.000000000000
         C           -3.216563466792     0.505948544429    -0.142913518217    12.000000000000
         C           -2.076402466792    -1.543757455571     0.581519481783    12.000000000000
         C            2.094995533208    -1.636846455571    -0.262466518217    12.000000000000
         H            3.715758533208    -0.133002455571     0.185638481783     1.007825032230
         H            1.113401533208     2.221291544429     1.185120481783     1.007825032230
         H            2.852515533208     2.030245544429     0.829169481783     1.007825032230
         H            1.695968533208     2.486627544429    -0.462508518217     1.007825032230
         H           -3.872820466792    -0.112992455571    -0.762937518217     1.007825032230
         H           -3.017610466792     1.454427544429    -0.637369518217     1.007825032230
         H           -3.713734466792     0.693764544429     0.816035481783     1.007825032230
         H           -1.100333466792    -1.945026455571     0.832557481783     1.007825032230
         H           -2.535344466792    -2.195982455571    -0.169422518217     1.007825032230
         H           -2.719902466792    -1.524627455571     1.468790481783     1.007825032230
         H            2.579054533208    -2.589694455571    -0.432889518217     1.007825032230

  Basis Set: AUG-CC-PVTZ
    Blend: AUG-CC-PVTZ
  Basis Set: (AUG-CC-PVTZ AUX)
    Blend: AUG-CC-PVTZ-JKFIT
	 Reference Energy          =    -509.8599574777638281 [Eh]
	 Singles Energy            =      -0.0000000000000000 [Eh]
	 Same-Spin Energy          =      -0.5440106561579154 [Eh]
	 Opposite-Spin Energy      =      -1.6955364419981547 [Eh]
	 Correlation Energy        =      -2.2395470981560699 [Eh]
	 Total Energy              =    -512.0995045759199229 [Eh]

	 ================> DF-SCS-MP2 Energies <==================
	-----------------------------------------------------------
	 SCS Same-Spin Scale       =       0.3333333333333333 [-]
	 SCS Opposite-Spin Scale   =       1.2000000000000000 [-]
	 SCS Same-Spin Energy      =      -0.1813368853859718 [Eh]
	 SCS Opposite-Spin Energy  =      -2.0346437303977853 [Eh]
	 SCS Correlation Energy    =      -2.2159806157837574 [Eh]
	 SCS Total Energy          =    -512.0759380935476202 [Eh]
	-----------------------------------------------------------

  Dipole Moment: [D]
     X:     0.9187      Y:    -0.0068      Z:     1.7125     Total:     1.9433

*** Psi4 exiting successfully. Buy a developer a beer!
