                               Psi4 1.3.2 release

  ==> Input File <==

--------------------------------------------------------------------------
#psi4
#
memory 32 gb

molecule  {
0 1
  O       -0.7670850     1.7208920    -0.4354900
  N        1.6863020     0.4747470     0.1388600
  N       -1.9291830    -0.1915810     0.0453950
  N        0.7639310    -1.5088640    -0.3477740
  C        0.4709923    -0.1334765    -0.0699781
  C       -0.7756170     0.5047820    -0.1623390
  C        2.7114570    -0.4276410     0.0208990
  C        1.8666300     1.8964630     0.4257140
  C       -3.1904980     0.5035560    -0.1598940
  C       -2.0503370    -1.5461500     0.5645390
  C        2.1210610    -1.6392390    -0.2794470
  H        3.7418240    -0.1353950     0.1686580
  H        1.1394670     2.2188990     1.1681400
  H        2.8785810     2.0278530     0.8121890
  H        1.7220340     2.4842350    -0.4794890
  H       -3.8467550    -0.1153850    -0.7799180
  H       -2.9915450     1.4520350    -0.6543500
  H       -3.6876690     0.6913720     0.7990550
  H       -1.0742680    -1.9474190     0.8155770
  H       -2.5092790    -2.1983750    -0.1864030
  H       -2.6938370    -1.5270200     1.4518100
  H        2.6051200    -2.5920870    -0.4498700
units angstrom
no_reorient  #important for SAPT in psi4, default
symmetry c1  #important for SAPT in psi4, default
}

set PROPERTIES_ORIGIN ["COM"]
properties('MP2/aug-cc-pvtz', properties = ['dipole'])
--------------------------------------------------------------------------

    Molecular point group: c1
  Charge       = 0
  Multiplicity = 1
  Basis Set: AUG-CC-PVTZ
    Blend: AUG-CC-PVTZ
  Basis Set: (AUG-CC-PVTZ AUX)
    Blend: AUG-CC-PVTZ-JKFIT

    Orbital Energies [Eh]
    ---------------------

    Doubly Occupied:

       1A    -20.513644     2A    -15.644485     3A    -15.590466
       4A    -15.568002     5A    -11.356569     6A    -11.305074
       7A    -11.273520     8A    -11.272011     9A    -11.256244
      10A    -11.253540    11A    -11.251829    12A     -1.381578
      13A     -1.334721    14A     -1.244119    15A     -1.173400
      16A     -1.040940    17A     -0.977512    18A     -0.965186
      19A     -0.939903    20A     -0.846915    21A     -0.806712
      22A     -0.740128    23A     -0.709971    24A     -0.666375
      25A     -0.657556    26A     -0.648061    27A     -0.639396
      28A     -0.604790    29A     -0.588059    30A     -0.577515
      31A     -0.563225    32A     -0.556883    33A     -0.552600
      34A     -0.551853    35A     -0.524804    36A     -0.521421
      37A     -0.437706    38A     -0.432936    39A     -0.386614
      40A     -0.371985    41A     -0.317616

  @DF-RHF Final Energy:  -509.84030797304302

   => Energetics <=

    Nuclear Repulsion Energy =            628.9720262262752613
    One-Electron Energy =               -1941.5329461340559192
    Two-Electron Energy =                 802.7206119347376898
    Total Energy =                       -509.8403079730430818
  Basis Set: (AUG-CC-PVTZ AUX)
    Blend: AUG-CC-PVTZ-RI
    Molecular point group: c1

    Geometry (in Angstrom), charge = 0, multiplicity = 1:

       Center              X                  Y                   Z               Mass
    ------------   -----------------  -----------------  -----------------  -----------------
         O           -0.793983322008     1.716822277050    -0.419191039013    15.994914619570
         N            1.659403677992     0.470677277050     0.155158960987    14.003074004430
         N           -1.956081322008    -0.195650722950     0.061693960987    14.003074004430
         N            0.737032677992    -1.512933722950    -0.331475039013    14.003074004430
         C            0.444093977992    -0.137546222950    -0.053679139013    12.000000000000
         C           -0.802515322008     0.500712277050    -0.146040039013    12.000000000000
         C            2.684558677992    -0.431710722950     0.037197960987    12.000000000000
         C            1.839731677992     1.892393277050     0.442012960987    12.000000000000
         C           -3.217396322008     0.499486277050    -0.143595039013    12.000000000000
         C           -2.077235322008    -1.550219722950     0.580837960987    12.000000000000
         C            2.094162677992    -1.643308722950    -0.263148039013    12.000000000000
         H            3.714925677992    -0.139464722950     0.184956960987     1.007825032230
         H            1.112568677992     2.214829277050     1.184438960987     1.007825032230
         H            2.851682677992     2.023783277050     0.828487960987     1.007825032230
         H            1.695135677992     2.480165277050    -0.463190039013     1.007825032230
         H           -3.873653322008    -0.119454722950    -0.763619039013     1.007825032230
         H           -3.018443322008     1.447965277050    -0.638051039013     1.007825032230
         H           -3.714567322008     0.687302277050     0.815353960987     1.007825032230
         H           -1.101166322008    -1.951488722950     0.831875960987     1.007825032230
         H           -2.536177322008    -2.202444722950    -0.170104039013     1.007825032230
         H           -2.720735322008    -1.531089722950     1.468108960987     1.007825032230
         H            2.578221677992    -2.596156722950    -0.433571039013     1.007825032230

  Basis Set: AUG-CC-PVTZ
    Blend: AUG-CC-PVTZ
  Basis Set: (AUG-CC-PVTZ AUX)
    Blend: AUG-CC-PVTZ-JKFIT
	 Reference Energy          =    -509.8403079730430250 [Eh]
	 Singles Energy            =      -0.0000000000000000 [Eh]
	 Same-Spin Energy          =      -0.5472269427626271 [Eh]
	 Opposite-Spin Energy      =      -1.7009701366954364 [Eh]
	 Correlation Energy        =      -2.2481970794580635 [Eh]
	 Total Energy              =    -512.0885050525010911 [Eh]

	 ================> DF-SCS-MP2 Energies <==================
	-----------------------------------------------------------
	 SCS Same-Spin Scale       =       0.3333333333333333 [-]
	 SCS Opposite-Spin Scale   =       1.2000000000000000 [-]
	 SCS Same-Spin Energy      =      -0.1824089809208757 [Eh]
	 SCS Opposite-Spin Energy  =      -2.0411641640345235 [Eh]
	 SCS Correlation Energy    =      -2.2235731449553993 [Eh]
	 SCS Total Energy          =    -512.0638811179984486 [Eh]
	-----------------------------------------------------------

  Dipole Moment: [D]
     X:     1.0177      Y:    -0.0346      Z:     1.7365     Total:     2.0130

*** Psi4 exiting successfully. Buy a developer a beer!
