                               Psi4 1.3.2 release

  ==> Input File <==

--------------------------------------------------------------------------
#psi4
#
memory 32 gb

molecule  {
0 1
  O       -0.7670850     1.7208920    -0.4354900
  N        1.6863020     0.4747470     0.1388600
  N       -1.9291830    -0.1915810     0.0453950
  N        0.7639310    -1.5088640    -0.3477740
  C        0.5182450    -0.2160980    -0.0822800
  C       -0.7756170     0.5047820    -0.1623390
  C        2.7114570    -0.4276410     0.0208990
  C        1.8666300     1.8964630     0.4257140
  C       -3.1904980     0.5035560    -0.1598940
  C       -2.0503370    -1.5461500     0.5645390
  C        2.1210610    -1.6392390    -0.2794470
  H        3.7418240    -0.1353950     0.1686580
  H        1.1394670     2.2188990     1.1681400
  H        2.8785810     2.0278530     0.8121890
  H        1.7220340     2.4842350    -0.4794890
  H       -3.8467550    -0.1153850    -0.7799180
  H       -2.9915450     1.4520350    -0.6543500
  H       -3.6876690     0.6913720     0.7990550
  H       -1.0742680    -1.9474190     0.8155770
  H       -2.5092790    -2.1983750    -0.1864030
  H       -2.6938370    -1.5270200     1.4518100
  H        2.6051200    -2.5920870    -0.4498700
units angstrom
no_reorient  #important for SAPT in psi4, default
symmetry c1  #important for SAPT in psi4, default
}

set PROPERTIES_ORIGIN ["COM"]
properties('MP2/aug-cc-pvtz', properties = ['dipole'])
--------------------------------------------------------------------------

    Molecular point group: c1
  Charge       = 0
  Multiplicity = 1
  Basis Set: AUG-CC-PVTZ
    Blend: AUG-CC-PVTZ
  Basis Set: (AUG-CC-PVTZ AUX)
    Blend: AUG-CC-PVTZ-JKFIT

    Orbital Energies [Eh]
    ---------------------

    Doubly Occupied:

       1A    -20.517694     2A    -15.633779     3A    -15.592090
       4A    -15.561591     5A    -11.363056     6A    -11.305433
       7A    -11.272014     8A    -11.269366     9A    -11.255353
      10A    -11.252839    11A    -11.251410    12A     -1.380569
      13A     -1.342039    14A     -1.245519    15A     -1.188778
      16A     -1.031992    17A     -0.976603    18A     -0.966691
      19A     -0.938830    20A     -0.831892    21A     -0.810837
      22A     -0.741920    23A     -0.709783    24A     -0.662576
      25A     -0.655387    26A     -0.645890    27A     -0.639981
      28A     -0.605603    29A     -0.592364    30A     -0.574344
      31A     -0.563901    32A     -0.557062    33A     -0.554842
      34A     -0.553053    35A     -0.527296    36A     -0.522946
      37A     -0.450725    38A     -0.428863    39A     -0.391470
      40A     -0.373169    41A     -0.320612

  @DF-RHF Final Energy:  -509.86043099799343

   => Energetics <=

    Nuclear Repulsion Energy =            628.9882874937489987
    One-Electron Energy =               -1941.5771098553109368
    Two-Electron Energy =                 802.7283913635686758
    Total Energy =                       -509.8604309979933760
  Basis Set: (AUG-CC-PVTZ AUX)
    Blend: AUG-CC-PVTZ-RI
    Molecular point group: c1

    Geometry (in Angstrom), charge = 0, multiplicity = 1:

       Center              X                  Y                   Z               Mass
    ------------   -----------------  -----------------  -----------------  -----------------
         O           -0.797687232223     1.723298576136    -0.418226752674    15.994914619570
         N            1.655699767777     0.477153576136     0.156123247326    14.003074004430
         N           -1.959785232223    -0.189174423864     0.062658247326    14.003074004430
         N            0.733328767777    -1.506457423864    -0.330510752674    14.003074004430
         C            0.487642767777    -0.213691423864    -0.065016752674    12.000000000000
         C           -0.806219232223     0.507188576136    -0.145075752674    12.000000000000
         C            2.680854767777    -0.425234423864     0.038162247326    12.000000000000
         C            1.836027767777     1.898869576136     0.442977247326    12.000000000000
         C           -3.221100232223     0.505962576136    -0.142630752674    12.000000000000
         C           -2.080939232223    -1.543743423864     0.581802247326    12.000000000000
         C            2.090458767777    -1.636832423864    -0.262183752674    12.000000000000
         H            3.711221767777    -0.132988423864     0.185921247326     1.007825032230
         H            1.108864767777     2.221305576136     1.185403247326     1.007825032230
         H            2.847978767777     2.030259576136     0.829452247326     1.007825032230
         H            1.691431767777     2.486641576136    -0.462225752674     1.007825032230
         H           -3.877357232223    -0.112978423864    -0.762654752674     1.007825032230
         H           -3.022147232223     1.454441576136    -0.637086752674     1.007825032230
         H           -3.718271232223     0.693778576136     0.816318247326     1.007825032230
         H           -1.104870232223    -1.945012423864     0.832840247326     1.007825032230
         H           -2.539881232223    -2.195968423864    -0.169139752674     1.007825032230
         H           -2.724439232223    -1.524613423864     1.469073247326     1.007825032230
         H            2.574517767777    -2.589680423864    -0.432606752674     1.007825032230

  Basis Set: AUG-CC-PVTZ
    Blend: AUG-CC-PVTZ
  Basis Set: (AUG-CC-PVTZ AUX)
    Blend: AUG-CC-PVTZ-JKFIT
	 Reference Energy          =    -509.8604309979934328 [Eh]
	 Singles Energy            =      -0.0000000000000000 [Eh]
	 Same-Spin Energy          =      -0.5439501298778172 [Eh]
	 Opposite-Spin Energy      =      -1.6954944970432471 [Eh]
	 Correlation Energy        =      -2.2394446269210642 [Eh]
	 Total Energy              =    -512.0998756249144890 [Eh]

	 ================> DF-SCS-MP2 Energies <==================
	-----------------------------------------------------------
	 SCS Same-Spin Scale       =       0.3333333333333333 [-]
	 SCS Opposite-Spin Scale   =       1.2000000000000000 [-]
	 SCS Same-Spin Energy      =      -0.1813167099592724 [Eh]
	 SCS Opposite-Spin Energy  =      -2.0345933964518963 [Eh]
	 SCS Correlation Energy    =      -2.2159101064111688 [Eh]
	 SCS Total Energy          =    -512.0763411044046052 [Eh]
	-----------------------------------------------------------

  Dipole Moment: [D]
     X:     0.7440      Y:    -0.0031      Z:     1.7175     Total:     1.8717

*** Psi4 exiting successfully. Buy a developer a beer!
