                               Psi4 1.4a3.dev225

  ==> Input File <==

--------------------------------------------------------------------------
#psi4
#
memory 32 gb

molecule  {
0 1
  O       -0.7670850     1.7208920    -0.4354900
  N        1.6863020     0.4747470     0.1388600
  N       -1.9291830    -0.1915810     0.0453950
  N        0.7639310    -1.5088640    -0.3477740
  C        0.5182450    -0.2160980    -0.0822800
  C       -0.7581712     0.4950620    -0.1612595
  C        2.7114570    -0.4276410     0.0208990
  C        1.8666300     1.8964630     0.4257140
  C       -3.1904980     0.5035560    -0.1598940
  C       -2.0503370    -1.5461500     0.5645390
  C        2.1210610    -1.6392390    -0.2794470
  H        3.7418240    -0.1353950     0.1686580
  H        1.1394670     2.2188990     1.1681400
  H        2.8785810     2.0278530     0.8121890
  H        1.7220340     2.4842350    -0.4794890
  H       -3.8467550    -0.1153850    -0.7799180
  H       -2.9915450     1.4520350    -0.6543500
  H       -3.6876690     0.6913720     0.7990550
  H       -1.0742680    -1.9474190     0.8155770
  H       -2.5092790    -2.1983750    -0.1864030
  H       -2.6938370    -1.5270200     1.4518100
  H        2.6051200    -2.5920870    -0.4498700
units angstrom
no_reorient  #important for SAPT in psi4, default
symmetry c1  #important for SAPT in psi4, default
}

set PROPERTIES_ORIGIN ["COM"]
properties('MP2/aug-cc-pvtz', properties = ['dipole'])
--------------------------------------------------------------------------

    Molecular point group: c1
  Charge       = 0
  Multiplicity = 1
  Basis Set: AUG-CC-PVTZ
    Blend: AUG-CC-PVTZ
  Basis Set: (AUG-CC-PVTZ AUX)
    Blend: AUG-CC-PVTZ-JKFIT

    Orbital Energies [Eh]
    ---------------------

    Doubly Occupied:

       1A    -20.516647     2A    -15.635516     3A    -15.591070
       4A    -15.563740     5A    -11.363157     6A    -11.305684
       7A    -11.272626     8A    -11.271366     9A    -11.253939
      10A    -11.252997    11A    -11.251979    12A     -1.376595
      13A     -1.341660    14A     -1.241313    15A     -1.190241
      16A     -1.035618    17A     -0.977905    18A     -0.965213
      19A     -0.936812    20A     -0.835921    21A     -0.812775
      22A     -0.742564    23A     -0.708740    24A     -0.662655
      25A     -0.654008    26A     -0.644818    27A     -0.639590
      28A     -0.606605    29A     -0.593574    30A     -0.573634
      31A     -0.564320    32A     -0.557546    33A     -0.554708
      34A     -0.552021    35A     -0.525676    36A     -0.519815
      37A     -0.451430    38A     -0.429268    39A     -0.392680
      40A     -0.370763    41A     -0.322119

  @DF-RHF Final Energy:  -509.85830911816913

   => Energetics <=

    Nuclear Repulsion Energy =            629.0325109748293926
    One-Electron Energy =               -1941.6630267442485547
    Two-Electron Energy =                 802.7722066512500305
    Total Energy =                       -509.8583091181691316
  Basis Set: (AUG-CC-PVTZ AUX)
    Blend: AUG-CC-PVTZ-RI
    Molecular point group: c1

    Geometry (in Angstrom), charge = 0, multiplicity = 1:

       Center              X                  Y                   Z               Mass
    ------------   -----------------  -----------------  -----------------  -----------------
         O           -0.799054723960     1.724060479843    -0.418311369449    15.994914619570
         N            1.654332276040     0.477915479843     0.156038630551    14.003074004430
         N           -1.961152723960    -0.188412520157     0.062573630551    14.003074004430
         N            0.731961276040    -1.505695520157    -0.330595369449    14.003074004430
         C            0.486275276040    -0.212929520157    -0.065101369449    12.000000000000
         C           -0.790140923960     0.498230479843    -0.144080869449    12.000000000000
         C            2.679487276040    -0.424472520157     0.038077630551    12.000000000000
         C            1.834660276040     1.899631479843     0.442892630551    12.000000000000
         C           -3.222467723960     0.506724479843    -0.142715369449    12.000000000000
         C           -2.082306723960    -1.542981520157     0.581717630551    12.000000000000
         C            2.089091276040    -1.636070520157    -0.262268369449    12.000000000000
         H            3.709854276040    -0.132226520157     0.185836630551     1.007825032230
         H            1.107497276040     2.222067479843     1.185318630551     1.007825032230
         H            2.846611276040     2.031021479843     0.829367630551     1.007825032230
         H            1.690064276040     2.487403479843    -0.462310369449     1.007825032230
         H           -3.878724723960    -0.112216520157    -0.762739369449     1.007825032230
         H           -3.023514723960     1.455203479843    -0.637171369449     1.007825032230
         H           -3.719638723960     0.694540479843     0.816233630551     1.007825032230
         H           -1.106237723960    -1.944250520157     0.832755630551     1.007825032230
         H           -2.541248723960    -2.195206520157    -0.169224369449     1.007825032230
         H           -2.725806723960    -1.523851520157     1.468988630551     1.007825032230
         H            2.573150276040    -2.588918520157    -0.432691369449     1.007825032230

  Basis Set: AUG-CC-PVTZ
    Blend: AUG-CC-PVTZ
  Basis Set: (AUG-CC-PVTZ AUX)
    Blend: AUG-CC-PVTZ-JKFIT
	 Reference Energy          =    -509.8583091181691316 [Eh]
	 Singles Energy            =      -0.0000000000000000 [Eh]
	 Same-Spin Energy          =      -0.5444913943726166 [Eh]
	 Opposite-Spin Energy      =      -1.6964191745222530 [Eh]
	 Correlation Energy        =      -2.2409105688948694 [Eh]
	 Total Energy              =    -512.0992196870639646 [Eh]

	 ================> DF-SCS-MP2 Energies <==================
	-----------------------------------------------------------
	 SCS Same-Spin Scale       =       0.3333333333333333 [-]
	 SCS Opposite-Spin Scale   =       1.2000000000000000 [-]
	 SCS Same-Spin Energy      =      -0.1814971314575389 [Eh]
	 SCS Opposite-Spin Energy  =      -2.0357030094267037 [Eh]
	 SCS Correlation Energy    =      -2.2172001408842426 [Eh]
	 SCS Total Energy          =    -512.0755092590533195 [Eh]
	-----------------------------------------------------------

  Dipole Moment: [D]
     X:     0.8917      Y:    -0.0397      Z:     1.7156     Total:     1.9339

*** Psi4 exiting successfully. Buy a developer a beer!
