                               Psi4 1.3.2 release

  ==> Input File <==

--------------------------------------------------------------------------
#psi4
#
memory 32 gb

molecule  {
0 1
  O       -0.7236732     1.7192761    -0.4378636
  N        1.6863020     0.4747470     0.1388600
  N       -1.9291830    -0.1915810     0.0453950
  N        0.7639310    -1.5088640    -0.3477740
  C        0.5182450    -0.2160980    -0.0822800
  C       -0.7756170     0.5047820    -0.1623390
  C        2.7114570    -0.4276410     0.0208990
  C        1.8666300     1.8964630     0.4257140
  C       -3.1904980     0.5035560    -0.1598940
  C       -2.0503370    -1.5461500     0.5645390
  C        2.1210610    -1.6392390    -0.2794470
  H        3.7418240    -0.1353950     0.1686580
  H        1.1394670     2.2188990     1.1681400
  H        2.8785810     2.0278530     0.8121890
  H        1.7220340     2.4842350    -0.4794890
  H       -3.8467550    -0.1153850    -0.7799180
  H       -2.9915450     1.4520350    -0.6543500
  H       -3.6876690     0.6913720     0.7990550
  H       -1.0742680    -1.9474190     0.8155770
  H       -2.5092790    -2.1983750    -0.1864030
  H       -2.6938370    -1.5270200     1.4518100
  H        2.6051200    -2.5920870    -0.4498700
units angstrom
no_reorient  #important for SAPT in psi4, default
symmetry c1  #important for SAPT in psi4, default
}

set PROPERTIES_ORIGIN ["COM"]
properties('MP2/aug-cc-pvtz', properties = ['dipole'])
--------------------------------------------------------------------------

    Molecular point group: c1
  Charge       = 0
  Multiplicity = 1
  Basis Set: AUG-CC-PVTZ
    Blend: AUG-CC-PVTZ
  Basis Set: (AUG-CC-PVTZ AUX)
    Blend: AUG-CC-PVTZ-JKFIT

    Orbital Energies [Eh]
    ---------------------

    Doubly Occupied:

       1A    -20.518702     2A    -15.632260     3A    -15.594245
       4A    -15.560006     5A    -11.363582     6A    -11.303717
       7A    -11.270584     8A    -11.268051     9A    -11.256611
      10A    -11.254785    11A    -11.250135    12A     -1.380949
      13A     -1.340406    14A     -1.248297    15A     -1.187436
      16A     -1.030481    17A     -0.975676    18A     -0.968111
      19A     -0.939529    20A     -0.830880    21A     -0.809853
      22A     -0.741656    23A     -0.710181    24A     -0.662369
      25A     -0.656000    26A     -0.646024    27A     -0.639718
      28A     -0.604740    29A     -0.591003    30A     -0.574624
      31A     -0.563416    32A     -0.557750    33A     -0.555214
      34A     -0.553288    35A     -0.528777    36A     -0.523224
      37A     -0.449847    38A     -0.428762    39A     -0.390258
      40A     -0.375035    41A     -0.319186

  @DF-RHF Final Energy:  -509.86004021392728

   => Energetics <=

    Nuclear Repulsion Energy =            629.2430839263892040
    One-Electron Energy =               -1942.0955143512214818
    Two-Electron Energy =                 802.9923902109048868
    Total Energy =                       -509.8600402139272774
  Basis Set: (AUG-CC-PVTZ AUX)
    Blend: AUG-CC-PVTZ-RI
    Molecular point group: c1

    Geometry (in Angstrom), charge = 0, multiplicity = 1:

       Center              X                  Y                   Z               Mass
    ------------   -----------------  -----------------  -----------------  -----------------
         O           -0.758811111059     1.721851505888    -0.420352358182    15.994914619570
         N            1.651164088941     0.477322405888     0.156371241818    14.003074004430
         N           -1.964320911059    -0.189005594112     0.062906241818    14.003074004430
         N            0.728793088941    -1.506288594112    -0.330262758182    14.003074004430
         C            0.483107088941    -0.213522594112    -0.064768758182    12.000000000000
         C           -0.810754911059     0.507357405888    -0.144827758182    12.000000000000
         C            2.676319088941    -0.425065594112     0.038410241818    12.000000000000
         C            1.831492088941     1.899038405888     0.443225241818    12.000000000000
         C           -3.225635911059     0.506131405888    -0.142382758182    12.000000000000
         C           -2.085474911059    -1.543574594112     0.582050241818    12.000000000000
         C            2.085923088941    -1.636663594112    -0.261935758182    12.000000000000
         H            3.706686088941    -0.132819594112     0.186169241818     1.007825032230
         H            1.104329088941     2.221474405888     1.185651241818     1.007825032230
         H            2.843443088941     2.030428405888     0.829700241818     1.007825032230
         H            1.686896088941     2.486810405888    -0.461977758182     1.007825032230
         H           -3.881892911059    -0.112809594112    -0.762406758182     1.007825032230
         H           -3.026682911059     1.454610405888    -0.636838758182     1.007825032230
         H           -3.722806911059     0.693947405888     0.816566241818     1.007825032230
         H           -1.109405911059    -1.944843594112     0.833088241818     1.007825032230
         H           -2.544416911059    -2.195799594112    -0.168891758182     1.007825032230
         H           -2.728974911059    -1.524444594112     1.469321241818     1.007825032230
         H            2.569982088941    -2.589511594112    -0.432358758182     1.007825032230

  Basis Set: AUG-CC-PVTZ
    Blend: AUG-CC-PVTZ
  Basis Set: (AUG-CC-PVTZ AUX)
    Blend: AUG-CC-PVTZ-JKFIT
	 Reference Energy          =    -509.8600402139272774 [Eh]
	 Singles Energy            =      -0.0000000000000000 [Eh]
	 Same-Spin Energy          =      -0.5439339926645881 [Eh]
	 Opposite-Spin Energy      =      -1.6955253940523285 [Eh]
	 Correlation Energy        =      -2.2394593867169164 [Eh]
	 Total Energy              =    -512.0994996006442079 [Eh]

	 ================> DF-SCS-MP2 Energies <==================
	-----------------------------------------------------------
	 SCS Same-Spin Scale       =       0.3333333333333333 [-]
	 SCS Opposite-Spin Scale   =       1.2000000000000000 [-]
	 SCS Same-Spin Energy      =      -0.1813113308881960 [Eh]
	 SCS Opposite-Spin Energy  =      -2.0346304728627942 [Eh]
	 SCS Correlation Energy    =      -2.2159418037509901 [Eh]
	 SCS Total Energy          =    -512.0759820176782569 [Eh]
	-----------------------------------------------------------

  Dipole Moment: [D]
     X:     0.5685      Y:     0.0048      Z:     1.7215     Total:     1.8129

*** Psi4 exiting successfully. Buy a developer a beer!
