                               Psi4 1.3.2 release

  ==> Input File <==

--------------------------------------------------------------------------
#psi4
#
memory 32 gb

molecule  {
0 1
  O       -0.7670850     1.7208920    -0.4354900
  N        1.6863020     0.4747470     0.1388600
  N       -1.9291830    -0.1915810     0.0453950
  N        0.7639310    -1.5088640    -0.3477740
  C        0.5998801    -0.3331348    -0.1010176
  C       -0.7756170     0.5047820    -0.1623390
  C        2.7114570    -0.4276410     0.0208990
  C        1.8666300     1.8964630     0.4257140
  C       -3.1904980     0.5035560    -0.1598940
  C       -2.0503370    -1.5461500     0.5645390
  C        2.1210610    -1.6392390    -0.2794470
  H        3.7418240    -0.1353950     0.1686580
  H        1.1394670     2.2188990     1.1681400
  H        2.8785810     2.0278530     0.8121890
  H        1.7220340     2.4842350    -0.4794890
  H       -3.8467550    -0.1153850    -0.7799180
  H       -2.9915450     1.4520350    -0.6543500
  H       -3.6876690     0.6913720     0.7990550
  H       -1.0742680    -1.9474190     0.8155770
  H       -2.5092790    -2.1983750    -0.1864030
  H       -2.6938370    -1.5270200     1.4518100
  H        2.6051200    -2.5920870    -0.4498700
units angstrom
no_reorient  #important for SAPT in psi4, default
symmetry c1  #important for SAPT in psi4, default
}

set PROPERTIES_ORIGIN ["COM"]
properties('MP2/aug-cc-pvtz', properties = ['dipole'])
--------------------------------------------------------------------------

    Molecular point group: c1
  Charge       = 0
  Multiplicity = 1
  Basis Set: AUG-CC-PVTZ
    Blend: AUG-CC-PVTZ
  Basis Set: (AUG-CC-PVTZ AUX)
    Blend: AUG-CC-PVTZ-JKFIT

    Orbital Energies [Eh]
    ---------------------

    Doubly Occupied:

       1A    -20.519832     2A    -15.619901     3A    -15.591426
       4A    -15.551722     5A    -11.364728     6A    -11.304491
       7A    -11.272794     8A    -11.267046     9A    -11.256880
      10A    -11.252376    11A    -11.247812    12A     -1.383230
      13A     -1.359167    14A     -1.245214    15A     -1.218031
      16A     -1.024237    17A     -0.974653    18A     -0.966850
      19A     -0.935836    20A     -0.826915    21A     -0.802727
      22A     -0.744012    23A     -0.709759    24A     -0.661596
      25A     -0.652430    26A     -0.642514    27A     -0.639650
      28A     -0.609783    29A     -0.597273    30A     -0.571474
      31A     -0.561627    32A     -0.560539    33A     -0.554174
      34A     -0.550115    35A     -0.528869    36A     -0.521958
      37A     -0.470165    38A     -0.413829    39A     -0.406047
      40A     -0.372763    41A     -0.322497

  @DF-RHF Final Energy:  -509.83973151076373

   => Energetics <=

    Nuclear Repulsion Energy =            629.3865736836743281
    One-Electron Energy =               -1942.2987198788810019
    Two-Electron Energy =                 803.0724146844430607
    Total Energy =                       -509.8397315107637269
  Basis Set: (AUG-CC-PVTZ AUX)
    Blend: AUG-CC-PVTZ-RI
    Molecular point group: c1

    Geometry (in Angstrom), charge = 0, multiplicity = 1:

       Center              X                  Y                   Z               Mass
    ------------   -----------------  -----------------  -----------------  -----------------
         O           -0.804086212192     1.732472523848    -0.416758002993    15.994914619570
         N            1.649300787808     0.486327523848     0.157591997007    14.003074004430
         N           -1.966184212192    -0.180000476152     0.064126997007    14.003074004430
         N            0.726929787808    -1.497283476152    -0.329042002993    14.003074004430
         C            0.562878887808    -0.321554276152    -0.082285602993    12.000000000000
         C           -0.812618212192     0.516362523848    -0.143607002993    12.000000000000
         C            2.674455787808    -0.416060476152     0.039630997007    12.000000000000
         C            1.829628787808     1.908043523848     0.444445997007    12.000000000000
         C           -3.227499212192     0.515136523848    -0.141162002993    12.000000000000
         C           -2.087338212192    -1.534569476152     0.583270997007    12.000000000000
         C            2.084059787808    -1.627658476152    -0.260715002993    12.000000000000
         H            3.704822787808    -0.123814476152     0.187389997007     1.007825032230
         H            1.102465787808     2.230479523848     1.186871997007     1.007825032230
         H            2.841579787808     2.039433523848     0.830920997007     1.007825032230
         H            1.685032787808     2.495815523848    -0.460757002993     1.007825032230
         H           -3.883756212192    -0.103804476152    -0.761186002993     1.007825032230
         H           -3.028546212192     1.463615523848    -0.635618002993     1.007825032230
         H           -3.724670212192     0.702952523848     0.817786997007     1.007825032230
         H           -1.111269212192    -1.935838476152     0.834308997007     1.007825032230
         H           -2.546280212192    -2.186794476152    -0.167671002993     1.007825032230
         H           -2.730838212192    -1.515439476152     1.470541997007     1.007825032230
         H            2.568118787808    -2.580506476152    -0.431138002993     1.007825032230

  Basis Set: AUG-CC-PVTZ
    Blend: AUG-CC-PVTZ
  Basis Set: (AUG-CC-PVTZ AUX)
    Blend: AUG-CC-PVTZ-JKFIT
	 Reference Energy          =    -509.8397315107637269 [Eh]
	 Singles Energy            =      -0.0000000000000000 [Eh]
	 Same-Spin Energy          =      -0.5404944620464007 [Eh]
	 Opposite-Spin Energy      =      -1.6905803895233729 [Eh]
	 Correlation Energy        =      -2.2310748515697734 [Eh]
	 Total Energy              =    -512.0708063623335420 [Eh]

	 ================> DF-SCS-MP2 Energies <==================
	-----------------------------------------------------------
	 SCS Same-Spin Scale       =       0.3333333333333333 [-]
	 SCS Opposite-Spin Scale   =       1.2000000000000000 [-]
	 SCS Same-Spin Energy      =      -0.1801648206821336 [Eh]
	 SCS Opposite-Spin Energy  =      -2.0286964674280474 [Eh]
	 SCS Correlation Energy    =      -2.2088612881101808 [Eh]
	 SCS Total Energy          =    -512.0485927988738695 [Eh]
	-----------------------------------------------------------

  Dipole Moment: [D]
     X:     0.4370      Y:    -0.0538      Z:     1.6704     Total:     1.7275

*** Psi4 exiting successfully. Buy a developer a beer!
