                               Psi4 1.3.2 release

  ==> Input File <==

--------------------------------------------------------------------------
#psi4
#
memory 32 gb

molecule  {
0 1
  O       -0.7670850     1.7208920    -0.4354900
  N        1.6984404     0.4540612     0.1380662
  N       -1.9291830    -0.1915810     0.0453950
  N        0.7639310    -1.5088640    -0.3477740
  C        0.5182450    -0.2160980    -0.0822800
  C       -0.7756170     0.5047820    -0.1623390
  C        2.7114570    -0.4276410     0.0208990
  C        1.8666300     1.8964630     0.4257140
  C       -3.1904980     0.5035560    -0.1598940
  C       -2.0503370    -1.5461500     0.5645390
  C        2.1210610    -1.6392390    -0.2794470
  H        3.7418240    -0.1353950     0.1686580
  H        1.1394670     2.2188990     1.1681400
  H        2.8785810     2.0278530     0.8121890
  H        1.7220340     2.4842350    -0.4794890
  H       -3.8467550    -0.1153850    -0.7799180
  H       -2.9915450     1.4520350    -0.6543500
  H       -3.6876690     0.6913720     0.7990550
  H       -1.0742680    -1.9474190     0.8155770
  H       -2.5092790    -2.1983750    -0.1864030
  H       -2.6938370    -1.5270200     1.4518100
  H        2.6051200    -2.5920870    -0.4498700
units angstrom
no_reorient  #important for SAPT in psi4, default
symmetry c1  #important for SAPT in psi4, default
}

set PROPERTIES_ORIGIN ["COM"]
properties('MP2/aug-cc-pvtz', properties = ['dipole'])
--------------------------------------------------------------------------

    Molecular point group: c1
  Charge       = 0
  Multiplicity = 1
  Basis Set: AUG-CC-PVTZ
    Blend: AUG-CC-PVTZ
  Basis Set: (AUG-CC-PVTZ AUX)
    Blend: AUG-CC-PVTZ-JKFIT

    Orbital Energies [Eh]
    ---------------------

    Doubly Occupied:

       1A    -20.517206     2A    -15.634126     3A    -15.591849
       4A    -15.561307     5A    -11.363149     6A    -11.303009
       7A    -11.274130     8A    -11.268076     9A    -11.255103
      10A    -11.252700    11A    -11.249416    12A     -1.380610
      13A     -1.345321    14A     -1.245223    15A     -1.186941
      16A     -1.033447    17A     -0.975529    18A     -0.966415
      19A     -0.938520    20A     -0.832183    21A     -0.811518
      22A     -0.741862    23A     -0.710189    24A     -0.663241
      25A     -0.655492    26A     -0.647287    27A     -0.639907
      28A     -0.604656    29A     -0.586310    30A     -0.575005
      31A     -0.566937    32A     -0.557189    33A     -0.555512
      34A     -0.552970    35A     -0.527271    36A     -0.523579
      37A     -0.449986    38A     -0.428669    39A     -0.393193
      40A     -0.372983    41A     -0.319161

  @DF-RHF Final Energy:  -509.86017253816550

   => Energetics <=

    Nuclear Repulsion Energy =            629.0731205770592851
    One-Electron Energy =               -1941.7522349664861849
    Two-Electron Energy =                 802.8189418512615703
    Total Energy =                       -509.8601725381654433
  Basis Set: (AUG-CC-PVTZ AUX)
    Blend: AUG-CC-PVTZ-RI
    Molecular point group: c1

    Geometry (in Angstrom), charge = 0, multiplicity = 1:

       Center              X                  Y                   Z               Mass
    ------------   -----------------  -----------------  -----------------  -----------------
         O           -0.798797524718     1.725190694414    -0.418154144243    15.994914619570
         N            1.666727875282     0.458359894414     0.155402055757    14.003074004430
         N           -1.960895524718    -0.187282305586     0.062730855757    14.003074004430
         N            0.732218475282    -1.504565305586    -0.330438144243    14.003074004430
         C            0.486532475282    -0.211799305586    -0.064944144243    12.000000000000
         C           -0.807329524718     0.509080694414    -0.145003144243    12.000000000000
         C            2.679744475282    -0.423342305586     0.038234855757    12.000000000000
         C            1.834917475282     1.900761694414     0.443049855757    12.000000000000
         C           -3.222210524718     0.507854694414    -0.142558144243    12.000000000000
         C           -2.082049524718    -1.541851305586     0.581874855757    12.000000000000
         C            2.089348475282    -1.634940305586    -0.262111144243    12.000000000000
         H            3.710111475282    -0.131096305586     0.185993855757     1.007825032230
         H            1.107754475282     2.223197694414     1.185475855757     1.007825032230
         H            2.846868475282     2.032151694414     0.829524855757     1.007825032230
         H            1.690321475282     2.488533694414    -0.462153144243     1.007825032230
         H           -3.878467524718    -0.111086305586    -0.762582144243     1.007825032230
         H           -3.023257524718     1.456333694414    -0.637014144243     1.007825032230
         H           -3.719381524718     0.695670694414     0.816390855757     1.007825032230
         H           -1.105980524718    -1.943120305586     0.832912855757     1.007825032230
         H           -2.540991524718    -2.194076305586    -0.169067144243     1.007825032230
         H           -2.725549524718    -1.522721305586     1.469145855757     1.007825032230
         H            2.573407475282    -2.587788305586    -0.432534144243     1.007825032230

  Basis Set: AUG-CC-PVTZ
    Blend: AUG-CC-PVTZ
  Basis Set: (AUG-CC-PVTZ AUX)
    Blend: AUG-CC-PVTZ-JKFIT
	 Reference Energy          =    -509.8601725381655001 [Eh]
	 Singles Energy            =      -0.0000000000000000 [Eh]
	 Same-Spin Energy          =      -0.5439319469847281 [Eh]
	 Opposite-Spin Energy      =      -1.6951626677070100 [Eh]
	 Correlation Energy        =      -2.2390946146917381 [Eh]
	 Total Energy              =    -512.0992671528572373 [Eh]

	 ================> DF-SCS-MP2 Energies <==================
	-----------------------------------------------------------
	 SCS Same-Spin Scale       =       0.3333333333333333 [-]
	 SCS Opposite-Spin Scale   =       1.2000000000000000 [-]
	 SCS Same-Spin Energy      =      -0.1813106489949094 [Eh]
	 SCS Opposite-Spin Energy  =      -2.0341952012484117 [Eh]
	 SCS Correlation Energy    =      -2.2155058502433209 [Eh]
	 SCS Total Energy          =    -512.0756783884088463 [Eh]
	-----------------------------------------------------------

  Dipole Moment: [D]
     X:     0.7585      Y:     0.0558      Z:     1.7289     Total:     1.8888

*** Psi4 exiting successfully. Buy a developer a beer!
