                               Psi4 1.3.2 release

  ==> Input File <==

--------------------------------------------------------------------------
#psi4
#
memory 32 gb

molecule  {
0 1
  O       -0.7670850     1.7208920    -0.4354900
  N        1.6863020     0.4747470     0.1388600
  N       -1.9291830    -0.1915810     0.0453950
  N        0.7639310    -1.5088640    -0.3477740
  C        0.4708818    -0.1337857    -0.0684285
  C       -0.7756170     0.5047820    -0.1623390
  C        2.7114570    -0.4276410     0.0208990
  C        1.8666300     1.8964630     0.4257140
  C       -3.1904980     0.5035560    -0.1598940
  C       -2.0503370    -1.5461500     0.5645390
  C        2.1210610    -1.6392390    -0.2794470
  H        3.7418240    -0.1353950     0.1686580
  H        1.1394670     2.2188990     1.1681400
  H        2.8785810     2.0278530     0.8121890
  H        1.7220340     2.4842350    -0.4794890
  H       -3.8467550    -0.1153850    -0.7799180
  H       -2.9915450     1.4520350    -0.6543500
  H       -3.6876690     0.6913720     0.7990550
  H       -1.0742680    -1.9474190     0.8155770
  H       -2.5092790    -2.1983750    -0.1864030
  H       -2.6938370    -1.5270200     1.4518100
  H        2.6051200    -2.5920870    -0.4498700
units angstrom
no_reorient  #important for SAPT in psi4, default
symmetry c1  #important for SAPT in psi4, default
}

set PROPERTIES_ORIGIN ["COM"]
properties('MP2/aug-cc-pvtz', properties = ['dipole'])
--------------------------------------------------------------------------

    Molecular point group: c1
  Charge       = 0
  Multiplicity = 1
  Basis Set: AUG-CC-PVTZ
    Blend: AUG-CC-PVTZ
  Basis Set: (AUG-CC-PVTZ AUX)
    Blend: AUG-CC-PVTZ-JKFIT

    Orbital Energies [Eh]
    ---------------------

    Doubly Occupied:

       1A    -20.513647     2A    -15.644489     3A    -15.590451
       4A    -15.568022     5A    -11.356583     6A    -11.305071
       7A    -11.273531     8A    -11.272012     9A    -11.256254
      10A    -11.253536    11A    -11.251819    12A     -1.381559
      13A     -1.334724    14A     -1.244115    15A     -1.173403
      16A     -1.040934    17A     -0.977513    18A     -0.965181
      19A     -0.939903    20A     -0.846876    21A     -0.806711
      22A     -0.740126    23A     -0.709957    24A     -0.666384
      25A     -0.657542    26A     -0.648062    27A     -0.639387
      28A     -0.604787    29A     -0.588050    30A     -0.577517
      31A     -0.563232    32A     -0.556863    33A     -0.552598
      34A     -0.551848    35A     -0.524795    36A     -0.521425
      37A     -0.437723    38A     -0.432939    39A     -0.386611
      40A     -0.371981    41A     -0.317628

  @DF-RHF Final Energy:  -509.84031013457974

   => Energetics <=

    Nuclear Repulsion Energy =            628.9706378467800505
    One-Electron Energy =               -1941.5303207545955502
    Two-Electron Energy =                 802.7193727732357047
    Total Energy =                       -509.8403101345796813
  Basis Set: (AUG-CC-PVTZ AUX)
    Blend: AUG-CC-PVTZ-RI
    Molecular point group: c1

    Geometry (in Angstrom), charge = 0, multiplicity = 1:

       Center              X                  Y                   Z               Mass
    ------------   -----------------  -----------------  -----------------  -----------------
         O           -0.793974660448     1.716846513740    -0.419312504649    15.994914619570
         N            1.659412339552     0.470701513740     0.155037495351    14.003074004430
         N           -1.956072660448    -0.195626486260     0.061572495351    14.003074004430
         N            0.737041339552    -1.512909486260    -0.331596504649    14.003074004430
         C            0.443992139552    -0.137831186260    -0.052251004649    12.000000000000
         C           -0.802506660448     0.500736513740    -0.146161504649    12.000000000000
         C            2.684567339552    -0.431686486260     0.037076495351    12.000000000000
         C            1.839740339552     1.892417513740     0.441891495351    12.000000000000
         C           -3.217387660448     0.499510513740    -0.143716504649    12.000000000000
         C           -2.077226660448    -1.550195486260     0.580716495351    12.000000000000
         C            2.094171339552    -1.643284486260    -0.263269504649    12.000000000000
         H            3.714934339552    -0.139440486260     0.184835495351     1.007825032230
         H            1.112577339552     2.214853513740     1.184317495351     1.007825032230
         H            2.851691339552     2.023807513740     0.828366495351     1.007825032230
         H            1.695144339552     2.480189513740    -0.463311504649     1.007825032230
         H           -3.873644660448    -0.119430486260    -0.763740504649     1.007825032230
         H           -3.018434660448     1.447989513740    -0.638172504649     1.007825032230
         H           -3.714558660448     0.687326513740     0.815232495351     1.007825032230
         H           -1.101157660448    -1.951464486260     0.831754495351     1.007825032230
         H           -2.536168660448    -2.202420486260    -0.170225504649     1.007825032230
         H           -2.720726660448    -1.531065486260     1.467987495351     1.007825032230
         H            2.578230339552    -2.596132486260    -0.433692504649     1.007825032230

  Basis Set: AUG-CC-PVTZ
    Blend: AUG-CC-PVTZ
  Basis Set: (AUG-CC-PVTZ AUX)
    Blend: AUG-CC-PVTZ-JKFIT
	 Reference Energy          =    -509.8403101345797381 [Eh]
	 Singles Energy            =      -0.0000000000000000 [Eh]
	 Same-Spin Energy          =      -0.5472287490354062 [Eh]
	 Opposite-Spin Energy      =      -1.7009742426535128 [Eh]
	 Correlation Energy        =      -2.2482029916889190 [Eh]
	 Total Energy              =    -512.0885131262687082 [Eh]

	 ================> DF-SCS-MP2 Energies <==================
	-----------------------------------------------------------
	 SCS Same-Spin Scale       =       0.3333333333333333 [-]
	 SCS Opposite-Spin Scale   =       1.2000000000000000 [-]
	 SCS Same-Spin Energy      =      -0.1824095830118020 [Eh]
	 SCS Opposite-Spin Energy  =      -2.0411690911842153 [Eh]
	 SCS Correlation Energy    =      -2.2235786741960175 [Eh]
	 SCS Total Energy          =    -512.0638888087758005 [Eh]
	-----------------------------------------------------------

  Dipole Moment: [D]
     X:     1.0182      Y:    -0.0348      Z:     1.7367     Total:     2.0135

*** Psi4 exiting successfully. Buy a developer a beer!
