                               Psi4 1.3.2 release

  ==> Input File <==

--------------------------------------------------------------------------
#psi4
#
memory 32 gb

molecule  {
0 1
  O       -0.7670850     1.7208920    -0.4354900
  N        1.6863020     0.4747470     0.1388600
  N       -1.8759334    -0.2693180     0.0587092
  N        0.7639310    -1.5088640    -0.3477740
  C        0.5182450    -0.2160980    -0.0822800
  C       -0.7756170     0.5047820    -0.1623390
  C        2.7114570    -0.4276410     0.0208990
  C        1.8666300     1.8964630     0.4257140
  C       -3.1904980     0.5035560    -0.1598940
  C       -2.0503370    -1.5461500     0.5645390
  C        2.1210610    -1.6392390    -0.2794470
  H        3.7418240    -0.1353950     0.1686580
  H        1.1394670     2.2188990     1.1681400
  H        2.8785810     2.0278530     0.8121890
  H        1.7220340     2.4842350    -0.4794890
  H       -3.8467550    -0.1153850    -0.7799180
  H       -2.9915450     1.4520350    -0.6543500
  H       -3.6876690     0.6913720     0.7990550
  H       -1.0742680    -1.9474190     0.8155770
  H       -2.5092790    -2.1983750    -0.1864030
  H       -2.6938370    -1.5270200     1.4518100
  H        2.6051200    -2.5920870    -0.4498700
units angstrom
no_reorient  #important for SAPT in psi4, default
symmetry c1  #important for SAPT in psi4, default
}

set PROPERTIES_ORIGIN ["COM"]
properties('MP2/aug-cc-pvtz', properties = ['dipole'])
--------------------------------------------------------------------------

    Molecular point group: c1
  Charge       = 0
  Multiplicity = 1
  Basis Set: AUG-CC-PVTZ
    Blend: AUG-CC-PVTZ
  Basis Set: (AUG-CC-PVTZ AUX)
    Blend: AUG-CC-PVTZ-JKFIT

    Orbital Energies [Eh]
    ---------------------

    Doubly Occupied:

       1A    -20.521999     2A    -15.631539     3A    -15.594447
       4A    -15.559751     5A    -11.365817     6A    -11.301771
       7A    -11.271478     8A    -11.267618     9A    -11.260144
      10A    -11.250524    11A    -11.249947    12A     -1.380746
      13A     -1.340441    14A     -1.252003    15A     -1.187098
      16A     -1.029944    17A     -0.977033    18A     -0.968892
      19A     -0.939558    20A     -0.829844    21A     -0.809380
      22A     -0.741522    23A     -0.709539    24A     -0.663762
      25A     -0.656646    26A     -0.645929    27A     -0.639662
      28A     -0.604354    29A     -0.591041    30A     -0.584299
      31A     -0.562436    32A     -0.556805    33A     -0.554129
      34A     -0.548218    35A     -0.526329    36A     -0.519713
      37A     -0.450428    38A     -0.426674    39A     -0.390012
      40A     -0.375723    41A     -0.318814

  @DF-RHF Final Energy:  -509.84882682354618

   => Energetics <=

    Nuclear Repulsion Energy =            629.3449814955422426
    One-Electron Energy =               -1942.2756004999994275
    Two-Electron Energy =                 803.0817921809109521
    Total Energy =                       -509.8488268235462328
  Basis Set: (AUG-CC-PVTZ AUX)
    Blend: AUG-CC-PVTZ-RI
    Molecular point group: c1

    Geometry (in Angstrom), charge = 0, multiplicity = 1:

       Center              X                  Y                   Z               Mass
    ------------   -----------------  -----------------  -----------------  -----------------
         O           -0.802557942635     1.730409135000    -0.419444594922    15.994914619570
         N            1.650829057365     0.484264135000     0.154905405078    14.003074004430
         N           -1.911406342635    -0.259800865000     0.074754605078    14.003074004430
         N            0.728458057365    -1.499346865000    -0.331728594922    14.003074004430
         C            0.482772057365    -0.206580865000    -0.066234594922    12.000000000000
         C           -0.811089942635     0.514299135000    -0.146293594922    12.000000000000
         C            2.675984057365    -0.418123865000     0.036944405078    12.000000000000
         C            1.831157057365     1.905980135000     0.441759405078    12.000000000000
         C           -3.225970942635     0.513073135000    -0.143848594922    12.000000000000
         C           -2.085809942635    -1.536632865000     0.580584405078    12.000000000000
         C            2.085588057365    -1.629721865000    -0.263401594922    12.000000000000
         H            3.706351057365    -0.125877865000     0.184703405078     1.007825032230
         H            1.103994057365     2.228416135000     1.184185405078     1.007825032230
         H            2.843108057365     2.037370135000     0.828234405078     1.007825032230
         H            1.686561057365     2.493752135000    -0.463443594922     1.007825032230
         H           -3.882227942635    -0.105867865000    -0.763872594922     1.007825032230
         H           -3.027017942635     1.461552135000    -0.638304594922     1.007825032230
         H           -3.723141942635     0.700889135000     0.815100405078     1.007825032230
         H           -1.109740942635    -1.937901865000     0.831622405078     1.007825032230
         H           -2.544751942635    -2.188857865000    -0.170357594922     1.007825032230
         H           -2.729309942635    -1.517502865000     1.467855405078     1.007825032230
         H            2.569647057365    -2.582569865000    -0.433824594922     1.007825032230

  Basis Set: AUG-CC-PVTZ
    Blend: AUG-CC-PVTZ
  Basis Set: (AUG-CC-PVTZ AUX)
    Blend: AUG-CC-PVTZ-JKFIT
	 Reference Energy          =    -509.8488268235461760 [Eh]
	 Singles Energy            =      -0.0000000000000000 [Eh]
	 Same-Spin Energy          =      -0.5446650243179656 [Eh]
	 Opposite-Spin Energy      =      -1.6970121329994399 [Eh]
	 Correlation Energy        =      -2.2416771573174055 [Eh]
	 Total Energy              =    -512.0905039808635593 [Eh]

	 ================> DF-SCS-MP2 Energies <==================
	-----------------------------------------------------------
	 SCS Same-Spin Scale       =       0.3333333333333333 [-]
	 SCS Opposite-Spin Scale   =       1.2000000000000000 [-]
	 SCS Same-Spin Energy      =      -0.1815550081059885 [Eh]
	 SCS Opposite-Spin Energy  =      -2.0364145595993279 [Eh]
	 SCS Correlation Energy    =      -2.2179695677053166 [Eh]
	 SCS Total Energy          =    -512.0667963912515006 [Eh]
	-----------------------------------------------------------

  Dipole Moment: [D]
     X:     0.5709      Y:     0.1671      Z:     1.6898     Total:     1.7915

*** Psi4 exiting successfully. Buy a developer a beer!
