                               Psi4 1.3.2 release

  ==> Input File <==

--------------------------------------------------------------------------
#psi4
#
memory 32 gb

molecule  {
0 1
  O       -0.7670850     1.7208920    -0.4354900
  N        1.7337334     0.3926603     0.1239437
  N       -1.9291830    -0.1915810     0.0453950
  N        0.7639310    -1.5088640    -0.3477740
  C        0.5182450    -0.2160980    -0.0822800
  C       -0.7756170     0.5047820    -0.1623390
  C        2.7114570    -0.4276410     0.0208990
  C        1.8666300     1.8964630     0.4257140
  C       -3.1904980     0.5035560    -0.1598940
  C       -2.0503370    -1.5461500     0.5645390
  C        2.1210610    -1.6392390    -0.2794470
  H        3.7418240    -0.1353950     0.1686580
  H        1.1394670     2.2188990     1.1681400
  H        2.8785810     2.0278530     0.8121890
  H        1.7220340     2.4842350    -0.4794890
  H       -3.8467550    -0.1153850    -0.7799180
  H       -2.9915450     1.4520350    -0.6543500
  H       -3.6876690     0.6913720     0.7990550
  H       -1.0742680    -1.9474190     0.8155770
  H       -2.5092790    -2.1983750    -0.1864030
  H       -2.6938370    -1.5270200     1.4518100
  H        2.6051200    -2.5920870    -0.4498700
units angstrom
no_reorient  #important for SAPT in psi4, default
symmetry c1  #important for SAPT in psi4, default
}

set PROPERTIES_ORIGIN ["COM"]
properties('MP2/aug-cc-pvtz', properties = ['dipole'])
--------------------------------------------------------------------------

    Molecular point group: c1
  Charge       = 0
  Multiplicity = 1
  Basis Set: AUG-CC-PVTZ
    Blend: AUG-CC-PVTZ
  Basis Set: (AUG-CC-PVTZ AUX)
    Blend: AUG-CC-PVTZ-JKFIT

    Orbital Energies [Eh]
    ---------------------

    Doubly Occupied:

       1A    -20.515456     2A    -15.634909     3A    -15.590919
       4A    -15.560362     5A    -11.363225     6A    -11.295724
       7A    -11.280626     8A    -11.264034     9A    -11.254239
      10A    -11.252154    11A    -11.243488    12A     -1.382301
      13A     -1.356158    14A     -1.244211    15A     -1.183444
      16A     -1.037594    17A     -0.972658    18A     -0.965271
      19A     -0.937576    20A     -0.832956    21A     -0.814097
      22A     -0.741217    23A     -0.711654    24A     -0.668113
      25A     -0.657212    26A     -0.649388    27A     -0.640507
      28A     -0.602078    29A     -0.581226    30A     -0.571148
      31A     -0.565774    32A     -0.559874    33A     -0.554935
      34A     -0.552299    35A     -0.527449    36A     -0.524620
      37A     -0.447551    38A     -0.427952    39A     -0.398319
      40A     -0.372292    41A     -0.314316

  @DF-RHF Final Energy:  -509.84874539068625

   => Energetics <=

    Nuclear Repulsion Energy =            629.4398623250182254
    One-Electron Energy =               -1942.4785649713912790
    Two-Electron Energy =                 803.1899572556869771
    Total Energy =                       -509.8487453906861901
  Basis Set: (AUG-CC-PVTZ AUX)
    Blend: AUG-CC-PVTZ-RI
    Molecular point group: c1

    Geometry (in Angstrom), charge = 0, multiplicity = 1:

       Center              X                  Y                   Z               Mass
    ------------   -----------------  -----------------  -----------------  -----------------
         O           -0.802025755213     1.730806999568    -0.416862367257    15.994914619570
         N            1.698792644787     0.402575299568     0.142571332743    14.003074004430
         N           -1.964123755213    -0.181666000432     0.064022632743    14.003074004430
         N            0.728990244787    -1.498949000432    -0.329146367257    14.003074004430
         C            0.483304244787    -0.206183000432    -0.063652367257    12.000000000000
         C           -0.810557755213     0.514696999568    -0.143711367257    12.000000000000
         C            2.676516244787    -0.417726000432     0.039526632743    12.000000000000
         C            1.831689244787     1.906377999568     0.444341632743    12.000000000000
         C           -3.225438755213     0.513470999568    -0.141266367257    12.000000000000
         C           -2.085277755213    -1.536235000432     0.583166632743    12.000000000000
         C            2.086120244787    -1.629324000432    -0.260819367257    12.000000000000
         H            3.706883244787    -0.125480000432     0.187285632743     1.007825032230
         H            1.104526244787     2.228813999568     1.186767632743     1.007825032230
         H            2.843640244787     2.037767999568     0.830816632743     1.007825032230
         H            1.687093244787     2.494149999568    -0.460861367257     1.007825032230
         H           -3.881695755213    -0.105470000432    -0.761290367257     1.007825032230
         H           -3.026485755213     1.461949999568    -0.635722367257     1.007825032230
         H           -3.722609755213     0.701286999568     0.817682632743     1.007825032230
         H           -1.109208755213    -1.937504000432     0.834204632743     1.007825032230
         H           -2.544219755213    -2.188460000432    -0.167775367257     1.007825032230
         H           -2.728777755213    -1.517105000432     1.470437632743     1.007825032230
         H            2.570179244787    -2.582172000432    -0.431242367257     1.007825032230

  Basis Set: AUG-CC-PVTZ
    Blend: AUG-CC-PVTZ
  Basis Set: (AUG-CC-PVTZ AUX)
    Blend: AUG-CC-PVTZ-JKFIT
	 Reference Energy          =    -509.8487453906862470 [Eh]
	 Singles Energy            =      -0.0000000000000000 [Eh]
	 Same-Spin Energy          =      -0.5441031880386777 [Eh]
	 Opposite-Spin Energy      =      -1.6946665935065148 [Eh]
	 Correlation Energy        =      -2.2387697815451926 [Eh]
	 Total Energy              =    -512.0875151722314058 [Eh]

	 ================> DF-SCS-MP2 Energies <==================
	-----------------------------------------------------------
	 SCS Same-Spin Scale       =       0.3333333333333333 [-]
	 SCS Opposite-Spin Scale   =       1.2000000000000000 [-]
	 SCS Same-Spin Energy      =      -0.1813677293462259 [Eh]
	 SCS Opposite-Spin Energy  =      -2.0335999122078179 [Eh]
	 SCS Correlation Energy    =      -2.2149676415540438 [Eh]
	 SCS Total Energy          =    -512.0637130322403436 [Eh]
	-----------------------------------------------------------

  Dipole Moment: [D]
     X:     0.8239      Y:     0.2340      Z:     1.7702     Total:     1.9665

*** Psi4 exiting successfully. Buy a developer a beer!
