                               Psi4 1.4a3.dev225

  ==> Input File <==

--------------------------------------------------------------------------
#psi4
#
memory 32 gb

molecule  {
0 1
  O       -0.7670850     1.7208920    -0.4354900
  N        1.6863020     0.4747470     0.1388600
  N       -1.9291830    -0.1915810     0.0453950
  N        0.7639310    -1.5088640    -0.3477740
  C        0.5182450    -0.2160980    -0.0822800
  C       -0.7756170     0.5047820    -0.1623390
  C        2.7114570    -0.4276410     0.0208990
  C        1.8666300     1.8964630     0.4257140
  C       -3.1904980     0.5035560    -0.1598940
  C       -2.0503370    -1.5461500     0.5645390
  C        2.0996830    -1.6831105    -0.2903224
  H        3.7418240    -0.1353950     0.1686580
  H        1.1394670     2.2188990     1.1681400
  H        2.8785810     2.0278530     0.8121890
  H        1.7220340     2.4842350    -0.4794890
  H       -3.8467550    -0.1153850    -0.7799180
  H       -2.9915450     1.4520350    -0.6543500
  H       -3.6876690     0.6913720     0.7990550
  H       -1.0742680    -1.9474190     0.8155770
  H       -2.5092790    -2.1983750    -0.1864030
  H       -2.6938370    -1.5270200     1.4518100
  H        2.6051200    -2.5920870    -0.4498700
units angstrom
no_reorient  #important for SAPT in psi4, default
symmetry c1  #important for SAPT in psi4, default
}

set PROPERTIES_ORIGIN ["COM"]
properties('MP2/aug-cc-pvtz', properties = ['dipole'])
--------------------------------------------------------------------------

    Molecular point group: c1
  Charge       = 0
  Multiplicity = 1
  Basis Set: AUG-CC-PVTZ
    Blend: AUG-CC-PVTZ
  Basis Set: (AUG-CC-PVTZ AUX)
    Blend: AUG-CC-PVTZ-JKFIT

    Orbital Energies [Eh]
    ---------------------

    Doubly Occupied:

       1A    -20.516251     2A    -15.638152     3A    -15.590888
       4A    -15.562154     5A    -11.362004     6A    -11.302904
       7A    -11.275002     8A    -11.273198     9A    -11.255055
      10A    -11.254755    11A    -11.252102    12A     -1.379450
      13A     -1.341007    14A     -1.244563    15A     -1.192923
      16A     -1.026316    17A     -0.977978    18A     -0.965872
      19A     -0.937686    20A     -0.830522    21A     -0.814078
      22A     -0.741721    23A     -0.708674    24A     -0.662650
      25A     -0.656154    26A     -0.645137    27A     -0.639647
      28A     -0.616507    29A     -0.588462    30A     -0.574736
      31A     -0.566988    32A     -0.557076    33A     -0.554518
      34A     -0.552533    35A     -0.526713    36A     -0.521686
      37A     -0.447047    38A     -0.426916    39A     -0.395693
      40A     -0.372404    41A     -0.312479

  @DF-RHF Final Energy:  -509.85608746005909

   => Energetics <=

    Nuclear Repulsion Energy =            628.4341972564266143
    One-Electron Energy =               -1940.4593637458347075
    Two-Electron Energy =                 802.1690790293489499
    Total Energy =                       -509.8560874600591433
  Basis Set: (AUG-CC-PVTZ AUX)
    Blend: AUG-CC-PVTZ-RI
    Molecular point group: c1

    Geometry (in Angstrom), charge = 0, multiplicity = 1:

       Center              X                  Y                   Z               Mass
    ------------   -----------------  -----------------  -----------------  -----------------
         O           -0.796011514379     1.726737450465    -0.417374282759    15.994914619570
         N            1.657375485621     0.480592450465     0.156975717241    14.003074004430
         N           -1.958109514379    -0.185735549535     0.063510717241    14.003074004430
         N            0.735004485621    -1.503018549535    -0.329658282759    14.003074004430
         C            0.489318485621    -0.210252549535    -0.064164282759    12.000000000000
         C           -0.804543514379     0.510627450465    -0.144223282759    12.000000000000
         C            2.682530485621    -0.421795549535     0.039014717241    12.000000000000
         C            1.837703485621     1.902308450465     0.443829717241    12.000000000000
         C           -3.219424514379     0.509401450465    -0.141778282759    12.000000000000
         C           -2.079263514379    -1.540304549535     0.582654717241    12.000000000000
         C            2.070756485621    -1.677265049535    -0.272206682759    12.000000000000
         H            3.712897485621    -0.129549549535     0.186773717241     1.007825032230
         H            1.110540485621     2.224744450465     1.186255717241     1.007825032230
         H            2.849654485621     2.033698450465     0.830304717241     1.007825032230
         H            1.693107485621     2.490080450465    -0.461373282759     1.007825032230
         H           -3.875681514379    -0.109539549535    -0.761802282759     1.007825032230
         H           -3.020471514379     1.457880450465    -0.636234282759     1.007825032230
         H           -3.716595514379     0.697217450465     0.817170717241     1.007825032230
         H           -1.103194514379    -1.941573549535     0.833692717241     1.007825032230
         H           -2.538205514379    -2.192529549535    -0.168287282759     1.007825032230
         H           -2.722763514379    -1.521174549535     1.469925717241     1.007825032230
         H            2.576193485621    -2.586241549535    -0.431754282759     1.007825032230

  Basis Set: AUG-CC-PVTZ
    Blend: AUG-CC-PVTZ
  Basis Set: (AUG-CC-PVTZ AUX)
    Blend: AUG-CC-PVTZ-JKFIT
	 Reference Energy          =    -509.8560874600590864 [Eh]
	 Singles Energy            =      -0.0000000000000000 [Eh]
	 Same-Spin Energy          =      -0.5446230125679516 [Eh]
	 Opposite-Spin Energy      =      -1.6963262089757229 [Eh]
	 Correlation Energy        =      -2.2409492215436746 [Eh]
	 Total Energy              =    -512.0970366816027308 [Eh]

	 ================> DF-SCS-MP2 Energies <==================
	-----------------------------------------------------------
	 SCS Same-Spin Scale       =       0.3333333333333333 [-]
	 SCS Opposite-Spin Scale   =       1.2000000000000000 [-]
	 SCS Same-Spin Energy      =      -0.1815410041893172 [Eh]
	 SCS Opposite-Spin Energy  =      -2.0355914507708674 [Eh]
	 SCS Correlation Energy    =      -2.2171324549601845 [Eh]
	 SCS Total Energy          =    -512.0732199150193082 [Eh]
	-----------------------------------------------------------

  Dipole Moment: [D]
     X:     0.7735      Y:    -0.0439      Z:     1.7068     Total:     1.8744

*** Psi4 exiting successfully. Buy a developer a beer!
