                               Psi4 1.4a2.dev612

  ==> Input File <==

--------------------------------------------------------------------------
#psi4
#
memory 32 gb

molecule  {
-1 1
  O        1.0038370    -0.7785270     0.0000510
  O       -1.2265670    -0.5540960    -0.0000940
  O        0.1096160     1.3008663    -0.1499770
  C       -0.1409850     0.0678760     0.0000040
  H        1.7508990    -0.1531850     0.0001380
units angstrom
no_reorient  #important for SAPT in psi4, default
symmetry c1  #important for SAPT in psi4, default
}

set PROPERTIES_ORIGIN ["COM"]
properties('MP2/aug-cc-pvtz', properties = ['dipole'])
--------------------------------------------------------------------------

    Molecular point group: c1
  Charge       = -1
  Multiplicity = 1
  Basis Set: AUG-CC-PVTZ
    Blend: AUG-CC-PVTZ
  Basis Set: (AUG-CC-PVTZ AUX)
    Blend: AUG-CC-PVTZ-JKFIT

    Orbital Energies [Eh]
    ---------------------

    Doubly Occupied:

       1A    -20.391415     2A    -20.303154     3A    -20.298757
       4A    -11.186390     5A     -1.231515     6A     -1.115629
       7A     -1.079590     8A     -0.580662     9A     -0.474271
      10A     -0.439584    11A     -0.413578    12A     -0.375239
      13A     -0.285565    14A     -0.245877    15A     -0.214523
      16A     -0.206947

  @DF-RHF Final Energy:  -263.19763521336722

   => Energetics <=

    Nuclear Repulsion Energy =            112.3566327031728207
    One-Electron Energy =                -593.4231451260901622
    Two-Electron Energy =                 217.8688772095501349
    Total Energy =                       -263.1976352133672208
  Basis Set: (AUG-CC-PVTZ AUX)
    Blend: AUG-CC-PVTZ-RI
    Molecular point group: c1

    Geometry (in Angstrom), charge = -1, multiplicity = 1:

       Center              X                  Y                   Z               Mass
    ------------   -----------------  -----------------  -----------------  -----------------
         O            1.032307172068    -0.781022100962     0.039389726914    15.994914619570
         O           -1.198096827932    -0.556591100962     0.039244726914    15.994914619570
         O            0.138086172068     1.298371199038    -0.110638273086    15.994914619570
         C           -0.112514827932     0.065380899038     0.039342726914    12.000000000000
         H            1.779369172068    -0.155680100962     0.039476726914     1.007825032230

  Basis Set: AUG-CC-PVTZ
    Blend: AUG-CC-PVTZ
  Basis Set: (AUG-CC-PVTZ AUX)
    Blend: AUG-CC-PVTZ-JKFIT
	 Reference Energy          =    -263.1976352133672208 [Eh]
	 Singles Energy            =      -0.0000000000000000 [Eh]
	 Same-Spin Energy          =      -0.2497714679831741 [Eh]
	 Opposite-Spin Energy      =      -0.7067794948162163 [Eh]
	 Correlation Energy        =      -0.9565509627993904 [Eh]
	 Total Energy              =    -264.1541861761666041 [Eh]

	 ================> DF-SCS-MP2 Energies <==================
	-----------------------------------------------------------
	 SCS Same-Spin Scale       =       0.3333333333333333 [-]
	 SCS Opposite-Spin Scale   =       1.2000000000000000 [-]
	 SCS Same-Spin Energy      =      -0.0832571559943914 [Eh]
	 SCS Opposite-Spin Energy  =      -0.8481353937794595 [Eh]
	 SCS Correlation Energy    =      -0.9313925497738509 [Eh]
	 SCS Total Energy          =    -264.1290277631410959 [Eh]
	-----------------------------------------------------------

  Dipole Moment: [D]
     X:     2.7188      Y:    -0.4209      Z:     0.1695     Total:     2.7564

*** Psi4 exiting successfully. Buy a developer a beer!
