                               Psi4 1.4a2.dev612

  ==> Input File <==

--------------------------------------------------------------------------
#psi4
#
memory 32 gb

molecule  {
-1 1
  O        1.0038370    -0.7785270     0.0000510
  O       -1.2265670    -0.5540960    -0.0000940
  O        0.1096226     1.3008678    -0.2499770
  C       -0.1409850     0.0678760     0.0000040
  H        1.7508990    -0.1531850     0.0001380
units angstrom
no_reorient  #important for SAPT in psi4, default
symmetry c1  #important for SAPT in psi4, default
}

set PROPERTIES_ORIGIN ["COM"]
properties('MP2/aug-cc-pvtz', properties = ['dipole'])
--------------------------------------------------------------------------

    Molecular point group: c1
  Charge       = -1
  Multiplicity = 1
  Basis Set: AUG-CC-PVTZ
    Blend: AUG-CC-PVTZ
  Basis Set: (AUG-CC-PVTZ AUX)
    Blend: AUG-CC-PVTZ-JKFIT

    Orbital Energies [Eh]
    ---------------------

    Doubly Occupied:

       1A    -20.393278     2A    -20.302653     3A    -20.301646
       4A    -11.189201     5A     -1.230307     6A     -1.115413
       7A     -1.074404     8A     -0.582122     9A     -0.474121
      10A     -0.438906    11A     -0.412808    12A     -0.373279
      13A     -0.285211    14A     -0.245653    15A     -0.214390
      16A     -0.205922

  @DF-RHF Final Energy:  -263.19300644573838

   => Energetics <=

    Nuclear Repulsion Energy =            111.9898537622005676
    One-Electron Energy =                -592.6870896175095140
    Two-Electron Energy =                 217.5042294095705415
    Total Energy =                       -263.1930064457383764
  Basis Set: (AUG-CC-PVTZ AUX)
    Blend: AUG-CC-PVTZ-RI
    Molecular point group: c1

    Geometry (in Angstrom), charge = -1, multiplicity = 1:

       Center              X                  Y                   Z               Mass
    ------------   -----------------  -----------------  -----------------  -----------------
         O            1.032305441259    -0.781022494328     0.065614093112    15.994914619570
         O           -1.198098558741    -0.556591494328     0.065469093112    15.994914619570
         O            0.138091041259     1.298372305672    -0.184413906888    15.994914619570
         C           -0.112516558741     0.065380505672     0.065567093112    12.000000000000
         H            1.779367441259    -0.155680494328     0.065701093112     1.007825032230

  Basis Set: AUG-CC-PVTZ
    Blend: AUG-CC-PVTZ
  Basis Set: (AUG-CC-PVTZ AUX)
    Blend: AUG-CC-PVTZ-JKFIT
	 Reference Energy          =    -263.1930064457383764 [Eh]
	 Singles Energy            =      -0.0000000000000000 [Eh]
	 Same-Spin Energy          =      -0.2501678252861894 [Eh]
	 Opposite-Spin Energy      =      -0.7078638438004121 [Eh]
	 Correlation Energy        =      -0.9580316690866015 [Eh]
	 Total Energy              =    -264.1510381148249849 [Eh]

	 ================> DF-SCS-MP2 Energies <==================
	-----------------------------------------------------------
	 SCS Same-Spin Scale       =       0.3333333333333333 [-]
	 SCS Opposite-Spin Scale   =       1.2000000000000000 [-]
	 SCS Same-Spin Energy      =      -0.0833892750953965 [Eh]
	 SCS Opposite-Spin Energy  =      -0.8494366125604945 [Eh]
	 SCS Correlation Energy    =      -0.9328258876558910 [Eh]
	 SCS Total Energy          =    -264.1258323333942712 [Eh]
	-----------------------------------------------------------

  Dipole Moment: [D]
     X:     2.6913      Y:    -0.5155      Z:     0.2914     Total:     2.7557

*** Psi4 exiting successfully. Buy a developer a beer!
