                               Psi4 1.4a2.dev612

  ==> Input File <==

--------------------------------------------------------------------------
#psi4
#
memory 32 gb

molecule  {
-1 1
  O        1.0038370    -0.7785270     0.0000510
  O       -1.2265670    -0.5540960    -0.0000940
  O        0.1096093     1.3008648    -0.0499770
  C       -0.1409850     0.0678760     0.0000040
  H        1.7508990    -0.1531850     0.0001380
units angstrom
no_reorient  #important for SAPT in psi4, default
symmetry c1  #important for SAPT in psi4, default
}

set PROPERTIES_ORIGIN ["COM"]
properties('MP2/aug-cc-pvtz', properties = ['dipole'])
--------------------------------------------------------------------------

    Molecular point group: c1
  Charge       = -1
  Multiplicity = 1
  Basis Set: AUG-CC-PVTZ
    Blend: AUG-CC-PVTZ
  Basis Set: (AUG-CC-PVTZ AUX)
    Blend: AUG-CC-PVTZ-JKFIT

    Orbital Energies [Eh]
    ---------------------

    Doubly Occupied:

       1A    -20.390457     2A    -20.303415     3A    -20.297290
       4A    -11.184926     5A     -1.232275     6A     -1.116031
       7A     -1.081862     8A     -0.579922     9A     -0.474409
      10A     -0.439998    11A     -0.414042    12A     -0.376176
      13A     -0.285780    14A     -0.246002    15A     -0.214507
      16A     -0.207448

  @DF-RHF Final Energy:  -263.19983859922650

   => Energetics <=

    Nuclear Repulsion Energy =            112.5440285696770530
    One-Electron Energy =                -593.7986571159996174
    Two-Electron Energy =                 218.0547899470960829
    Total Energy =                       -263.1998385992264957
  Basis Set: (AUG-CC-PVTZ AUX)
    Blend: AUG-CC-PVTZ-RI
    Molecular point group: c1

    Geometry (in Angstrom), charge = -1, multiplicity = 1:

       Center              X                  Y                   Z               Mass
    ------------   -----------------  -----------------  -----------------  -----------------
         O            1.032308929100    -0.781021707597     0.013165360716    15.994914619570
         O           -1.198095070900    -0.556590707597     0.013020360716    15.994914619570
         O            0.138081229100     1.298370092403    -0.036862639284    15.994914619570
         C           -0.112513070900     0.065381292403     0.013118360716    12.000000000000
         H            1.779370929100    -0.155679707597     0.013252360716     1.007825032230

  Basis Set: AUG-CC-PVTZ
    Blend: AUG-CC-PVTZ
  Basis Set: (AUG-CC-PVTZ AUX)
    Blend: AUG-CC-PVTZ-JKFIT
	 Reference Energy          =    -263.1998385992264957 [Eh]
	 Singles Energy            =      -0.0000000000000000 [Eh]
	 Same-Spin Energy          =      -0.2495681011805236 [Eh]
	 Opposite-Spin Energy      =      -0.7062292788651823 [Eh]
	 Correlation Energy        =      -0.9557973800457058 [Eh]
	 Total Energy              =    -264.1556359792721764 [Eh]

	 ================> DF-SCS-MP2 Energies <==================
	-----------------------------------------------------------
	 SCS Same-Spin Scale       =       0.3333333333333333 [-]
	 SCS Opposite-Spin Scale   =       1.2000000000000000 [-]
	 SCS Same-Spin Energy      =      -0.0831893670601745 [Eh]
	 SCS Opposite-Spin Energy  =      -0.8474751346382187 [Eh]
	 SCS Correlation Energy    =      -0.9306645016983932 [Eh]
	 SCS Total Energy          =    -264.1305031009248978 [Eh]
	-----------------------------------------------------------

  Dipole Moment: [D]
     X:     2.7327      Y:    -0.3726      Z:     0.0557     Total:     2.7585

*** Psi4 exiting successfully. Buy a developer a beer!
