                               Psi4 1.4a2.dev612

  ==> Input File <==

--------------------------------------------------------------------------
#psi4
#
memory 32 gb

molecule  {
-1 1
  O        1.0038370    -0.7785270     0.0000510
  O       -1.2265670    -0.5540960    -0.0000940
  O        0.1096127     1.3008655    -0.0999770
  C       -0.1409850     0.0678760     0.0000040
  H        1.7508990    -0.1531850     0.0001380
units angstrom
no_reorient  #important for SAPT in psi4, default
symmetry c1  #important for SAPT in psi4, default
}

set PROPERTIES_ORIGIN ["COM"]
properties('MP2/aug-cc-pvtz', properties = ['dipole'])
--------------------------------------------------------------------------

    Molecular point group: c1
  Charge       = -1
  Multiplicity = 1
  Basis Set: AUG-CC-PVTZ
    Blend: AUG-CC-PVTZ
  Basis Set: (AUG-CC-PVTZ AUX)
    Blend: AUG-CC-PVTZ-JKFIT

    Orbital Energies [Eh]
    ---------------------

    Doubly Occupied:

       1A    -20.390818     2A    -20.303316     3A    -20.297842
       4A    -11.185480     5A     -1.231977     6A     -1.115854
       7A     -1.081039     8A     -0.580200     9A     -0.474352
      10A     -0.439837    11A     -0.413861    12A     -0.375829
      13A     -0.285697    14A     -0.245954    15A     -0.214520
      16A     -0.207261

  @DF-RHF Final Energy:  -263.19902175806402

   => Energetics <=

    Nuclear Repulsion Energy =            112.4734336563649748
    One-Electron Energy =                -593.6572413129631514
    Two-Electron Energy =                 217.9847858985341418
    Total Energy =                       -263.1990217580640206
  Basis Set: (AUG-CC-PVTZ AUX)
    Blend: AUG-CC-PVTZ-RI
    Molecular point group: c1

    Geometry (in Angstrom), charge = -1, multiplicity = 1:

       Center              X                  Y                   Z               Mass
    ------------   -----------------  -----------------  -----------------  -----------------
         O            1.032308037472    -0.781021891167     0.026277543815    15.994914619570
         O           -1.198095962528    -0.556590891167     0.026132543815    15.994914619570
         O            0.138083737472     1.298370608833    -0.073750456185    15.994914619570
         C           -0.112513962528     0.065381108833     0.026230543815    12.000000000000
         H            1.779370037472    -0.155679891167     0.026364543815     1.007825032230

  Basis Set: AUG-CC-PVTZ
    Blend: AUG-CC-PVTZ
  Basis Set: (AUG-CC-PVTZ AUX)
    Blend: AUG-CC-PVTZ-JKFIT
	 Reference Energy          =    -263.1990217580640206 [Eh]
	 Singles Energy            =      -0.0000000000000000 [Eh]
	 Same-Spin Energy          =      -0.2496447625724252 [Eh]
	 Opposite-Spin Energy      =      -0.7064362279537209 [Eh]
	 Correlation Energy        =      -0.9560809905261460 [Eh]
	 Total Energy              =    -264.1551027485901386 [Eh]

	 ================> DF-SCS-MP2 Energies <==================
	-----------------------------------------------------------
	 SCS Same-Spin Scale       =       0.3333333333333333 [-]
	 SCS Opposite-Spin Scale   =       1.2000000000000000 [-]
	 SCS Same-Spin Energy      =      -0.0832149208574750 [Eh]
	 SCS Opposite-Spin Energy  =      -0.8477234735444650 [Eh]
	 SCS Correlation Energy    =      -0.9309383944019400 [Eh]
	 SCS Total Energy          =    -264.1299601524659693 [Eh]
	-----------------------------------------------------------

  Dipole Moment: [D]
     X:     2.7274      Y:    -0.3908      Z:     0.1119     Total:     2.7576

*** Psi4 exiting successfully. Buy a developer a beer!
