                               Psi4 1.4a2.dev612

  ==> Input File <==

--------------------------------------------------------------------------
#psi4
#
memory 32 gb

molecule  {
-1 1
  O        1.0038370    -0.7785270     0.0000510
  O       -1.2265670    -0.5540960    -0.0000940
  O        0.1096193     1.3008670    -0.1999770
  C       -0.1409850     0.0678760     0.0000040
  H        1.7508990    -0.1531850     0.0001380
units angstrom
no_reorient  #important for SAPT in psi4, default
symmetry c1  #important for SAPT in psi4, default
}

set PROPERTIES_ORIGIN ["COM"]
properties('MP2/aug-cc-pvtz', properties = ['dipole'])
--------------------------------------------------------------------------

    Molecular point group: c1
  Charge       = -1
  Multiplicity = 1
  Basis Set: AUG-CC-PVTZ
    Blend: AUG-CC-PVTZ
  Basis Set: (AUG-CC-PVTZ AUX)
    Blend: AUG-CC-PVTZ-JKFIT

    Orbital Energies [Eh]
    ---------------------

    Doubly Occupied:

       1A    -20.392238     2A    -20.302931     3A    -20.300029
       4A    -11.187639     5A     -1.230939     6A     -1.115449
       7A     -1.077413     8A     -0.581304     9A     -0.474185
      10A     -0.439264    11A     -0.413217    12A     -0.374394
      13A     -0.285398    14A     -0.245775    15A     -0.214490
      16A     -0.206502

  @DF-RHF Final Energy:  -263.19564424521246

   => Energetics <=

    Nuclear Repulsion Energy =            112.1948789536406679
    One-Electron Energy =                -593.0987102165245233
    Two-Electron Energy =                 217.7081870176713778
    Total Energy =                       -263.1956442452124634
  Basis Set: (AUG-CC-PVTZ AUX)
    Blend: AUG-CC-PVTZ-RI
    Molecular point group: c1

    Geometry (in Angstrom), charge = -1, multiplicity = 1:

       Center              X                  Y                   Z               Mass
    ------------   -----------------  -----------------  -----------------  -----------------
         O            1.032306306664    -0.781022284533     0.052501910013    15.994914619570
         O           -1.198097693336    -0.556591284533     0.052356910013    15.994914619570
         O            0.138088606664     1.298371715467    -0.147526089987    15.994914619570
         C           -0.112515693336     0.065380715467     0.052454910013    12.000000000000
         H            1.779368306664    -0.155680284533     0.052588910013     1.007825032230

  Basis Set: AUG-CC-PVTZ
    Blend: AUG-CC-PVTZ
  Basis Set: (AUG-CC-PVTZ AUX)
    Blend: AUG-CC-PVTZ-JKFIT
	 Reference Energy          =    -263.1956442452124634 [Eh]
	 Singles Energy            =      -0.0000000000000000 [Eh]
	 Same-Spin Energy          =      -0.2499466008034197 [Eh]
	 Opposite-Spin Energy      =      -0.7072565776048104 [Eh]
	 Correlation Energy        =      -0.9572031784082302 [Eh]
	 Total Energy              =    -264.1528474236206989 [Eh]

	 ================> DF-SCS-MP2 Energies <==================
	-----------------------------------------------------------
	 SCS Same-Spin Scale       =       0.3333333333333333 [-]
	 SCS Opposite-Spin Scale   =       1.2000000000000000 [-]
	 SCS Same-Spin Energy      =      -0.0833155336011399 [Eh]
	 SCS Opposite-Spin Energy  =      -0.8487078931257724 [Eh]
	 SCS Correlation Energy    =      -0.9320234267269123 [Eh]
	 SCS Total Energy          =    -264.1276676719393777 [Eh]
	-----------------------------------------------------------

  Dipole Moment: [D]
     X:     2.7067      Y:    -0.4627      Z:     0.2291     Total:     2.7555

*** Psi4 exiting successfully. Buy a developer a beer!
