                               Psi4 1.4a3.dev225

  ==> Input File <==

--------------------------------------------------------------------------
#psi4
#
memory 32 gb

molecule  {
1 1
  N       -1.4549350    -0.0063160    -0.3913190
  C        0.7700580    -0.6819900     0.3309590
  C        0.8387740     0.6929140    -0.3473660
  C       -0.5772670    -1.2354140    -0.1320620
  C       -0.5771770     1.2100060    -0.1498930
  C        1.9243020    -1.6239510     0.0114420
  C        1.8934400     1.6361940     0.2164580
  C       -2.7287170     0.0116090     0.3933420
  H        0.7287260    -0.5174670     1.4168530
  H        1.0195210     0.5454130    -1.4226110
  H       -1.6841100    -0.0084958    -1.2892424
  H       -0.4895840    -1.7781730    -1.0771710
  H       -1.0806180    -1.8736500     0.5969550
  H       -0.7401010     1.5214000     0.8863980
  H       -0.8919120     2.0130950    -0.8209550
  H        2.8677010    -1.2131930     0.3775700
  H        1.7829480    -2.5983540     0.4871410
  H        2.0117000    -1.7770280    -1.0688530
  H        2.8946680     1.2288240     0.0607940
  H        1.8539810     2.6122500    -0.2745750
  H        1.7463830     1.7834510     1.2910380
  H       -2.4748400    -0.0372670     1.4518960
  H       -3.2625880     0.9370400     0.1753330
  H       -3.3330800    -0.8496000     0.1082720
units angstrom
no_reorient  #important for SAPT in psi4, default
symmetry c1  #important for SAPT in psi4, default
}

set PROPERTIES_ORIGIN ["COM"]
properties('MP2/aug-cc-pvtz', properties = ['dipole'])
--------------------------------------------------------------------------

    Molecular point group: c1
  Charge       = 1
  Multiplicity = 1
  Basis Set: AUG-CC-PVTZ
    Blend: AUG-CC-PVTZ
  Basis Set: (AUG-CC-PVTZ AUX)
    Blend: AUG-CC-PVTZ-JKFIT

    Orbital Energies [Eh]
    ---------------------

    Doubly Occupied:

       1A    -15.843343     2A    -11.449778     3A    -11.447059
       4A    -11.446470     5A    -11.391467     6A    -11.390725
       7A    -11.353212     8A    -11.352844     9A     -1.504466
      10A     -1.275117    11A     -1.194025    12A     -1.145269
      13A     -1.095584    14A     -1.080092    15A     -0.991892
      16A     -0.940958    17A     -0.911243    18A     -0.846536
      19A     -0.824198    20A     -0.787245    21A     -0.764254
      22A     -0.756942    23A     -0.737358    24A     -0.717345
      25A     -0.702652    26A     -0.700336    27A     -0.676765
      28A     -0.663830    29A     -0.648051    30A     -0.629102
      31A     -0.623585    32A     -0.603492

  @DF-RHF Final Energy:  -328.74897431603176

   => Energetics <=

    Nuclear Repulsion Energy =            425.1482334245796437
    One-Electron Energy =               -1274.8039412212995103
    Two-Electron Energy =                 520.9067334806881036
    Total Energy =                       -328.7489743160317630
  Basis Set: (AUG-CC-PVTZ AUX)
    Blend: AUG-CC-PVTZ-RI
    Molecular point group: c1

    Geometry (in Angstrom), charge = 1, multiplicity = 1:

       Center              X                  Y                   Z               Mass
    ------------   -----------------  -----------------  -----------------  -----------------
         N           -1.447080792715    -0.006422247141    -0.385192272447    14.003074004430
         C            0.777912207285    -0.682096247141     0.337085727553    12.000000000000
         C            0.846628207285     0.692807752859    -0.341239272447    12.000000000000
         C           -0.569412792715    -1.235520247141    -0.125935272447    12.000000000000
         C           -0.569322792715     1.209899752859    -0.143766272447    12.000000000000
         C            1.932156207285    -1.624057247141     0.017568727553    12.000000000000
         C            1.901294207285     1.636087752859     0.222584727553    12.000000000000
         C           -2.720862792715     0.011502752859     0.399468727553    12.000000000000
         H            0.736580207285    -0.517573247141     1.422979727553     1.007825032230
         H            1.027375207285     0.545306752859    -1.416484272447     1.007825032230
         H           -1.676255792715    -0.008602047141    -1.283115672447     1.007825032230
         H           -0.481729792715    -1.778279247141    -1.071044272447     1.007825032230
         H           -1.072763792715    -1.873756247141     0.603081727553     1.007825032230
         H           -0.732246792715     1.521293752859     0.892524727553     1.007825032230
         H           -0.884057792715     2.012988752859    -0.814828272447     1.007825032230
         H            2.875555207285    -1.213299247141     0.383696727553     1.007825032230
         H            1.790802207285    -2.598460247141     0.493267727553     1.007825032230
         H            2.019554207285    -1.777134247141    -1.062726272447     1.007825032230
         H            2.902522207285     1.228717752859     0.066920727553     1.007825032230
         H            1.861835207285     2.612143752859    -0.268448272447     1.007825032230
         H            1.754237207285     1.783344752859     1.297164727553     1.007825032230
         H           -2.466985792715    -0.037373247141     1.458022727553     1.007825032230
         H           -3.254733792715     0.936933752859     0.181459727553     1.007825032230
         H           -3.325225792715    -0.849706247141     0.114398727553     1.007825032230

  Basis Set: AUG-CC-PVTZ
    Blend: AUG-CC-PVTZ
  Basis Set: (AUG-CC-PVTZ AUX)
    Blend: AUG-CC-PVTZ-JKFIT
	 Reference Energy          =    -328.7489743160317630 [Eh]
	 Singles Energy            =      -0.0000000000000000 [Eh]
	 Same-Spin Energy          =      -0.3471021157315372 [Eh]
	 Opposite-Spin Energy      =      -1.2479012267798701 [Eh]
	 Correlation Energy        =      -1.5950033425114074 [Eh]
	 Total Energy              =    -330.3439776585431673 [Eh]

	 ================> DF-SCS-MP2 Energies <==================
	-----------------------------------------------------------
	 SCS Same-Spin Scale       =       0.3333333333333333 [-]
	 SCS Opposite-Spin Scale   =       1.2000000000000000 [-]
	 SCS Same-Spin Energy      =      -0.1157007052438457 [Eh]
	 SCS Opposite-Spin Energy  =      -1.4974814721358440 [Eh]
	 SCS Correlation Energy    =      -1.6131821773796897 [Eh]
	 SCS Total Energy          =    -330.3621564934114758 [Eh]
	-----------------------------------------------------------

  Dipole Moment: [D]
     X:    -4.3157      Y:     0.0019      Z:    -0.7599     Total:     4.3821

*** Psi4 exiting successfully. Buy a developer a beer!
