                               Psi4 1.4a3.dev225

  ==> Input File <==

--------------------------------------------------------------------------
#psi4
#
memory 32 gb

molecule  {
1 1
  N       -1.4549350    -0.0063160    -0.3913190
  C        0.7700580    -0.6819900     0.3309590
  C        0.8387740     0.6929140    -0.3473660
  C       -0.5772670    -1.2354140    -0.1320620
  C       -0.6237453     1.2270123    -0.1433984
  C        1.9243020    -1.6239510     0.0114420
  C        1.8934400     1.6361940     0.2164580
  C       -2.7287170     0.0116090     0.3933420
  H        0.7287260    -0.5174670     1.4168530
  H        1.0195210     0.5454130    -1.4226110
  H       -1.7088400    -0.0087310    -1.3861360
  H       -0.4895840    -1.7781730    -1.0771710
  H       -1.0806180    -1.8736500     0.5969550
  H       -0.7401010     1.5214000     0.8863980
  H       -0.8919120     2.0130950    -0.8209550
  H        2.8677010    -1.2131930     0.3775700
  H        1.7829480    -2.5983540     0.4871410
  H        2.0117000    -1.7770280    -1.0688530
  H        2.8946680     1.2288240     0.0607940
  H        1.8539810     2.6122500    -0.2745750
  H        1.7463830     1.7834510     1.2910380
  H       -2.4748400    -0.0372670     1.4518960
  H       -3.2625880     0.9370400     0.1753330
  H       -3.3330800    -0.8496000     0.1082720
units angstrom
no_reorient  #important for SAPT in psi4, default
symmetry c1  #important for SAPT in psi4, default
}

set PROPERTIES_ORIGIN ["COM"]
properties('MP2/aug-cc-pvtz', properties = ['dipole'])
--------------------------------------------------------------------------

    Molecular point group: c1
  Charge       = 1
  Multiplicity = 1
  Basis Set: AUG-CC-PVTZ
    Blend: AUG-CC-PVTZ
  Basis Set: (AUG-CC-PVTZ AUX)
    Blend: AUG-CC-PVTZ-JKFIT

    Orbital Energies [Eh]
    ---------------------

    Doubly Occupied:

       1A    -15.853369     2A    -11.448852     3A    -11.446840
       4A    -11.443015     5A    -11.393156     6A    -11.389991
       7A    -11.352520     8A    -11.351795     9A     -1.491291
      10A     -1.267631    11A     -1.191350    12A     -1.142576
      13A     -1.096365    14A     -1.065207    15A     -0.988048
      16A     -0.937490    17A     -0.905350    18A     -0.844743
      19A     -0.821863    20A     -0.788713    21A     -0.762901
      22A     -0.754111    23A     -0.733878    24A     -0.717795
      25A     -0.705283    26A     -0.698759    27A     -0.676169
      28A     -0.660932    29A     -0.648149    30A     -0.625743
      31A     -0.618334    32A     -0.601397

  @DF-RHF Final Energy:  -328.75248015342424

   => Energetics <=

    Nuclear Repulsion Energy =            423.9728314512266820
    One-Electron Energy =               -1272.6033925193041796
    Two-Electron Energy =                 519.8780809146531965
    Total Energy =                       -328.7524801534242442
  Basis Set: (AUG-CC-PVTZ AUX)
    Blend: AUG-CC-PVTZ-RI
    Molecular point group: c1

    Geometry (in Angstrom), charge = 1, multiplicity = 1:

       Center              X                  Y                   Z               Mass
    ------------   -----------------  -----------------  -----------------  -----------------
         N           -1.441965994340    -0.008208294993    -0.385019514245    14.003074004430
         C            0.783027005660    -0.683882294993     0.337258485755    12.000000000000
         C            0.851743005660     0.691021705007    -0.341066514245    12.000000000000
         C           -0.564297994340    -1.237306294993    -0.125762514245    12.000000000000
         C           -0.610776294340     1.225120005007    -0.137098914245    12.000000000000
         C            1.937271005660    -1.625843294993     0.017741485755    12.000000000000
         C            1.906409005660     1.634301705007     0.222757485755    12.000000000000
         C           -2.715747994340     0.009716705007     0.399641485755    12.000000000000
         H            0.741695005660    -0.519359294993     1.423152485755     1.007825032230
         H            1.032490005660     0.543520705007    -1.416311514245     1.007825032230
         H           -1.695870994340    -0.010623294993    -1.379836514245     1.007825032230
         H           -0.476614994340    -1.780065294993    -1.070871514245     1.007825032230
         H           -1.067648994340    -1.875542294993     0.603254485755     1.007825032230
         H           -0.727131994340     1.519507705007     0.892697485755     1.007825032230
         H           -0.878942994340     2.011202705007    -0.814655514245     1.007825032230
         H            2.880670005660    -1.215085294993     0.383869485755     1.007825032230
         H            1.795917005660    -2.600246294993     0.493440485755     1.007825032230
         H            2.024669005660    -1.778920294993    -1.062553514245     1.007825032230
         H            2.907637005660     1.226931705007     0.067093485755     1.007825032230
         H            1.866950005660     2.610357705007    -0.268275514245     1.007825032230
         H            1.759352005660     1.781558705007     1.297337485755     1.007825032230
         H           -2.461870994340    -0.039159294993     1.458195485755     1.007825032230
         H           -3.249618994340     0.935147705007     0.181632485755     1.007825032230
         H           -3.320110994340    -0.851492294993     0.114571485755     1.007825032230

  Basis Set: AUG-CC-PVTZ
    Blend: AUG-CC-PVTZ
  Basis Set: (AUG-CC-PVTZ AUX)
    Blend: AUG-CC-PVTZ-JKFIT
	 Reference Energy          =    -328.7524801534242442 [Eh]
	 Singles Energy            =      -0.0000000000000000 [Eh]
	 Same-Spin Energy          =      -0.3475329380536428 [Eh]
	 Opposite-Spin Energy      =      -1.2497123210280583 [Eh]
	 Correlation Energy        =      -1.5972452590817010 [Eh]
	 Total Energy              =    -330.3497254125059612 [Eh]

	 ================> DF-SCS-MP2 Energies <==================
	-----------------------------------------------------------
	 SCS Same-Spin Scale       =       0.3333333333333333 [-]
	 SCS Opposite-Spin Scale   =       1.2000000000000000 [-]
	 SCS Same-Spin Energy      =      -0.1158443126845476 [Eh]
	 SCS Opposite-Spin Energy  =      -1.4996547852336699 [Eh]
	 SCS Correlation Energy    =      -1.6154990979182176 [Eh]
	 SCS Total Energy          =    -330.3679792513424900 [Eh]
	-----------------------------------------------------------

  Dipole Moment: [D]
     X:    -4.3648      Y:    -0.0184      Z:    -0.8761     Total:     4.4519

*** Psi4 exiting successfully. Buy a developer a beer!
