                               Psi4 1.4a3.dev225

  ==> Input File <==

--------------------------------------------------------------------------
#psi4
#
memory 32 gb

molecule  {
1 1
  N       -1.4549350    -0.0063160    -0.3913190
  C        0.7700580    -0.6819900     0.3309590
  C        0.8387740     0.6929140    -0.3473660
  C       -0.5772670    -1.2354140    -0.1320620
  C       -0.5771770     1.2100060    -0.1498930
  C        1.9243020    -1.6239510     0.0114420
  C        1.8934400     1.6361940     0.2164580
  C       -2.7287170     0.0116090     0.3933420
  H        0.7287260    -0.5174670     1.4168530
  H        1.0195210     0.5454130    -1.4226110
  H       -1.7088400    -0.0087310    -1.3861360
  H       -0.4895840    -1.7781730    -1.0771710
  H       -1.0806180    -1.8736500     0.5969550
  H       -0.7401010     1.5214000     0.8863980
  H       -0.8919120     2.0130950    -0.8209550
  H        2.8677010    -1.2131930     0.3775700
  H        1.7829480    -2.5983540     0.4871410
  H        2.0117000    -1.7770280    -1.0688530
  H        2.8946680     1.2288240     0.0607940
  H        1.8423604     2.6433620    -0.2058680
  H        1.7463830     1.7834510     1.2910380
  H       -2.4748400    -0.0372670     1.4518960
  H       -3.2625880     0.9370400     0.1753330
  H       -3.3330800    -0.8496000     0.1082720
units angstrom
no_reorient  #important for SAPT in psi4, default
symmetry c1  #important for SAPT in psi4, default
}

set PROPERTIES_ORIGIN ["COM"]
properties('MP2/aug-cc-pvtz', properties = ['dipole'])
--------------------------------------------------------------------------

    Molecular point group: c1
  Charge       = 1
  Multiplicity = 1
  Basis Set: AUG-CC-PVTZ
    Blend: AUG-CC-PVTZ
  Basis Set: (AUG-CC-PVTZ AUX)
    Blend: AUG-CC-PVTZ-JKFIT

    Orbital Energies [Eh]
    ---------------------

    Doubly Occupied:

       1A    -15.852216     2A    -11.449063     3A    -11.446369
       4A    -11.445768     5A    -11.391370     6A    -11.390491
       7A    -11.352626     8A    -11.352605     9A     -1.489514
      10A     -1.272148    11A     -1.193173    12A     -1.142643
      13A     -1.094722    14A     -1.065526    15A     -0.987726
      16A     -0.939859    17A     -0.903498    18A     -0.844896
      19A     -0.822177    20A     -0.786021    21A     -0.763276
      22A     -0.755500    23A     -0.735930    24A     -0.714816
      25A     -0.699803    26A     -0.697193    27A     -0.677379
      28A     -0.663007    29A     -0.646088    30A     -0.628431
      31A     -0.623656    32A     -0.603036

  @DF-RHF Final Energy:  -328.75369671886511

   => Energetics <=

    Nuclear Repulsion Energy =            424.4531443189972606
    One-Electron Energy =               -1273.5526293157477085
    Two-Electron Energy =                 520.3457882778852763
    Total Energy =                       -328.7536967188651715
  Basis Set: (AUG-CC-PVTZ AUX)
    Blend: AUG-CC-PVTZ-RI
    Molecular point group: c1

    Geometry (in Angstrom), charge = 1, multiplicity = 1:

       Center              X                  Y                   Z               Mass
    ------------   -----------------  -----------------  -----------------  -----------------
         N           -1.446759793867    -0.006694908864    -0.384943366896    14.003074004430
         C            0.778233206133    -0.682368908864     0.337334633104    12.000000000000
         C            0.846949206133     0.692535091136    -0.340990366896    12.000000000000
         C           -0.569091793867    -1.235792908864    -0.125686366896    12.000000000000
         C           -0.569001793867     1.209627091136    -0.143517366896    12.000000000000
         C            1.932477206133    -1.624329908864     0.017817633104    12.000000000000
         C            1.901615206133     1.635815091136     0.222833633104    12.000000000000
         C           -2.720541793867     0.011230091136     0.399717633104    12.000000000000
         H            0.736901206133    -0.517845908864     1.423228633104     1.007825032230
         H            1.027696206133     0.545034091136    -1.416235366896     1.007825032230
         H           -1.700664793867    -0.009109908864    -1.379760366896     1.007825032230
         H           -0.481408793867    -1.778551908864    -1.070795366896     1.007825032230
         H           -1.072442793867    -1.874028908864     0.603330633104     1.007825032230
         H           -0.731925793867     1.521021091136     0.892773633104     1.007825032230
         H           -0.883736793867     2.012716091136    -0.814579366896     1.007825032230
         H            2.875876206133    -1.213571908864     0.383945633104     1.007825032230
         H            1.791123206133    -2.598732908864     0.493516633104     1.007825032230
         H            2.019875206133    -1.777406908864    -1.062477366896     1.007825032230
         H            2.902843206133     1.228445091136     0.067169633104     1.007825032230
         H            1.850535606133     2.642983091136    -0.199492366896     1.007825032230
         H            1.754558206133     1.783072091136     1.297413633104     1.007825032230
         H           -2.466664793867    -0.037645908864     1.458271633104     1.007825032230
         H           -3.254412793867     0.936661091136     0.181708633104     1.007825032230
         H           -3.324904793867    -0.849978908864     0.114647633104     1.007825032230

  Basis Set: AUG-CC-PVTZ
    Blend: AUG-CC-PVTZ
  Basis Set: (AUG-CC-PVTZ AUX)
    Blend: AUG-CC-PVTZ-JKFIT
	 Reference Energy          =    -328.7536967188651147 [Eh]
	 Singles Energy            =      -0.0000000000000000 [Eh]
	 Same-Spin Energy          =      -0.3478142000517955 [Eh]
	 Opposite-Spin Energy      =      -1.2498591920651452 [Eh]
	 Correlation Energy        =      -1.5976733921169406 [Eh]
	 Total Energy              =    -330.3513701109820317 [Eh]

	 ================> DF-SCS-MP2 Energies <==================
	-----------------------------------------------------------
	 SCS Same-Spin Scale       =       0.3333333333333333 [-]
	 SCS Opposite-Spin Scale   =       1.2000000000000000 [-]
	 SCS Same-Spin Energy      =      -0.1159380666839318 [Eh]
	 SCS Opposite-Spin Energy  =      -1.4998310304781741 [Eh]
	 SCS Correlation Energy    =      -1.6157690971621059 [Eh]
	 SCS Total Energy          =    -330.3694658160272297 [Eh]
	-----------------------------------------------------------

  Dipole Moment: [D]
     X:    -4.3703      Y:     0.0073      Z:    -0.8472     Total:     4.4517

*** Psi4 exiting successfully. Buy a developer a beer!
