                               Psi4 1.4a3.dev225

  ==> Input File <==

--------------------------------------------------------------------------
#psi4
#
memory 32 gb

molecule  {
1 1
  N       -1.4549350    -0.0063160    -0.3913190
  C        0.7700580    -0.6819900     0.3309590
  C        0.8387740     0.6929140    -0.3473660
  C       -0.5772670    -1.2354140    -0.1320620
  C       -0.5771770     1.2100060    -0.1498930
  C        1.9243020    -1.6239510     0.0114420
  C        1.8934400     1.6361940     0.2164580
  C       -2.7287170     0.0116090     0.3933420
  H        0.7287260    -0.5174670     1.4168530
  H        1.0195210     0.5454130    -1.4226110
  H       -1.7088400    -0.0087310    -1.3861360
  H       -0.4895840    -1.7781730    -1.0771710
  H       -1.0806180    -1.8736500     0.5969550
  H       -0.7401010     1.5214000     0.8863980
  H       -0.8919120     2.0130950    -0.8209550
  H        2.8677010    -1.2131930     0.3775700
  H        1.7829480    -2.5983540     0.4871410
  H        2.0117000    -1.7770280    -1.0688530
  H        2.9863488     1.1915218     0.0465401
  H        1.8539810     2.6122500    -0.2745750
  H        1.7463830     1.7834510     1.2910380
  H       -2.4748400    -0.0372670     1.4518960
  H       -3.2625880     0.9370400     0.1753330
  H       -3.3330800    -0.8496000     0.1082720
units angstrom
no_reorient  #important for SAPT in psi4, default
symmetry c1  #important for SAPT in psi4, default
}

set PROPERTIES_ORIGIN ["COM"]
properties('MP2/aug-cc-pvtz', properties = ['dipole'])
--------------------------------------------------------------------------

    Molecular point group: c1
  Charge       = 1
  Multiplicity = 1
  Basis Set: AUG-CC-PVTZ
    Blend: AUG-CC-PVTZ
  Basis Set: (AUG-CC-PVTZ AUX)
    Blend: AUG-CC-PVTZ-JKFIT

    Orbital Energies [Eh]
    ---------------------

    Doubly Occupied:

       1A    -15.852570     2A    -11.449301     3A    -11.446378
       4A    -11.446338     5A    -11.391645     6A    -11.390362
       7A    -11.363911     8A    -11.352158     9A     -1.489820
      10A     -1.272024    11A     -1.193140    12A     -1.142101
      13A     -1.091977    14A     -1.063500    15A     -0.985855
      16A     -0.938718    17A     -0.903491    18A     -0.843630
      19A     -0.822248    20A     -0.786598    21A     -0.762522
      22A     -0.755049    23A     -0.732452    24A     -0.715810
      25A     -0.700710    26A     -0.696976    27A     -0.673953
      28A     -0.657919    29A     -0.647377    30A     -0.625416
      31A     -0.618673    32A     -0.602496

  @DF-RHF Final Energy:  -328.74750961785776

   => Energetics <=

    Nuclear Repulsion Energy =            424.0806262889372533
    One-Electron Energy =               -1272.8260363019790020
    Two-Electron Energy =                 519.9979003951839331
    Total Energy =                       -328.7475096178577587
  Basis Set: (AUG-CC-PVTZ AUX)
    Blend: AUG-CC-PVTZ-RI
    Molecular point group: c1

    Geometry (in Angstrom), charge = 1, multiplicity = 1:

       Center              X                  Y                   Z               Mass
    ------------   -----------------  -----------------  -----------------  -----------------
         N           -1.447672010732    -0.006090768097    -0.384210769544    14.003074004430
         C            0.777320989268    -0.681764768097     0.338067230456    12.000000000000
         C            0.846036989268     0.693139231903    -0.340257769544    12.000000000000
         C           -0.570004010732    -1.235188768097    -0.124953769544    12.000000000000
         C           -0.569914010732     1.210231231903    -0.142784769544    12.000000000000
         C            1.931564989268    -1.623725768097     0.018550230456    12.000000000000
         C            1.900702989268     1.636419231903     0.223566230456    12.000000000000
         C           -2.721454010732     0.011834231903     0.400450230456    12.000000000000
         H            0.735988989268    -0.517241768097     1.423961230456     1.007825032230
         H            1.026783989268     0.545638231903    -1.415502769544     1.007825032230
         H           -1.701577010732    -0.008505768097    -1.379027769544     1.007825032230
         H           -0.482321010732    -1.777947768097    -1.070062769544     1.007825032230
         H           -1.073355010732    -1.873424768097     0.604063230456     1.007825032230
         H           -0.732838010732     1.521625231903     0.893506230456     1.007825032230
         H           -0.884649010732     2.013320231903    -0.813846769544     1.007825032230
         H            2.874963989268    -1.212967768097     0.384678230456     1.007825032230
         H            1.790210989268    -2.598128768097     0.494249230456     1.007825032230
         H            2.018962989268    -1.776802768097    -1.061744769544     1.007825032230
         H            2.993611789268     1.191747031903     0.053648330456     1.007825032230
         H            1.861243989268     2.612475231903    -0.267466769544     1.007825032230
         H            1.753645989268     1.783676231903     1.298146230456     1.007825032230
         H           -2.467577010732    -0.037041768097     1.459004230456     1.007825032230
         H           -3.255325010732     0.937265231903     0.182441230456     1.007825032230
         H           -3.325817010732    -0.849374768097     0.115380230456     1.007825032230

  Basis Set: AUG-CC-PVTZ
    Blend: AUG-CC-PVTZ
  Basis Set: (AUG-CC-PVTZ AUX)
    Blend: AUG-CC-PVTZ-JKFIT
	 Reference Energy          =    -328.7475096178577587 [Eh]
	 Singles Energy            =      -0.0000000000000000 [Eh]
	 Same-Spin Energy          =      -0.3478714363812830 [Eh]
	 Opposite-Spin Energy      =      -1.2506695670386434 [Eh]
	 Correlation Energy        =      -1.5985410034199266 [Eh]
	 Total Energy              =    -330.3460506212776977 [Eh]

	 ================> DF-SCS-MP2 Energies <==================
	-----------------------------------------------------------
	 SCS Same-Spin Scale       =       0.3333333333333333 [-]
	 SCS Opposite-Spin Scale   =       1.2000000000000000 [-]
	 SCS Same-Spin Energy      =      -0.1159571454604277 [Eh]
	 SCS Opposite-Spin Energy  =      -1.5008034804463721 [Eh]
	 SCS Correlation Energy    =      -1.6167606259067997 [Eh]
	 SCS Total Energy          =    -330.3642702437645653 [Eh]
	-----------------------------------------------------------

  Dipole Moment: [D]
     X:    -4.3931      Y:     0.0065      Z:    -0.8652     Total:     4.4775

*** Psi4 exiting successfully. Buy a developer a beer!
