                               Psi4 1.4a3.dev225

  ==> Input File <==

--------------------------------------------------------------------------
#psi4
#
memory 32 gb

molecule  {
1 1
  N       -1.4549350    -0.0063160    -0.3913190
  C        0.7700580    -0.6819900     0.3309590
  C        0.8378785     0.6749961    -0.3385260
  C       -0.5772670    -1.2354140    -0.1320620
  C       -0.5771770     1.2100060    -0.1498930
  C        1.9243020    -1.6239510     0.0114420
  C        1.8934400     1.6361940     0.2164580
  C       -2.7287170     0.0116090     0.3933420
  H        0.7287260    -0.5174670     1.4168530
  H        1.0195210     0.5454130    -1.4226110
  H       -1.7088400    -0.0087310    -1.3861360
  H       -0.4895840    -1.7781730    -1.0771710
  H       -1.0806180    -1.8736500     0.5969550
  H       -0.7401010     1.5214000     0.8863980
  H       -0.8919120     2.0130950    -0.8209550
  H        2.8677010    -1.2131930     0.3775700
  H        1.7829480    -2.5983540     0.4871410
  H        2.0117000    -1.7770280    -1.0688530
  H        2.8946680     1.2288240     0.0607940
  H        1.8539810     2.6122500    -0.2745750
  H        1.7463830     1.7834510     1.2910380
  H       -2.4748400    -0.0372670     1.4518960
  H       -3.2625880     0.9370400     0.1753330
  H       -3.3330800    -0.8496000     0.1082720
units angstrom
no_reorient  #important for SAPT in psi4, default
symmetry c1  #important for SAPT in psi4, default
}

set PROPERTIES_ORIGIN ["COM"]
properties('MP2/aug-cc-pvtz', properties = ['dipole'])
--------------------------------------------------------------------------

    Molecular point group: c1
  Charge       = 1
  Multiplicity = 1
  Basis Set: AUG-CC-PVTZ
    Blend: AUG-CC-PVTZ
  Basis Set: (AUG-CC-PVTZ AUX)
    Blend: AUG-CC-PVTZ-JKFIT

    Orbital Energies [Eh]
    ---------------------

    Doubly Occupied:

       1A    -15.851918     2A    -11.448876     3A    -11.446324
       4A    -11.445698     5A    -11.391016     6A    -11.389630
       7A    -11.353190     8A    -11.352720     9A     -1.489532
      10A     -1.273942    11A     -1.192293    12A     -1.142626
      13A     -1.094055    14A     -1.065493    15A     -0.989348
      16A     -0.938872    17A     -0.903322    18A     -0.844804
      19A     -0.821514    20A     -0.786365    21A     -0.763758
      22A     -0.755340    23A     -0.735249    24A     -0.715313
      25A     -0.700783    26A     -0.697274    27A     -0.676363
      28A     -0.662704    29A     -0.646692    30A     -0.626506
      31A     -0.620740    32A     -0.608206

  @DF-RHF Final Energy:  -328.75373480966226

   => Energetics <=

    Nuclear Repulsion Energy =            424.6786035970184798
    One-Electron Energy =               -1274.0037485445684524
    Two-Electron Energy =                 520.5714101378875966
    Total Energy =                       -328.7537348096623191
  Basis Set: (AUG-CC-PVTZ AUX)
    Blend: AUG-CC-PVTZ-RI
    Molecular point group: c1

    Geometry (in Angstrom), charge = 1, multiplicity = 1:

       Center              X                  Y                   Z               Mass
    ------------   -----------------  -----------------  -----------------  -----------------
         N           -1.446768253923    -0.004536195316    -0.385266120970    14.003074004430
         C            0.778224746077    -0.680210195316     0.337011879030    12.000000000000
         C            0.846045246077     0.676775904684    -0.332473120970    12.000000000000
         C           -0.569100253923    -1.233634195316    -0.126009120970    12.000000000000
         C           -0.569010253923     1.211785804684    -0.143840120970    12.000000000000
         C            1.932468746077    -1.622171195316     0.017494879030    12.000000000000
         C            1.901606746077     1.637973804684     0.222510879030    12.000000000000
         C           -2.720550253923     0.013388804684     0.399394879030    12.000000000000
         H            0.736892746077    -0.515687195316     1.422905879030     1.007825032230
         H            1.027687746077     0.547192804684    -1.416558120970     1.007825032230
         H           -1.700673253923    -0.006951195316    -1.380083120970     1.007825032230
         H           -0.481417253923    -1.776393195316    -1.071118120970     1.007825032230
         H           -1.072451253923    -1.871870195316     0.603007879030     1.007825032230
         H           -0.731934253923     1.523179804684     0.892450879030     1.007825032230
         H           -0.883745253923     2.014874804684    -0.814902120970     1.007825032230
         H            2.875867746077    -1.211413195316     0.383622879030     1.007825032230
         H            1.791114746077    -2.596574195316     0.493193879030     1.007825032230
         H            2.019866746077    -1.775248195316    -1.062800120970     1.007825032230
         H            2.902834746077     1.230603804684     0.066846879030     1.007825032230
         H            1.862147746077     2.614029804684    -0.268522120970     1.007825032230
         H            1.754549746077     1.785230804684     1.297090879030     1.007825032230
         H           -2.466673253923    -0.035487195316     1.457948879030     1.007825032230
         H           -3.254421253923     0.938819804684     0.181385879030     1.007825032230
         H           -3.324913253923    -0.847820195316     0.114324879030     1.007825032230

  Basis Set: AUG-CC-PVTZ
    Blend: AUG-CC-PVTZ
  Basis Set: (AUG-CC-PVTZ AUX)
    Blend: AUG-CC-PVTZ-JKFIT
	 Reference Energy          =    -328.7537348096622623 [Eh]
	 Singles Energy            =      -0.0000000000000000 [Eh]
	 Same-Spin Energy          =      -0.3478631974452941 [Eh]
	 Opposite-Spin Energy      =      -1.2499370722455971 [Eh]
	 Correlation Energy        =      -1.5978002696908913 [Eh]
	 Total Energy              =    -330.3515350793531411 [Eh]

	 ================> DF-SCS-MP2 Energies <==================
	-----------------------------------------------------------
	 SCS Same-Spin Scale       =       0.3333333333333333 [-]
	 SCS Opposite-Spin Scale   =       1.2000000000000000 [-]
	 SCS Same-Spin Energy      =      -0.1159543991484314 [Eh]
	 SCS Opposite-Spin Energy  =      -1.4999244866947166 [Eh]
	 SCS Correlation Energy    =      -1.6158788858431479 [Eh]
	 SCS Total Energy          =    -330.3696136955053930 [Eh]
	-----------------------------------------------------------

  Dipole Moment: [D]
     X:    -4.3563      Y:     0.0068      Z:    -0.8690     Total:     4.4421

*** Psi4 exiting successfully. Buy a developer a beer!
