                               Psi4 1.4a3.dev225

  ==> Input File <==

--------------------------------------------------------------------------
#psi4
#
memory 32 gb

molecule  {
1 1
  N       -1.4549350    -0.0063160    -0.3913190
  C        0.7700580    -0.6819900     0.3309590
  C        0.8387740     0.6929140    -0.3473660
  C       -0.5772670    -1.2354140    -0.1320620
  C       -0.5771770     1.2100060    -0.1498930
  C        1.9243020    -1.6239510     0.0114420
  C        1.8934400     1.6361940     0.2164580
  C       -2.7287170     0.0116090     0.3933420
  H        0.7287260    -0.5174670     1.4168530
  H        1.0195210     0.5454130    -1.4226110
  H       -1.7088400    -0.0087310    -1.3861360
  H       -0.4895840    -1.7781730    -1.0771710
  H       -1.0806180    -1.8736500     0.5969550
  H       -0.7401010     1.5214000     0.8863980
  H       -0.8919120     2.0130950    -0.8209550
  H        2.8677010    -1.2131930     0.3775700
  H        1.7829480    -2.5983540     0.4871410
  H        2.0117000    -1.7770280    -1.0688530
  H        2.8946680     1.2288240     0.0607940
  H        1.8481431     2.6284104    -0.2404998
  H        1.7463830     1.7834510     1.2910380
  H       -2.4748400    -0.0372670     1.4518960
  H       -3.2625880     0.9370400     0.1753330
  H       -3.3330800    -0.8496000     0.1082720
units angstrom
no_reorient  #important for SAPT in psi4, default
symmetry c1  #important for SAPT in psi4, default
}

set PROPERTIES_ORIGIN ["COM"]
properties('MP2/aug-cc-pvtz', properties = ['dipole'])
--------------------------------------------------------------------------

    Molecular point group: c1
  Charge       = 1
  Multiplicity = 1
  Basis Set: AUG-CC-PVTZ
    Blend: AUG-CC-PVTZ
  Basis Set: (AUG-CC-PVTZ AUX)
    Blend: AUG-CC-PVTZ-JKFIT

    Orbital Energies [Eh]
    ---------------------

    Doubly Occupied:

       1A    -15.852179     2A    -11.449035     3A    -11.446285
       4A    -11.445715     5A    -11.391137     6A    -11.390331
       7A    -11.352699     8A    -11.352561     9A     -1.489473
      10A     -1.272113    11A     -1.193161    12A     -1.142632
      13A     -1.094749    14A     -1.065499    15A     -0.987464
      16A     -0.939706    17A     -0.903408    18A     -0.844823
      19A     -0.822091    20A     -0.786174    21A     -0.763239
      22A     -0.755189    23A     -0.735614    24A     -0.715080
      25A     -0.700354    26A     -0.697234    27A     -0.676926
      28A     -0.662988    29A     -0.646804    30A     -0.628407
      31A     -0.623299    32A     -0.603112

  @DF-RHF Final Energy:  -328.75409372122220

   => Energetics <=

    Nuclear Repulsion Energy =            424.4694773761052602
    One-Electron Energy =               -1273.5881819062399245
    Two-Electron Energy =                 520.3646108089125164
    Total Energy =                       -328.7540937212221479
  Basis Set: (AUG-CC-PVTZ AUX)
    Blend: AUG-CC-PVTZ-RI
    Molecular point group: c1

    Geometry (in Angstrom), charge = 1, multiplicity = 1:

       Center              X                  Y                   Z               Mass
    ------------   -----------------  -----------------  -----------------  -----------------
         N           -1.446810858775    -0.006562876755    -0.384637546143    14.003074004430
         C            0.778182141225    -0.682236876755     0.337640453857    12.000000000000
         C            0.846898141225     0.692667123245    -0.340684546143    12.000000000000
         C           -0.569142858775    -1.235660876755    -0.125380546143    12.000000000000
         C           -0.569052858775     1.209759123245    -0.143211546143    12.000000000000
         C            1.932426141225    -1.624197876755     0.018123453857    12.000000000000
         C            1.901564141225     1.635947123245     0.223139453857    12.000000000000
         C           -2.720592858775     0.011362123245     0.400023453857    12.000000000000
         H            0.736850141225    -0.517713876755     1.423534453857     1.007825032230
         H            1.027645141225     0.545166123245    -1.415929546143     1.007825032230
         H           -1.700715858775    -0.008977876755    -1.379454546143     1.007825032230
         H           -0.481459858775    -1.778419876755    -1.070489546143     1.007825032230
         H           -1.072493858775    -1.873896876755     0.603636453857     1.007825032230
         H           -0.731976858775     1.521153123245     0.893079453857     1.007825032230
         H           -0.883787858775     2.012848123245    -0.814273546143     1.007825032230
         H            2.875825141225    -1.213439876755     0.384251453857     1.007825032230
         H            1.791072141225    -2.598600876755     0.493822453857     1.007825032230
         H            2.019824141225    -1.777274876755    -1.062171546143     1.007825032230
         H            2.902792141225     1.228577123245     0.067475453857     1.007825032230
         H            1.856267241225     2.628163523245    -0.233818346143     1.007825032230
         H            1.754507141225     1.783204123245     1.297719453857     1.007825032230
         H           -2.466715858775    -0.037513876755     1.458577453857     1.007825032230
         H           -3.254463858775     0.936793123245     0.182014453857     1.007825032230
         H           -3.324955858775    -0.849846876755     0.114953453857     1.007825032230

  Basis Set: AUG-CC-PVTZ
    Blend: AUG-CC-PVTZ
  Basis Set: (AUG-CC-PVTZ AUX)
    Blend: AUG-CC-PVTZ-JKFIT
	 Reference Energy          =    -328.7540937212222047 [Eh]
	 Singles Energy            =      -0.0000000000000000 [Eh]
	 Same-Spin Energy          =      -0.3478022219704472 [Eh]
	 Opposite-Spin Energy      =      -1.2498517133470295 [Eh]
	 Correlation Energy        =      -1.5976539353174766 [Eh]
	 Total Energy              =    -330.3517476565396578 [Eh]

	 ================> DF-SCS-MP2 Energies <==================
	-----------------------------------------------------------
	 SCS Same-Spin Scale       =       0.3333333333333333 [-]
	 SCS Opposite-Spin Scale   =       1.2000000000000000 [-]
	 SCS Same-Spin Energy      =      -0.1159340739901491 [Eh]
	 SCS Opposite-Spin Energy  =      -1.4998220560164353 [Eh]
	 SCS Correlation Energy    =      -1.6157561300065844 [Eh]
	 SCS Total Energy          =    -330.3698498512287642 [Eh]
	-----------------------------------------------------------

  Dipole Moment: [D]
     X:    -4.3633      Y:     0.0043      Z:    -0.8573     Total:     4.4467

*** Psi4 exiting successfully. Buy a developer a beer!
