                               Psi4 1.4a3.dev225

  ==> Input File <==

--------------------------------------------------------------------------
#psi4
#
memory 32 gb

molecule  {
1 1
  N       -1.4549350    -0.0063160    -0.3913190
  C        0.7700580    -0.6819900     0.3309590
  C        0.8387740     0.6929140    -0.3473660
  C       -0.5772670    -1.2354140    -0.1320620
  C       -0.5771770     1.2100060    -0.1498930
  C        1.9243020    -1.6239510     0.0114420
  C        1.8821945     1.6340518     0.2404506
  C       -2.7287170     0.0116090     0.3933420
  H        0.7287260    -0.5174670     1.4168530
  H        1.0195210     0.5454130    -1.4226110
  H       -1.7088400    -0.0087310    -1.3861360
  H       -0.4895840    -1.7781730    -1.0771710
  H       -1.0806180    -1.8736500     0.5969550
  H       -0.7401010     1.5214000     0.8863980
  H       -0.8919120     2.0130950    -0.8209550
  H        2.8677010    -1.2131930     0.3775700
  H        1.7829480    -2.5983540     0.4871410
  H        2.0117000    -1.7770280    -1.0688530
  H        2.8946680     1.2288240     0.0607940
  H        1.8539810     2.6122500    -0.2745750
  H        1.7463830     1.7834510     1.2910380
  H       -2.4748400    -0.0372670     1.4518960
  H       -3.2625880     0.9370400     0.1753330
  H       -3.3330800    -0.8496000     0.1082720
units angstrom
no_reorient  #important for SAPT in psi4, default
symmetry c1  #important for SAPT in psi4, default
}

set PROPERTIES_ORIGIN ["COM"]
properties('MP2/aug-cc-pvtz', properties = ['dipole'])
--------------------------------------------------------------------------

    Molecular point group: c1
  Charge       = 1
  Multiplicity = 1
  Basis Set: AUG-CC-PVTZ
    Blend: AUG-CC-PVTZ
  Basis Set: (AUG-CC-PVTZ AUX)
    Blend: AUG-CC-PVTZ-JKFIT

    Orbital Energies [Eh]
    ---------------------

    Doubly Occupied:

       1A    -15.851959     2A    -11.448933     3A    -11.446047
       4A    -11.445456     5A    -11.390967     6A    -11.390020
       7A    -11.352786     8A    -11.352398     9A     -1.489325
      10A     -1.272232    11A     -1.193170    12A     -1.142558
      13A     -1.094560    14A     -1.065221    15A     -0.987327
      16A     -0.939909    17A     -0.903295    18A     -0.844496
      19A     -0.822337    20A     -0.786370    21A     -0.763009
      22A     -0.754481    23A     -0.734057    24A     -0.716033
      25A     -0.703813    26A     -0.697243    27A     -0.672996
      28A     -0.661363    29A     -0.651902    30A     -0.626889
      31A     -0.624025    32A     -0.601441

  @DF-RHF Final Energy:  -328.75335260253331

   => Energetics <=

    Nuclear Repulsion Energy =            424.5740931268961162
    One-Electron Energy =               -1273.8016587504894233
    Two-Electron Energy =                 520.4742130210601090
    Total Energy =                       -328.7533526025332549
  Basis Set: (AUG-CC-PVTZ AUX)
    Blend: AUG-CC-PVTZ-RI
    Molecular point group: c1

    Geometry (in Angstrom), charge = 1, multiplicity = 1:

       Center              X                  Y                   Z               Mass
    ------------   -----------------  -----------------  -----------------  -----------------
         N           -1.445680004753    -0.006194928884    -0.386859338784    14.003074004430
         C            0.779312995247    -0.681868928884     0.335418661216    12.000000000000
         C            0.848028995247     0.693035071116    -0.342906338784    12.000000000000
         C           -0.568012004753    -1.235292928884    -0.127602338784    12.000000000000
         C           -0.567922004753     1.210127071116    -0.145433338784    12.000000000000
         C            1.933556995247    -1.623829928884     0.015901661216    12.000000000000
         C            1.891449495247     1.634172871116     0.244910261216    12.000000000000
         C           -2.719462004753     0.011730071116     0.397801661216    12.000000000000
         H            0.737980995247    -0.517345928884     1.421312661216     1.007825032230
         H            1.028775995247     0.545534071116    -1.418151338784     1.007825032230
         H           -1.699585004753    -0.008609928884    -1.381676338784     1.007825032230
         H           -0.480329004753    -1.778051928884    -1.072711338784     1.007825032230
         H           -1.071363004753    -1.873528928884     0.601414661216     1.007825032230
         H           -0.730846004753     1.521521071116     0.890857661216     1.007825032230
         H           -0.882657004753     2.013216071116    -0.816495338784     1.007825032230
         H            2.876955995247    -1.213071928884     0.382029661216     1.007825032230
         H            1.792202995247    -2.598232928884     0.491600661216     1.007825032230
         H            2.020954995247    -1.776906928884    -1.064393338784     1.007825032230
         H            2.903922995247     1.228945071116     0.065253661216     1.007825032230
         H            1.863235995247     2.612371071116    -0.270115338784     1.007825032230
         H            1.755637995247     1.783572071116     1.295497661216     1.007825032230
         H           -2.465585004753    -0.037145928884     1.456355661216     1.007825032230
         H           -3.253333004753     0.937161071116     0.179792661216     1.007825032230
         H           -3.323825004753    -0.849478928884     0.112731661216     1.007825032230

  Basis Set: AUG-CC-PVTZ
    Blend: AUG-CC-PVTZ
  Basis Set: (AUG-CC-PVTZ AUX)
    Blend: AUG-CC-PVTZ-JKFIT
	 Reference Energy          =    -328.7533526025333117 [Eh]
	 Singles Energy            =      -0.0000000000000000 [Eh]
	 Same-Spin Energy          =      -0.3478467316671704 [Eh]
	 Opposite-Spin Energy      =      -1.2499562910634250 [Eh]
	 Correlation Energy        =      -1.5978030227305955 [Eh]
	 Total Energy              =    -330.3511556252639139 [Eh]

	 ================> DF-SCS-MP2 Energies <==================
	-----------------------------------------------------------
	 SCS Same-Spin Scale       =       0.3333333333333333 [-]
	 SCS Opposite-Spin Scale   =       1.2000000000000000 [-]
	 SCS Same-Spin Energy      =      -0.1159489105557235 [Eh]
	 SCS Opposite-Spin Energy  =      -1.4999475492761098 [Eh]
	 SCS Correlation Energy    =      -1.6158964598318333 [Eh]
	 SCS Total Energy          =    -330.3692490623651565 [Eh]
	-----------------------------------------------------------

  Dipole Moment: [D]
     X:    -4.3490      Y:     0.0033      Z:    -0.8713     Total:     4.4354

*** Psi4 exiting successfully. Buy a developer a beer!
