                               Psi4 1.4a3.dev225

  ==> Input File <==

--------------------------------------------------------------------------
#psi4
#
memory 32 gb

molecule  {
1 1
  N       -1.4549350    -0.0063160    -0.3913190
  C        0.7700580    -0.6819900     0.3309590
  C        0.8387740     0.6929140    -0.3473660
  C       -0.5772670    -1.2354140    -0.1320620
  C       -0.5771770     1.2100060    -0.1498930
  C        1.9243020    -1.6239510     0.0114420
  C        1.8934400     1.6361940     0.2164580
  C       -2.7287170     0.0116090     0.3933420
  H        0.7306063    -0.5249517     1.3674522
  H        1.0195210     0.5454130    -1.4226110
  H       -1.7088400    -0.0087310    -1.3861360
  H       -0.4895840    -1.7781730    -1.0771710
  H       -1.0806180    -1.8736500     0.5969550
  H       -0.7401010     1.5214000     0.8863980
  H       -0.8919120     2.0130950    -0.8209550
  H        2.8677010    -1.2131930     0.3775700
  H        1.7829480    -2.5983540     0.4871410
  H        2.0117000    -1.7770280    -1.0688530
  H        2.8946680     1.2288240     0.0607940
  H        1.8539810     2.6122500    -0.2745750
  H        1.7463830     1.7834510     1.2910380
  H       -2.4748400    -0.0372670     1.4518960
  H       -3.2625880     0.9370400     0.1753330
  H       -3.3330800    -0.8496000     0.1082720
units angstrom
no_reorient  #important for SAPT in psi4, default
symmetry c1  #important for SAPT in psi4, default
}

set PROPERTIES_ORIGIN ["COM"]
properties('MP2/aug-cc-pvtz', properties = ['dipole'])
--------------------------------------------------------------------------

    Molecular point group: c1
  Charge       = 1
  Multiplicity = 1
  Basis Set: AUG-CC-PVTZ
    Blend: AUG-CC-PVTZ
  Basis Set: (AUG-CC-PVTZ AUX)
    Blend: AUG-CC-PVTZ-JKFIT

    Orbital Energies [Eh]
    ---------------------

    Doubly Occupied:

       1A    -15.852071     2A    -11.449035     3A    -11.445823
       4A    -11.445688     5A    -11.390367     6A    -11.384249
       7A    -11.352841     8A    -11.352049     9A     -1.489408
      10A     -1.273291    11A     -1.193576    12A     -1.142810
      13A     -1.094892    14A     -1.065457    15A     -0.987821
      16A     -0.943888    17A     -0.904366    18A     -0.845965
      19A     -0.822230    20A     -0.787317    21A     -0.763261
      22A     -0.755295    23A     -0.735235    24A     -0.715845
      25A     -0.701234    26A     -0.697466    27A     -0.676249
      28A     -0.662714    29A     -0.648956    30A     -0.629243
      31A     -0.625124    32A     -0.602958

  @DF-RHF Final Energy:  -328.75340353401054

   => Energetics <=

    Nuclear Repulsion Energy =            424.7519623416301329
    One-Electron Energy =               -1274.1372840220228682
    Two-Electron Energy =                 520.6319181463821906
    Total Energy =                       -328.7534035340105447
  Basis Set: (AUG-CC-PVTZ AUX)
    Blend: AUG-CC-PVTZ-RI
    Molecular point group: c1

    Geometry (in Angstrom), charge = 1, multiplicity = 1:

       Center              X                  Y                   Z               Mass
    ------------   -----------------  -----------------  -----------------  -----------------
         N           -1.446879015375    -0.006354075529    -0.383900400131    14.003074004430
         C            0.778113984625    -0.682028075529     0.338377599869    12.000000000000
         C            0.846829984625     0.692875924471    -0.339947400131    12.000000000000
         C           -0.569211015375    -1.235452075529    -0.124643400131    12.000000000000
         C           -0.569121015375     1.209967924471    -0.142474400131    12.000000000000
         C            1.932357984625    -1.623989075529     0.018860599869    12.000000000000
         C            1.901495984625     1.636155924471     0.223876599869    12.000000000000
         C           -2.720661015375     0.011570924471     0.400760599869    12.000000000000
         H            0.738662284625    -0.524989775529     1.374870799869     1.007825032230
         H            1.027576984625     0.545374924471    -1.415192400131     1.007825032230
         H           -1.700784015375    -0.008769075529    -1.378717400131     1.007825032230
         H           -0.481528015375    -1.778211075529    -1.069752400131     1.007825032230
         H           -1.072562015375    -1.873688075529     0.604373599869     1.007825032230
         H           -0.732045015375     1.521361924471     0.893816599869     1.007825032230
         H           -0.883856015375     2.013056924471    -0.813536400131     1.007825032230
         H            2.875756984625    -1.213231075529     0.384988599869     1.007825032230
         H            1.791003984625    -2.598392075529     0.494559599869     1.007825032230
         H            2.019755984625    -1.777066075529    -1.061434400131     1.007825032230
         H            2.902723984625     1.228785924471     0.068212599869     1.007825032230
         H            1.862036984625     2.612211924471    -0.267156400131     1.007825032230
         H            1.754438984625     1.783412924471     1.298456599869     1.007825032230
         H           -2.466784015375    -0.037305075529     1.459314599869     1.007825032230
         H           -3.254532015375     0.937001924471     0.182751599869     1.007825032230
         H           -3.325024015375    -0.849638075529     0.115690599869     1.007825032230

  Basis Set: AUG-CC-PVTZ
    Blend: AUG-CC-PVTZ
  Basis Set: (AUG-CC-PVTZ AUX)
    Blend: AUG-CC-PVTZ-JKFIT
	 Reference Energy          =    -328.7534035340105447 [Eh]
	 Singles Energy            =      -0.0000000000000000 [Eh]
	 Same-Spin Energy          =      -0.3477414139397683 [Eh]
	 Opposite-Spin Energy      =      -1.2495105040474486 [Eh]
	 Correlation Energy        =      -1.5972519179872169 [Eh]
	 Total Energy              =    -330.3506554519977385 [Eh]

	 ================> DF-SCS-MP2 Energies <==================
	-----------------------------------------------------------
	 SCS Same-Spin Scale       =       0.3333333333333333 [-]
	 SCS Opposite-Spin Scale   =       1.2000000000000000 [-]
	 SCS Same-Spin Energy      =      -0.1159138046465894 [Eh]
	 SCS Opposite-Spin Energy  =      -1.4994126048569383 [Eh]
	 SCS Correlation Energy    =      -1.6153264095035278 [Eh]
	 SCS Total Energy          =    -330.3687299435140972 [Eh]
	-----------------------------------------------------------

  Dipole Moment: [D]
     X:    -4.3627      Y:     0.0086      Z:    -0.8477     Total:     4.4443

*** Psi4 exiting successfully. Buy a developer a beer!
