                               Psi4 1.4a3.dev225

  ==> Input File <==

--------------------------------------------------------------------------
#psi4
#
memory 32 gb

molecule  {
1 1
  N       -1.4549350    -0.0063160    -0.3913190
  C        0.7700580    -0.6819900     0.3309590
  C        0.8387740     0.6929140    -0.3473660
  C       -0.5772670    -1.2354140    -0.1320620
  C       -0.5771770     1.2100060    -0.1498930
  C        1.9243020    -1.6239510     0.0114420
  C        1.8934400     1.6361940     0.2164580
  C       -2.7287170     0.0116090     0.3933420
  H        0.7287260    -0.5174670     1.4168530
  H        1.0195210     0.5454130    -1.4226110
  H       -1.7088400    -0.0087310    -1.3861360
  H       -0.4895840    -1.7781730    -1.0771710
  H       -1.0806180    -1.8736500     0.5969550
  H       -0.7401010     1.5214000     0.8863980
  H       -0.8919120     2.0130950    -0.8209550
  H        2.8677010    -1.2131930     0.3775700
  H        1.7829480    -2.5983540     0.4871410
  H        2.0117000    -1.7770280    -1.0688530
  H        2.8763318     1.2362844     0.0636448
  H        1.8539810     2.6122500    -0.2745750
  H        1.7463830     1.7834510     1.2910380
  H       -2.4748400    -0.0372670     1.4518960
  H       -3.2625880     0.9370400     0.1753330
  H       -3.3330800    -0.8496000     0.1082720
units angstrom
no_reorient  #important for SAPT in psi4, default
symmetry c1  #important for SAPT in psi4, default
}

set PROPERTIES_ORIGIN ["COM"]
properties('MP2/aug-cc-pvtz', properties = ['dipole'])
--------------------------------------------------------------------------

    Molecular point group: c1
  Charge       = 1
  Multiplicity = 1
  Basis Set: AUG-CC-PVTZ
    Blend: AUG-CC-PVTZ
  Basis Set: (AUG-CC-PVTZ AUX)
    Blend: AUG-CC-PVTZ-JKFIT

    Orbital Energies [Eh]
    ---------------------

    Doubly Occupied:

       1A    -15.852069     2A    -11.448958     3A    -11.446169
       4A    -11.445555     5A    -11.390803     6A    -11.390115
       7A    -11.352552     8A    -11.350486     9A     -1.489366
      10A     -1.272126    11A     -1.193198    12A     -1.142794
      13A     -1.095562    14A     -1.065926    15A     -0.987557
      16A     -0.939772    17A     -0.903300    18A     -0.845056
      19A     -0.821994    20A     -0.786311    21A     -0.763419
      22A     -0.754874    23A     -0.736022    24A     -0.715342
      25A     -0.701299    26A     -0.697336    27A     -0.677162
      28A     -0.663835    29A     -0.647392    30A     -0.629247
      31A     -0.623149    32A     -0.602997

  @DF-RHF Final Energy:  -328.75425180905887

   => Energetics <=

    Nuclear Repulsion Energy =            424.5745894672743930
    One-Electron Energy =               -1273.7942014822092460
    Two-Electron Energy =                 520.4653602058760953
    Total Energy =                       -328.7542518090588146
  Basis Set: (AUG-CC-PVTZ AUX)
    Blend: AUG-CC-PVTZ-RI
    Molecular point group: c1

    Geometry (in Angstrom), charge = 1, multiplicity = 1:

       Center              X                  Y                   Z               Mass
    ------------   -----------------  -----------------  -----------------  -----------------
         N           -1.446700490861    -0.006486050239    -0.384361814891    14.003074004430
         C            0.778292509139    -0.682160050239     0.337916185109    12.000000000000
         C            0.847008509139     0.692743949761    -0.340408814891    12.000000000000
         C           -0.569032490861    -1.235584050239    -0.125104814891    12.000000000000
         C           -0.568942490861     1.209835949761    -0.142935814891    12.000000000000
         C            1.932536509139    -1.624121050239     0.018399185109    12.000000000000
         C            1.901674509139     1.636023949761     0.223415185109    12.000000000000
         C           -2.720482490861     0.011438949761     0.400299185109    12.000000000000
         H            0.736960509139    -0.517637050239     1.423810185109     1.007825032230
         H            1.027755509139     0.545242949761    -1.415653814891     1.007825032230
         H           -1.700605490861    -0.008901050239    -1.379178814891     1.007825032230
         H           -0.481349490861    -1.778343050239    -1.070213814891     1.007825032230
         H           -1.072383490861    -1.873820050239     0.603912185109     1.007825032230
         H           -0.731866490861     1.521229949761     0.893355185109     1.007825032230
         H           -0.883677490861     2.012924949761    -0.813997814891     1.007825032230
         H            2.875935509139    -1.213363050239     0.384527185109     1.007825032230
         H            1.791182509139    -2.598524050239     0.494098185109     1.007825032230
         H            2.019934509139    -1.777198050239    -1.061895814891     1.007825032230
         H            2.884566309139     1.236114349761     0.070601985109     1.007825032230
         H            1.862215509139     2.612079949761    -0.267617814891     1.007825032230
         H            1.754617509139     1.783280949761     1.297995185109     1.007825032230
         H           -2.466605490861    -0.037437050239     1.458853185109     1.007825032230
         H           -3.254353490861     0.936869949761     0.182290185109     1.007825032230
         H           -3.324845490861    -0.849770050239     0.115229185109     1.007825032230

  Basis Set: AUG-CC-PVTZ
    Blend: AUG-CC-PVTZ
  Basis Set: (AUG-CC-PVTZ AUX)
    Blend: AUG-CC-PVTZ-JKFIT
	 Reference Energy          =    -328.7542518090588715 [Eh]
	 Singles Energy            =      -0.0000000000000000 [Eh]
	 Same-Spin Energy          =      -0.3477932185925233 [Eh]
	 Opposite-Spin Energy      =      -1.2497298280505793 [Eh]
	 Correlation Energy        =      -1.5975230466431025 [Eh]
	 Total Energy              =    -330.3517748557019900 [Eh]

	 ================> DF-SCS-MP2 Energies <==================
	-----------------------------------------------------------
	 SCS Same-Spin Scale       =       0.3333333333333333 [-]
	 SCS Opposite-Spin Scale   =       1.2000000000000000 [-]
	 SCS Same-Spin Energy      =      -0.1159310728641744 [Eh]
	 SCS Opposite-Spin Energy  =      -1.4996757936606950 [Eh]
	 SCS Correlation Energy    =      -1.6156068665248695 [Eh]
	 SCS Total Energy          =    -330.3698586755837141 [Eh]
	-----------------------------------------------------------

  Dipole Moment: [D]
     X:    -4.3501      Y:     0.0002      Z:    -0.8668     Total:     4.4356

*** Psi4 exiting successfully. Buy a developer a beer!
