                               Psi4 1.4a3.dev225

  ==> Input File <==

--------------------------------------------------------------------------
#psi4
#
memory 32 gb

molecule  {
1 1
  N       -1.4549350    -0.0063160    -0.3913190
  C        0.7700580    -0.6819900     0.3309590
  C        0.8387740     0.6929140    -0.3473660
  C       -0.5772670    -1.2354140    -0.1320620
  C       -0.5771770     1.2100060    -0.1498930
  C        1.9243020    -1.6239510     0.0114420
  C        1.8934400     1.6361940     0.2164580
  C       -2.7287170     0.0116090     0.3933420
  H        0.7287260    -0.5174670     1.4168530
  H        1.0195210     0.5454130    -1.4226110
  H       -1.7088400    -0.0087310    -1.3861360
  H       -0.4895840    -1.7781730    -1.0771710
  H       -1.0806180    -1.8736500     0.5969550
  H       -0.7401010     1.5214000     0.8863980
  H       -0.8919120     2.0130950    -0.8209550
  H        2.8677010    -1.2131930     0.3775700
  H        1.7829480    -2.5983540     0.4871410
  H        2.0101031    -1.7742310    -1.0491140
  H        2.8946680     1.2288240     0.0607940
  H        1.8539810     2.6122500    -0.2745750
  H        1.7463830     1.7834510     1.2910380
  H       -2.4748400    -0.0372670     1.4518960
  H       -3.2625880     0.9370400     0.1753330
  H       -3.3330800    -0.8496000     0.1082720
units angstrom
no_reorient  #important for SAPT in psi4, default
symmetry c1  #important for SAPT in psi4, default
}

set PROPERTIES_ORIGIN ["COM"]
properties('MP2/aug-cc-pvtz', properties = ['dipole'])
--------------------------------------------------------------------------

    Molecular point group: c1
  Charge       = 1
  Multiplicity = 1
  Basis Set: AUG-CC-PVTZ
    Blend: AUG-CC-PVTZ
  Basis Set: (AUG-CC-PVTZ AUX)
    Blend: AUG-CC-PVTZ-JKFIT

    Orbital Energies [Eh]
    ---------------------

    Doubly Occupied:

       1A    -15.852136     2A    -11.448998     3A    -11.446198
       4A    -11.445657     5A    -11.390873     6A    -11.389994
       7A    -11.352780     8A    -11.350070     9A     -1.489423
      10A     -1.272137    11A     -1.193284    12A     -1.142758
      13A     -1.095405    14A     -1.065974    15A     -0.987507
      16A     -0.939912    17A     -0.903584    18A     -0.844793
      19A     -0.822011    20A     -0.786456    21A     -0.763156
      22A     -0.755051    23A     -0.735240    24A     -0.715711
      25A     -0.701784    26A     -0.698375    27A     -0.676202
      28A     -0.663024    29A     -0.648409    30A     -0.628519
      31A     -0.623244    32A     -0.602987

  @DF-RHF Final Energy:  -328.75422608310151

   => Energetics <=

    Nuclear Repulsion Energy =            424.5731771896037685
    One-Electron Energy =               -1273.7915103897214522
    Two-Electron Energy =                 520.4641071170162832
    Total Energy =                       -328.7542260831014573
  Basis Set: (AUG-CC-PVTZ AUX)
    Blend: AUG-CC-PVTZ-RI
    Molecular point group: c1

    Geometry (in Angstrom), charge = 1, multiplicity = 1:

       Center              X                  Y                   Z               Mass
    ------------   -----------------  -----------------  -----------------  -----------------
         N           -1.446848309494    -0.006444869460    -0.384510948406    14.003074004430
         C            0.778144690506    -0.682118869460     0.337767051594    12.000000000000
         C            0.846860690506     0.692785130540    -0.340557948406    12.000000000000
         C           -0.569180309494    -1.235542869460    -0.125253948406    12.000000000000
         C           -0.569090309494     1.209877130540    -0.143084948406    12.000000000000
         C            1.932388690506    -1.624079869460     0.018250051594    12.000000000000
         C            1.901526690506     1.636065130540     0.223266051594    12.000000000000
         C           -2.720630309494     0.011480130540     0.400150051594    12.000000000000
         H            0.736812690506    -0.517595869460     1.423661051594     1.007825032230
         H            1.027607690506     0.545284130540    -1.415802948406     1.007825032230
         H           -1.700753309494    -0.008859869460    -1.379327948406     1.007825032230
         H           -0.481497309494    -1.778301869460    -1.070362948406     1.007825032230
         H           -1.072531309494    -1.873778869460     0.603763051594     1.007825032230
         H           -0.732014309494     1.521271130540     0.893206051594     1.007825032230
         H           -0.883825309494     2.012966130540    -0.814146948406     1.007825032230
         H            2.875787690506    -1.213321869460     0.384378051594     1.007825032230
         H            1.791034690506    -2.598482869460     0.493949051594     1.007825032230
         H            2.018189790506    -1.774359869460    -1.042305948406     1.007825032230
         H            2.902754690506     1.228695130540     0.067602051594     1.007825032230
         H            1.862067690506     2.612121130540    -0.267766948406     1.007825032230
         H            1.754469690506     1.783322130540     1.297846051594     1.007825032230
         H           -2.466753309494    -0.037395869460     1.458704051594     1.007825032230
         H           -3.254501309494     0.936911130540     0.182141051594     1.007825032230
         H           -3.324993309494    -0.849728869460     0.115080051594     1.007825032230

  Basis Set: AUG-CC-PVTZ
    Blend: AUG-CC-PVTZ
  Basis Set: (AUG-CC-PVTZ AUX)
    Blend: AUG-CC-PVTZ-JKFIT
	 Reference Energy          =    -328.7542260831015142 [Eh]
	 Singles Energy            =      -0.0000000000000000 [Eh]
	 Same-Spin Energy          =      -0.3478022593780706 [Eh]
	 Opposite-Spin Energy      =      -1.2497447207581731 [Eh]
	 Correlation Energy        =      -1.5975469801362436 [Eh]
	 Total Energy              =    -330.3517730632377720 [Eh]

	 ================> DF-SCS-MP2 Energies <==================
	-----------------------------------------------------------
	 SCS Same-Spin Scale       =       0.3333333333333333 [-]
	 SCS Opposite-Spin Scale   =       1.2000000000000000 [-]
	 SCS Same-Spin Energy      =      -0.1159340864593569 [Eh]
	 SCS Opposite-Spin Energy  =      -1.4996936649098076 [Eh]
	 SCS Correlation Energy    =      -1.6156277513691644 [Eh]
	 SCS Total Energy          =    -330.3698538344706890 [Eh]
	-----------------------------------------------------------

  Dipole Moment: [D]
     X:    -4.3556      Y:    -0.0007      Z:    -0.8746     Total:     4.4425

*** Psi4 exiting successfully. Buy a developer a beer!
