                               Psi4 1.4a3.dev225

  ==> Input File <==

--------------------------------------------------------------------------
#psi4
#
memory 32 gb

molecule  {
1 1
  N       -1.4549350    -0.0063160    -0.3913190
  C        0.7700580    -0.6819900     0.3309590
  C        0.8387740     0.6929140    -0.3473660
  C       -0.5772670    -1.2354140    -0.1320620
  C       -0.5771770     1.2100060    -0.1498930
  C        1.9243020    -1.6239510     0.0114420
  C        1.8934400     1.6361940     0.2164580
  C       -2.7287170     0.0116090     0.3933420
  H        0.7287260    -0.5174670     1.4168530
  H        1.0195210     0.5454130    -1.4226110
  H       -1.7088400    -0.0087310    -1.3861360
  H       -0.4895840    -1.7781730    -1.0771710
  H       -1.0806180    -1.8736500     0.5969550
  H       -0.7475455     1.5356285     0.9337491
  H       -0.8919120     2.0130950    -0.8209550
  H        2.8677010    -1.2131930     0.3775700
  H        1.7829480    -2.5983540     0.4871410
  H        2.0117000    -1.7770280    -1.0688530
  H        2.8946680     1.2288240     0.0607940
  H        1.8539810     2.6122500    -0.2745750
  H        1.7463830     1.7834510     1.2910380
  H       -2.4748400    -0.0372670     1.4518960
  H       -3.2625880     0.9370400     0.1753330
  H       -3.3330800    -0.8496000     0.1082720
units angstrom
no_reorient  #important for SAPT in psi4, default
symmetry c1  #important for SAPT in psi4, default
}

set PROPERTIES_ORIGIN ["COM"]
properties('MP2/aug-cc-pvtz', properties = ['dipole'])
--------------------------------------------------------------------------

    Molecular point group: c1
  Charge       = 1
  Multiplicity = 1
  Basis Set: AUG-CC-PVTZ
    Blend: AUG-CC-PVTZ
  Basis Set: (AUG-CC-PVTZ AUX)
    Blend: AUG-CC-PVTZ-JKFIT

    Orbital Energies [Eh]
    ---------------------

    Doubly Occupied:

       1A    -15.852511     2A    -11.451005     3A    -11.448903
       4A    -11.446268     5A    -11.391223     6A    -11.390214
       7A    -11.352783     8A    -11.352500     9A     -1.489382
      10A     -1.271902    11A     -1.191739    12A     -1.142562
      13A     -1.093936    14A     -1.064418    15A     -0.984925
      16A     -0.939540    17A     -0.903375    18A     -0.843620
      19A     -0.821868    20A     -0.782609    21A     -0.762777
      22A     -0.754884    23A     -0.735307    24A     -0.715434
      25A     -0.699323    26A     -0.693984    27A     -0.676353
      28A     -0.663045    29A     -0.646669    30A     -0.628478
      31A     -0.622942    32A     -0.603065

  @DF-RHF Final Energy:  -328.75188587239444

   => Energetics <=

    Nuclear Repulsion Energy =            424.2467625838602885
    One-Electron Energy =               -1273.1622056710536981
    Two-Electron Energy =                 520.1635572147988569
    Total Energy =                       -328.7518858723944959
  Basis Set: (AUG-CC-PVTZ AUX)
    Blend: AUG-CC-PVTZ-RI
    Molecular point group: c1

    Geometry (in Angstrom), charge = 1, multiplicity = 1:

       Center              X                  Y                   Z               Mass
    ------------   -----------------  -----------------  -----------------  -----------------
         N           -1.446796671478    -0.006545816853    -0.384754780758    14.003074004430
         C            0.778196328522    -0.682219816853     0.337523219242    12.000000000000
         C            0.846912328522     0.692684183147    -0.340801780758    12.000000000000
         C           -0.569128671478    -1.235643816853    -0.125497780758    12.000000000000
         C           -0.569038671478     1.209776183147    -0.143328780758    12.000000000000
         C            1.932440328522    -1.624180816853     0.018006219242    12.000000000000
         C            1.901578328522     1.635964183147     0.223022219242    12.000000000000
         C           -2.720578671478     0.011379183147     0.399906219242    12.000000000000
         H            0.736864328522    -0.517696816853     1.423417219242     1.007825032230
         H            1.027659328522     0.545183183147    -1.416046780758     1.007825032230
         H           -1.700701671478    -0.008960816853    -1.379571780758     1.007825032230
         H           -0.481445671478    -1.778402816853    -1.070606780758     1.007825032230
         H           -1.072479671478    -1.873879816853     0.603519219242     1.007825032230
         H           -0.739407171478     1.535398683147     0.940313319242     1.007825032230
         H           -0.883773671478     2.012865183147    -0.814390780758     1.007825032230
         H            2.875839328522    -1.213422816853     0.384134219242     1.007825032230
         H            1.791086328522    -2.598583816853     0.493705219242     1.007825032230
         H            2.019838328522    -1.777257816853    -1.062288780758     1.007825032230
         H            2.902806328522     1.228594183147     0.067358219242     1.007825032230
         H            1.862119328522     2.612020183147    -0.268010780758     1.007825032230
         H            1.754521328522     1.783221183147     1.297602219242     1.007825032230
         H           -2.466701671478    -0.037496816853     1.458460219242     1.007825032230
         H           -3.254449671478     0.936810183147     0.181897219242     1.007825032230
         H           -3.324941671478    -0.849829816853     0.114836219242     1.007825032230

  Basis Set: AUG-CC-PVTZ
    Blend: AUG-CC-PVTZ
  Basis Set: (AUG-CC-PVTZ AUX)
    Blend: AUG-CC-PVTZ-JKFIT
	 Reference Energy          =    -328.7518858723944390 [Eh]
	 Singles Energy            =      -0.0000000000000000 [Eh]
	 Same-Spin Energy          =      -0.3479320394565408 [Eh]
	 Opposite-Spin Energy      =      -1.2503247029690161 [Eh]
	 Correlation Energy        =      -1.5982567424255569 [Eh]
	 Total Energy              =    -330.3501426148200153 [Eh]

	 ================> DF-SCS-MP2 Energies <==================
	-----------------------------------------------------------
	 SCS Same-Spin Scale       =       0.3333333333333333 [-]
	 SCS Opposite-Spin Scale   =       1.2000000000000000 [-]
	 SCS Same-Spin Energy      =      -0.1159773464855136 [Eh]
	 SCS Opposite-Spin Energy  =      -1.5003896435628192 [Eh]
	 SCS Correlation Energy    =      -1.6163669900483328 [Eh]
	 SCS Total Energy          =    -330.3682528624427732 [Eh]
	-----------------------------------------------------------

  Dipole Moment: [D]
     X:    -4.3502      Y:    -0.0003      Z:    -0.8726     Total:     4.4369

*** Psi4 exiting successfully. Buy a developer a beer!
