                               Psi4 1.4a3.dev225

  ==> Input File <==

--------------------------------------------------------------------------
#psi4
#
memory 32 gb

molecule  {
1 1
  N       -1.4549350    -0.0063160    -0.3913190
  C        0.7700580    -0.6819900     0.3309590
  C        0.8387740     0.6929140    -0.3473660
  C       -0.7535744    -1.3078336    -0.1926517
  C       -0.5771770     1.2100060    -0.1498930
  C        1.9243020    -1.6239510     0.0114420
  C        1.8934400     1.6361940     0.2164580
  C       -2.7287170     0.0116090     0.3933420
  H        0.7287260    -0.5174670     1.4168530
  H        1.0195210     0.5454130    -1.4226110
  H       -1.7088400    -0.0087310    -1.3861360
  H       -0.4895840    -1.7781730    -1.0771710
  H       -1.0806180    -1.8736500     0.5969550
  H       -0.7401010     1.5214000     0.8863980
  H       -0.8919120     2.0130950    -0.8209550
  H        2.8677010    -1.2131930     0.3775700
  H        1.7829480    -2.5983540     0.4871410
  H        2.0117000    -1.7770280    -1.0688530
  H        2.8946680     1.2288240     0.0607940
  H        1.8539810     2.6122500    -0.2745750
  H        1.7463830     1.7834510     1.2910380
  H       -2.4748400    -0.0372670     1.4518960
  H       -3.2625880     0.9370400     0.1753330
  H       -3.3330800    -0.8496000     0.1082720
units angstrom
no_reorient  #important for SAPT in psi4, default
symmetry c1  #important for SAPT in psi4, default
}

set PROPERTIES_ORIGIN ["COM"]
properties('MP2/aug-cc-pvtz', properties = ['dipole'])
--------------------------------------------------------------------------

    Molecular point group: c1
  Charge       = 1
  Multiplicity = 1
  Basis Set: AUG-CC-PVTZ
    Blend: AUG-CC-PVTZ
  Basis Set: (AUG-CC-PVTZ AUX)
    Blend: AUG-CC-PVTZ-JKFIT

    Orbital Energies [Eh]
    ---------------------

    Doubly Occupied:

       1A    -15.856370     2A    -11.449342     3A    -11.447990
       4A    -11.437895     5A    -11.400054     6A    -11.390543
       7A    -11.353710     8A    -11.350416     9A     -1.495881
      10A     -1.261114    11A     -1.186479    12A     -1.143757
      13A     -1.100690    14A     -1.063200    15A     -0.989645
      16A     -0.939430    17A     -0.902417    18A     -0.846456
      19A     -0.828752    20A     -0.794110    21A     -0.768222
      22A     -0.746796    23A     -0.735694    24A     -0.725986
      25A     -0.706766    26A     -0.701249    27A     -0.675899
      28A     -0.658656    29A     -0.649599    30A     -0.623777
      31A     -0.608990    32A     -0.579968

  @DF-RHF Final Energy:  -328.72497933000517

   => Energetics <=

    Nuclear Repulsion Energy =            422.3835944408602927
    One-Electron Energy =               -1269.3774436193850761
    Two-Electron Energy =                 518.2688698485195573
    Total Energy =                       -328.7249793300052261
  Basis Set: (AUG-CC-PVTZ AUX)
    Blend: AUG-CC-PVTZ-RI
    Molecular point group: c1

    Geometry (in Angstrom), charge = 1, multiplicity = 1:

       Center              X                  Y                   Z               Mass
    ------------   -----------------  -----------------  -----------------  -----------------
         N           -1.428324596478     0.001194377609    -0.377965945764    14.003074004430
         C            0.796668403522    -0.674479622391     0.344312054236    12.000000000000
         C            0.865384403522     0.700424377609    -0.334012945764    12.000000000000
         C           -0.726963996478    -1.300323222391    -0.179298645764    12.000000000000
         C           -0.550566596478     1.217516377609    -0.136539945764    12.000000000000
         C            1.950912403522    -1.616440622391     0.024795054236    12.000000000000
         C            1.920050403522     1.643704377609     0.229811054236    12.000000000000
         C           -2.702106596478     0.019119377609     0.406695054236    12.000000000000
         H            0.755336403522    -0.509956622391     1.430206054236     1.007825032230
         H            1.046131403522     0.552923377609    -1.409257945764     1.007825032230
         H           -1.682229596478    -0.001220622391    -1.372782945764     1.007825032230
         H           -0.462973596478    -1.770662622391    -1.063817945764     1.007825032230
         H           -1.054007596478    -1.866139622391     0.610308054236     1.007825032230
         H           -0.713490596478     1.528910377609     0.899751054236     1.007825032230
         H           -0.865301596478     2.020605377609    -0.807601945764     1.007825032230
         H            2.894311403522    -1.205682622391     0.390923054236     1.007825032230
         H            1.809558403522    -2.590843622391     0.500494054236     1.007825032230
         H            2.038310403522    -1.769517622391    -1.055499945764     1.007825032230
         H            2.921278403522     1.236334377609     0.074147054236     1.007825032230
         H            1.880591403522     2.619760377609    -0.261221945764     1.007825032230
         H            1.772993403522     1.790961377609     1.304391054236     1.007825032230
         H           -2.448229596478    -0.029756622391     1.465249054236     1.007825032230
         H           -3.235977596478     0.944550377609     0.188686054236     1.007825032230
         H           -3.306469596478    -0.842089622391     0.121625054236     1.007825032230

  Basis Set: AUG-CC-PVTZ
    Blend: AUG-CC-PVTZ
  Basis Set: (AUG-CC-PVTZ AUX)
    Blend: AUG-CC-PVTZ-JKFIT
	 Reference Energy          =    -328.7249793300051692 [Eh]
	 Singles Energy            =      -0.0000000000000000 [Eh]
	 Same-Spin Energy          =      -0.3481189717576358 [Eh]
	 Opposite-Spin Energy      =      -1.2515050636902392 [Eh]
	 Correlation Energy        =      -1.5996240354478750 [Eh]
	 Total Energy              =    -330.3246033654530720 [Eh]

	 ================> DF-SCS-MP2 Energies <==================
	-----------------------------------------------------------
	 SCS Same-Spin Scale       =       0.3333333333333333 [-]
	 SCS Opposite-Spin Scale   =       1.2000000000000000 [-]
	 SCS Same-Spin Energy      =      -0.1160396572525453 [Eh]
	 SCS Opposite-Spin Energy  =      -1.5018060764282870 [Eh]
	 SCS Correlation Energy    =      -1.6178457336808323 [Eh]
	 SCS Total Energy          =    -330.3428250636860071 [Eh]
	-----------------------------------------------------------

  Dipole Moment: [D]
     X:    -4.2807      Y:     0.1303      Z:    -0.8462     Total:     4.3655

*** Psi4 exiting successfully. Buy a developer a beer!
