                               Psi4 1.4a3.dev225

  ==> Input File <==

--------------------------------------------------------------------------
#psi4
#
memory 32 gb

molecule  {
1 1
  N       -1.4549350    -0.0063160    -0.3913190
  C        0.7700580    -0.6819900     0.3309590
  C        0.8387740     0.6929140    -0.3473660
  C       -0.5772670    -1.2354140    -0.1320620
  C       -0.5771770     1.2100060    -0.1498930
  C        1.9243020    -1.6239510     0.0114420
  C        1.8934400     1.6361940     0.2164580
  C       -2.7553266     0.0116645     0.3484061
  H        0.7287260    -0.5174670     1.4168530
  H        1.0195210     0.5454130    -1.4226110
  H       -1.7088400    -0.0087310    -1.3861360
  H       -0.4895840    -1.7781730    -1.0771710
  H       -1.0806180    -1.8736500     0.5969550
  H       -0.7401010     1.5214000     0.8863980
  H       -0.8919120     2.0130950    -0.8209550
  H        2.8677010    -1.2131930     0.3775700
  H        1.7829480    -2.5983540     0.4871410
  H        2.0117000    -1.7770280    -1.0688530
  H        2.8946680     1.2288240     0.0607940
  H        1.8539810     2.6122500    -0.2745750
  H        1.7463830     1.7834510     1.2910380
  H       -2.4748400    -0.0372670     1.4518960
  H       -3.2625880     0.9370400     0.1753330
  H       -3.3330800    -0.8496000     0.1082720
units angstrom
no_reorient  #important for SAPT in psi4, default
symmetry c1  #important for SAPT in psi4, default
}

set PROPERTIES_ORIGIN ["COM"]
properties('MP2/aug-cc-pvtz', properties = ['dipole'])
--------------------------------------------------------------------------

    Molecular point group: c1
  Charge       = 1
  Multiplicity = 1
  Basis Set: AUG-CC-PVTZ
    Blend: AUG-CC-PVTZ
  Basis Set: (AUG-CC-PVTZ AUX)
    Blend: AUG-CC-PVTZ-JKFIT

    Orbital Energies [Eh]
    ---------------------

    Doubly Occupied:

       1A    -15.852199     2A    -11.449370     3A    -11.446570
       4A    -11.446038     5A    -11.391128     6A    -11.390327
       7A    -11.352921     8A    -11.352582     9A     -1.489384
      10A     -1.272647    11A     -1.193214    12A     -1.143087
      13A     -1.094856    14A     -1.064280    15A     -0.987334
      16A     -0.940048    17A     -0.903172    18A     -0.845905
      19A     -0.825005    20A     -0.786897    21A     -0.768233
      22A     -0.748465    23A     -0.728694    24A     -0.716990
      25A     -0.702303    26A     -0.695844    27A     -0.676441
      28A     -0.663899    29A     -0.647546    30A     -0.628891
      31A     -0.623098    32A     -0.603079

  @DF-RHF Final Energy:  -328.75116207195515

   => Energetics <=

    Nuclear Repulsion Energy =            424.2790961611244711
    One-Electron Energy =               -1273.1996233921636303
    Two-Electron Energy =                 520.1693651590840091
    Total Energy =                       -328.7511620719551502
  Basis Set: (AUG-CC-PVTZ AUX)
    Blend: AUG-CC-PVTZ-RI
    Molecular point group: c1

    Geometry (in Angstrom), charge = 1, multiplicity = 1:

       Center              X                  Y                   Z               Mass
    ------------   -----------------  -----------------  -----------------  -----------------
         N           -1.444064548804    -0.006426005715    -0.379611862175    14.003074004430
         C            0.780928451196    -0.682100005715     0.342666137825    12.000000000000
         C            0.849644451196     0.692803994285    -0.335658862175    12.000000000000
         C           -0.566396548804    -1.235524005715    -0.120354862175    12.000000000000
         C           -0.566306548804     1.209895994285    -0.138185862175    12.000000000000
         C            1.935172451196    -1.624061005715     0.023149137825    12.000000000000
         C            1.904310451196     1.636083994285     0.228165137825    12.000000000000
         C           -2.744456148804     0.011554494285     0.360113237825    12.000000000000
         H            0.739596451196    -0.517577005715     1.428560137825     1.007825032230
         H            1.030391451196     0.545302994285    -1.410903862175     1.007825032230
         H           -1.697969548804    -0.008841005715    -1.374428862175     1.007825032230
         H           -0.478713548804    -1.778283005715    -1.065463862175     1.007825032230
         H           -1.069747548804    -1.873760005715     0.608662137825     1.007825032230
         H           -0.729230548804     1.521289994285     0.898105137825     1.007825032230
         H           -0.881041548804     2.012984994285    -0.809247862175     1.007825032230
         H            2.878571451196    -1.213303005715     0.389277137825     1.007825032230
         H            1.793818451196    -2.598464005715     0.498848137825     1.007825032230
         H            2.022570451196    -1.777138005715    -1.057145862175     1.007825032230
         H            2.905538451196     1.228713994285     0.072501137825     1.007825032230
         H            1.864851451196     2.612139994285    -0.262867862175     1.007825032230
         H            1.757253451196     1.783340994285     1.302745137825     1.007825032230
         H           -2.463969548804    -0.037377005715     1.463603137825     1.007825032230
         H           -3.251717548804     0.936929994285     0.187040137825     1.007825032230
         H           -3.322209548804    -0.849710005715     0.119979137825     1.007825032230

  Basis Set: AUG-CC-PVTZ
    Blend: AUG-CC-PVTZ
  Basis Set: (AUG-CC-PVTZ AUX)
    Blend: AUG-CC-PVTZ-JKFIT
	 Reference Energy          =    -328.7511620719551502 [Eh]
	 Singles Energy            =      -0.0000000000000000 [Eh]
	 Same-Spin Energy          =      -0.3478518604768784 [Eh]
	 Opposite-Spin Energy      =      -1.2499330140301734 [Eh]
	 Correlation Energy        =      -1.5977848745070520 [Eh]
	 Total Energy              =    -330.3489469464622061 [Eh]

	 ================> DF-SCS-MP2 Energies <==================
	-----------------------------------------------------------
	 SCS Same-Spin Scale       =       0.3333333333333333 [-]
	 SCS Opposite-Spin Scale   =       1.2000000000000000 [-]
	 SCS Same-Spin Energy      =      -0.1159506201589595 [Eh]
	 SCS Opposite-Spin Energy  =      -1.4999196168362081 [Eh]
	 SCS Correlation Energy    =      -1.6158702369951676 [Eh]
	 SCS Total Energy          =    -330.3670323089503427 [Eh]
	-----------------------------------------------------------

  Dipole Moment: [D]
     X:    -4.3409      Y:     0.0016      Z:    -0.8700     Total:     4.4272

*** Psi4 exiting successfully. Buy a developer a beer!
