                               Psi4 1.4a3.dev225

  ==> Input File <==

--------------------------------------------------------------------------
#psi4
#
memory 32 gb

molecule  {
1 1
  N       -1.4549350    -0.0063160    -0.3913190
  C        0.7700580    -0.6819900     0.3309590
  C        0.8387740     0.6929140    -0.3473660
  C       -0.5772670    -1.2354140    -0.1320620
  C       -0.5771770     1.2100060    -0.1498930
  C        1.9243020    -1.6239510     0.0114420
  C        1.8934400     1.6361940     0.2164580
  C       -2.7287170     0.0116090     0.3933420
  H        0.7287260    -0.5174670     1.4168530
  H        1.0195210     0.5454130    -1.4226110
  H       -1.7088400    -0.0087310    -1.3861360
  H       -0.4895840    -1.7781730    -1.0771710
  H       -1.0345180    -1.8151964     0.5301871
  H       -0.7401010     1.5214000     0.8863980
  H       -0.8919120     2.0130950    -0.8209550
  H        2.8677010    -1.2131930     0.3775700
  H        1.7829480    -2.5983540     0.4871410
  H        2.0117000    -1.7770280    -1.0688530
  H        2.8946680     1.2288240     0.0607940
  H        1.8539810     2.6122500    -0.2745750
  H        1.7463830     1.7834510     1.2910380
  H       -2.4748400    -0.0372670     1.4518960
  H       -3.2625880     0.9370400     0.1753330
  H       -3.3330800    -0.8496000     0.1082720
units angstrom
no_reorient  #important for SAPT in psi4, default
symmetry c1  #important for SAPT in psi4, default
}

set PROPERTIES_ORIGIN ["COM"]
properties('MP2/aug-cc-pvtz', properties = ['dipole'])
--------------------------------------------------------------------------

    Molecular point group: c1
  Charge       = 1
  Multiplicity = 1
  Basis Set: AUG-CC-PVTZ
    Blend: AUG-CC-PVTZ
  Basis Set: (AUG-CC-PVTZ AUX)
    Blend: AUG-CC-PVTZ-JKFIT

    Orbital Energies [Eh]
    ---------------------

    Doubly Occupied:

       1A    -15.851670     2A    -11.449275     3A    -11.445438
       4A    -11.435189     5A    -11.390563     6A    -11.389795
       7A    -11.352544     8A    -11.352447     9A     -1.489705
      10A     -1.272193    11A     -1.197722    12A     -1.142967
      13A     -1.097443    14A     -1.067560    15A     -0.992003
      16A     -0.940083    17A     -0.903494    18A     -0.848792
      19A     -0.824632    20A     -0.788686    21A     -0.768660
      22A     -0.755344    23A     -0.737239    24A     -0.717863
      25A     -0.701006    26A     -0.698665    27A     -0.676595
      28A     -0.662876    29A     -0.647905    30A     -0.628336
      31A     -0.622945    32A     -0.603577

  @DF-RHF Final Energy:  -328.74855468913597

   => Energetics <=

    Nuclear Repulsion Energy =            425.0288964451119682
    One-Electron Energy =               -1274.6484805880099884
    Two-Electron Energy =                 520.8710294537620484
    Total Energy =                       -328.7485546891359718
  Basis Set: (AUG-CC-PVTZ AUX)
    Blend: AUG-CC-PVTZ-RI
    Molecular point group: c1

    Geometry (in Angstrom), charge = 1, multiplicity = 1:

       Center              X                  Y                   Z               Mass
    ------------   -----------------  -----------------  -----------------  -----------------
         N           -1.447269503365    -0.006936352529    -0.383747037625    14.003074004430
         C            0.777723496635    -0.682610352529     0.338530962375    12.000000000000
         C            0.846439496635     0.692293647471    -0.339794037625    12.000000000000
         C           -0.569601503365    -1.236034352529    -0.124490037625    12.000000000000
         C           -0.569511503365     1.209385647471    -0.142321037625    12.000000000000
         C            1.931967496635    -1.624571352529     0.019013962375    12.000000000000
         C            1.901105496635     1.635573647471     0.224029962375    12.000000000000
         C           -2.721051503365     0.010988647471     0.400913962375    12.000000000000
         H            0.736391496635    -0.518087352529     1.424424962375     1.007825032230
         H            1.027186496635     0.544792647471    -1.415039037625     1.007825032230
         H           -1.701174503365    -0.009351352529    -1.378564037625     1.007825032230
         H           -0.481918503365    -1.778793352529    -1.069599037625     1.007825032230
         H           -1.026852503365    -1.815816752529     0.537759062375     1.007825032230
         H           -0.732435503365     1.520779647471     0.893969962375     1.007825032230
         H           -0.884246503365     2.012474647471    -0.813383037625     1.007825032230
         H            2.875366496635    -1.213813352529     0.385141962375     1.007825032230
         H            1.790613496635    -2.598974352529     0.494712962375     1.007825032230
         H            2.019365496635    -1.777648352529    -1.061281037625     1.007825032230
         H            2.902333496635     1.228203647471     0.068365962375     1.007825032230
         H            1.861646496635     2.611629647471    -0.267003037625     1.007825032230
         H            1.754048496635     1.782830647471     1.298609962375     1.007825032230
         H           -2.467174503365    -0.037887352529     1.459467962375     1.007825032230
         H           -3.254922503365     0.936419647471     0.182904962375     1.007825032230
         H           -3.325414503365    -0.850220352529     0.115843962375     1.007825032230

  Basis Set: AUG-CC-PVTZ
    Blend: AUG-CC-PVTZ
  Basis Set: (AUG-CC-PVTZ AUX)
    Blend: AUG-CC-PVTZ-JKFIT
	 Reference Energy          =    -328.7485546891359718 [Eh]
	 Singles Energy            =      -0.0000000000000000 [Eh]
	 Same-Spin Energy          =      -0.3476232112942141 [Eh]
	 Opposite-Spin Energy      =      -1.2491169806419811 [Eh]
	 Correlation Energy        =      -1.5967401919361952 [Eh]
	 Total Energy              =    -330.3452948810721637 [Eh]

	 ================> DF-SCS-MP2 Energies <==================
	-----------------------------------------------------------
	 SCS Same-Spin Scale       =       0.3333333333333333 [-]
	 SCS Opposite-Spin Scale   =       1.2000000000000000 [-]
	 SCS Same-Spin Energy      =      -0.1158744037647380 [Eh]
	 SCS Opposite-Spin Energy  =      -1.4989403767703773 [Eh]
	 SCS Correlation Energy    =      -1.6148147805351154 [Eh]
	 SCS Total Energy          =    -330.3633694696711132 [Eh]
	-----------------------------------------------------------

  Dipole Moment: [D]
     X:    -4.3703      Y:    -0.0050      Z:    -0.8734     Total:     4.4568

*** Psi4 exiting successfully. Buy a developer a beer!
