                               Psi4 1.4a3.dev225

  ==> Input File <==

--------------------------------------------------------------------------
#psi4
#
memory 32 gb

molecule  {
1 1
  N       -1.4549350    -0.0063160    -0.3913190
  C        0.7700580    -0.6819900     0.3309590
  C        0.8387740     0.6929140    -0.3473660
  C       -0.5772670    -1.2354140    -0.1320620
  C       -0.5306087     1.1929997    -0.1563876
  C        1.9243020    -1.6239510     0.0114420
  C        1.8934400     1.6361940     0.2164580
  C       -2.7287170     0.0116090     0.3933420
  H        0.7287260    -0.5174670     1.4168530
  H        1.0195210     0.5454130    -1.4226110
  H       -1.7088400    -0.0087310    -1.3861360
  H       -0.4895840    -1.7781730    -1.0771710
  H       -1.0806180    -1.8736500     0.5969550
  H       -0.7401010     1.5214000     0.8863980
  H       -0.8919120     2.0130950    -0.8209550
  H        2.8677010    -1.2131930     0.3775700
  H        1.7829480    -2.5983540     0.4871410
  H        2.0117000    -1.7770280    -1.0688530
  H        2.8946680     1.2288240     0.0607940
  H        1.8539810     2.6122500    -0.2745750
  H        1.7463830     1.7834510     1.2910380
  H       -2.4748400    -0.0372670     1.4518960
  H       -3.2625880     0.9370400     0.1753330
  H       -3.3330800    -0.8496000     0.1082720
units angstrom
no_reorient  #important for SAPT in psi4, default
symmetry c1  #important for SAPT in psi4, default
}

set PROPERTIES_ORIGIN ["COM"]
properties('MP2/aug-cc-pvtz', properties = ['dipole'])
--------------------------------------------------------------------------

    Molecular point group: c1
  Charge       = 1
  Multiplicity = 1
  Basis Set: AUG-CC-PVTZ
    Blend: AUG-CC-PVTZ
  Basis Set: (AUG-CC-PVTZ AUX)
    Blend: AUG-CC-PVTZ-JKFIT

    Orbital Energies [Eh]
    ---------------------

    Doubly Occupied:

       1A    -15.850758     2A    -11.449054     3A    -11.448748
       4A    -11.445573     5A    -11.390879     6A    -11.388232
       7A    -11.354083     8A    -11.352592     9A     -1.487401
      10A     -1.277760    11A     -1.195114    12A     -1.142556
      13A     -1.093188    14A     -1.066006    15A     -0.986139
      16A     -0.942277    17A     -0.900992    18A     -0.845058
      19A     -0.822571    20A     -0.784534    21A     -0.764104
      22A     -0.755539    23A     -0.736831    24A     -0.713686
      25A     -0.696403    26A     -0.695373    27A     -0.676434
      28A     -0.665013    29A     -0.646153    30A     -0.632711
      31A     -0.624947    32A     -0.603553

  @DF-RHF Final Energy:  -328.75078714843511

   => Energetics <=

    Nuclear Repulsion Energy =            425.0169236631554668
    One-Electron Energy =               -1274.6668955568336514
    Two-Electron Energy =                 520.8991847452430193
    Total Energy =                       -328.7507871484351654
  Basis Set: (AUG-CC-PVTZ AUX)
    Blend: AUG-CC-PVTZ-RI
    Molecular point group: c1

    Geometry (in Angstrom), charge = 1, multiplicity = 1:

       Center              X                  Y                   Z               Mass
    ------------   -----------------  -----------------  -----------------  -----------------
         N           -1.451758827927    -0.004632045359    -0.383653766794    14.003074004430
         C            0.773234172073    -0.680306045359     0.338624233206    12.000000000000
         C            0.841950172073     0.694597954641    -0.339700766794    12.000000000000
         C           -0.574090827927    -1.233730045359    -0.124396766794    12.000000000000
         C           -0.527432527927     1.194683654641    -0.148722366794    12.000000000000
         C            1.927478172073    -1.622267045359     0.019107233206    12.000000000000
         C            1.896616172073     1.637877954641     0.224123233206    12.000000000000
         C           -2.725540827927     0.013292954641     0.401007233206    12.000000000000
         H            0.731902172073    -0.515783045359     1.424518233206     1.007825032230
         H            1.022697172073     0.547096954641    -1.414945766794     1.007825032230
         H           -1.705663827927    -0.007047045359    -1.378470766794     1.007825032230
         H           -0.486407827927    -1.776489045359    -1.069505766794     1.007825032230
         H           -1.077441827927    -1.871966045359     0.604620233206     1.007825032230
         H           -0.736924827927     1.523083954641     0.894063233206     1.007825032230
         H           -0.888735827927     2.014778954641    -0.813289766794     1.007825032230
         H            2.870877172073    -1.211509045359     0.385235233206     1.007825032230
         H            1.786124172073    -2.596670045359     0.494806233206     1.007825032230
         H            2.014876172073    -1.775344045359    -1.061187766794     1.007825032230
         H            2.897844172073     1.230507954641     0.068459233206     1.007825032230
         H            1.857157172073     2.613933954641    -0.266909766794     1.007825032230
         H            1.749559172073     1.785134954641     1.298703233206     1.007825032230
         H           -2.471663827927    -0.035583045359     1.459561233206     1.007825032230
         H           -3.259411827927     0.938723954641     0.182998233206     1.007825032230
         H           -3.329903827927    -0.847916045359     0.115937233206     1.007825032230

  Basis Set: AUG-CC-PVTZ
    Blend: AUG-CC-PVTZ
  Basis Set: (AUG-CC-PVTZ AUX)
    Blend: AUG-CC-PVTZ-JKFIT
	 Reference Energy          =    -328.7507871484351085 [Eh]
	 Singles Energy            =      -0.0000000000000000 [Eh]
	 Same-Spin Energy          =      -0.3483241712455767 [Eh]
	 Opposite-Spin Energy      =      -1.2504312777174984 [Eh]
	 Correlation Energy        =      -1.5987554489630751 [Eh]
	 Total Energy              =    -330.3495425973981696 [Eh]

	 ================> DF-SCS-MP2 Energies <==================
	-----------------------------------------------------------
	 SCS Same-Spin Scale       =       0.3333333333333333 [-]
	 SCS Opposite-Spin Scale   =       1.2000000000000000 [-]
	 SCS Same-Spin Energy      =      -0.1161080570818589 [Eh]
	 SCS Opposite-Spin Energy  =      -1.5005175332609981 [Eh]
	 SCS Correlation Energy    =      -1.6166255903428570 [Eh]
	 SCS Total Energy          =    -330.3674127387779436 [Eh]
	-----------------------------------------------------------

  Dipole Moment: [D]
     X:    -4.3286      Y:     0.0145      Z:    -0.8566     Total:     4.4126

*** Psi4 exiting successfully. Buy a developer a beer!
