                               Psi4 1.4a3.dev225

  ==> Input File <==

--------------------------------------------------------------------------
#psi4
#
memory 32 gb

molecule  {
1 1
  N       -1.3415020     0.0426412    -0.4936102
  C        0.7700580    -0.6819900     0.3309590
  C        0.8387740     0.6929140    -0.3473660
  C       -0.5772670    -1.2354140    -0.1320620
  C       -0.5771770     1.2100060    -0.1498930
  C        1.9243020    -1.6239510     0.0114420
  C        1.8934400     1.6361940     0.2164580
  C       -2.7287170     0.0116090     0.3933420
  H        0.7287260    -0.5174670     1.4168530
  H        1.0195210     0.5454130    -1.4226110
  H       -1.7088400    -0.0087310    -1.3861360
  H       -0.4895840    -1.7781730    -1.0771710
  H       -1.0806180    -1.8736500     0.5969550
  H       -0.7401010     1.5214000     0.8863980
  H       -0.8919120     2.0130950    -0.8209550
  H        2.8677010    -1.2131930     0.3775700
  H        1.7829480    -2.5983540     0.4871410
  H        2.0117000    -1.7770280    -1.0688530
  H        2.8946680     1.2288240     0.0607940
  H        1.8539810     2.6122500    -0.2745750
  H        1.7463830     1.7834510     1.2910380
  H       -2.4748400    -0.0372670     1.4518960
  H       -3.2625880     0.9370400     0.1753330
  H       -3.3330800    -0.8496000     0.1082720
units angstrom
no_reorient  #important for SAPT in psi4, default
symmetry c1  #important for SAPT in psi4, default
}

set PROPERTIES_ORIGIN ["COM"]
properties('MP2/aug-cc-pvtz', properties = ['dipole'])
--------------------------------------------------------------------------

    Molecular point group: c1
  Charge       = 1
  Multiplicity = 1
  Basis Set: AUG-CC-PVTZ
    Blend: AUG-CC-PVTZ
  Basis Set: (AUG-CC-PVTZ AUX)
    Blend: AUG-CC-PVTZ-JKFIT

    Orbital Energies [Eh]
    ---------------------

    Doubly Occupied:

       1A    -15.846846     2A    -11.464057     3A    -11.445470
       4A    -11.437389     5A    -11.387511     6A    -11.386375
       7A    -11.350480     8A    -11.348823     9A     -1.493807
      10A     -1.263614    11A     -1.196876    12A     -1.136228
      13A     -1.095861    14A     -1.076903    15A     -0.988070
      16A     -0.937029    17A     -0.906486    18A     -0.845176
      19A     -0.811743    20A     -0.789283    21A     -0.761837
      22A     -0.756425    23A     -0.738800    24A     -0.726176
      25A     -0.701630    26A     -0.690730    27A     -0.674240
      28A     -0.649989    29A     -0.642484    30A     -0.624962
      31A     -0.619794    32A     -0.599981

  @DF-RHF Final Energy:  -328.73064134629158

   => Energetics <=

    Nuclear Repulsion Energy =            425.0876662584819883
    One-Electron Energy =               -1274.8464649665531851
    Two-Electron Energy =                 521.0281573617796766
    Total Energy =                       -328.7306413462915771
  Basis Set: (AUG-CC-PVTZ AUX)
    Blend: AUG-CC-PVTZ-RI
    Molecular point group: c1

    Geometry (in Angstrom), charge = 1, multiplicity = 1:

       Center              X                  Y                   Z               Mass
    ------------   -----------------  -----------------  -----------------  -----------------
         N           -1.347347177789     0.036530180973    -0.474077127301    14.003074004430
         C            0.764212822211    -0.688101019027     0.350492072699    12.000000000000
         C            0.832928822211     0.686802980973    -0.327832927301    12.000000000000
         C           -0.583112177789    -1.241525019027    -0.112528927301    12.000000000000
         C           -0.583022177789     1.203894980973    -0.130359927301    12.000000000000
         C            1.918456822211    -1.630062019027     0.030975072699    12.000000000000
         C            1.887594822211     1.630082980973     0.235991072699    12.000000000000
         C           -2.734562177789     0.005497980973     0.412875072699    12.000000000000
         H            0.722880822211    -0.523578019027     1.436386072699     1.007825032230
         H            1.013675822211     0.539301980973    -1.403077927301     1.007825032230
         H           -1.714685177789    -0.014842019027    -1.366602927301     1.007825032230
         H           -0.495429177789    -1.784284019027    -1.057637927301     1.007825032230
         H           -1.086463177789    -1.879761019027     0.616488072699     1.007825032230
         H           -0.745946177789     1.515288980973     0.905931072699     1.007825032230
         H           -0.897757177789     2.006983980973    -0.801421927301     1.007825032230
         H            2.861855822211    -1.219304019027     0.397103072699     1.007825032230
         H            1.777102822211    -2.604465019027     0.506674072699     1.007825032230
         H            2.005854822211    -1.783139019027    -1.049319927301     1.007825032230
         H            2.888822822211     1.222712980973     0.080327072699     1.007825032230
         H            1.848135822211     2.606138980973    -0.255041927301     1.007825032230
         H            1.740537822211     1.777339980973     1.310571072699     1.007825032230
         H           -2.480685177789    -0.043378019027     1.471429072699     1.007825032230
         H           -3.268433177789     0.930928980973     0.194866072699     1.007825032230
         H           -3.338925177789    -0.855711019027     0.127805072699     1.007825032230

  Basis Set: AUG-CC-PVTZ
    Blend: AUG-CC-PVTZ
  Basis Set: (AUG-CC-PVTZ AUX)
    Blend: AUG-CC-PVTZ-JKFIT
	 Reference Energy          =    -328.7306413462915771 [Eh]
	 Singles Energy            =      -0.0000000000000000 [Eh]
	 Same-Spin Energy          =      -0.3482118545668819 [Eh]
	 Opposite-Spin Energy      =      -1.2510301254953047 [Eh]
	 Correlation Energy        =      -1.5992419800621867 [Eh]
	 Total Energy              =    -330.3298833263537517 [Eh]

	 ================> DF-SCS-MP2 Energies <==================
	-----------------------------------------------------------
	 SCS Same-Spin Scale       =       0.3333333333333333 [-]
	 SCS Opposite-Spin Scale   =       1.2000000000000000 [-]
	 SCS Same-Spin Energy      =      -0.1160706181889606 [Eh]
	 SCS Opposite-Spin Energy  =      -1.5012361505943657 [Eh]
	 SCS Correlation Energy    =      -1.6173067687833262 [Eh]
	 SCS Total Energy          =    -330.3479481150749280 [Eh]
	-----------------------------------------------------------

  Dipole Moment: [D]
     X:    -4.6927      Y:    -0.0868      Z:    -0.7281     Total:     4.7496

*** Psi4 exiting successfully. Buy a developer a beer!
