                               Psi4 1.4a3.dev225

  ==> Input File <==

--------------------------------------------------------------------------
#psi4
#
memory 32 gb

molecule  {
1 1
  N       -1.4720180    -0.0027719    -0.3412413
  C        0.7700580    -0.6819900     0.3309590
  C        0.8387740     0.6929140    -0.3473660
  C       -0.5772670    -1.2354140    -0.1320620
  C       -0.5771770     1.2100060    -0.1498930
  C        1.9243020    -1.6239510     0.0114420
  C        1.8934400     1.6361940     0.2164580
  C       -2.7287170     0.0116090     0.3933420
  H        0.7287260    -0.5174670     1.4168530
  H        1.0195210     0.5454130    -1.4226110
  H       -1.7088400    -0.0087310    -1.3861360
  H       -0.4895840    -1.7781730    -1.0771710
  H       -1.0806180    -1.8736500     0.5969550
  H       -0.7401010     1.5214000     0.8863980
  H       -0.8919120     2.0130950    -0.8209550
  H        2.8677010    -1.2131930     0.3775700
  H        1.7829480    -2.5983540     0.4871410
  H        2.0117000    -1.7770280    -1.0688530
  H        2.8946680     1.2288240     0.0607940
  H        1.8539810     2.6122500    -0.2745750
  H        1.7463830     1.7834510     1.2910380
  H       -2.4748400    -0.0372670     1.4518960
  H       -3.2625880     0.9370400     0.1753330
  H       -3.3330800    -0.8496000     0.1082720
units angstrom
no_reorient  #important for SAPT in psi4, default
symmetry c1  #important for SAPT in psi4, default
}

set PROPERTIES_ORIGIN ["COM"]
properties('MP2/aug-cc-pvtz', properties = ['dipole'])
--------------------------------------------------------------------------

    Molecular point group: c1
  Charge       = 1
  Multiplicity = 1
  Basis Set: AUG-CC-PVTZ
    Blend: AUG-CC-PVTZ
  Basis Set: (AUG-CC-PVTZ AUX)
    Blend: AUG-CC-PVTZ-JKFIT

    Orbital Energies [Eh]
    ---------------------

    Doubly Occupied:

       1A    -15.854925     2A    -11.447399     3A    -11.446069
       4A    -11.445343     5A    -11.391799     6A    -11.390811
       7A    -11.353469     8A    -11.352953     9A     -1.491391
      10A     -1.274788    11A     -1.193570    12A     -1.145733
      13A     -1.095402    14A     -1.058343    15A     -0.985627
      16A     -0.941497    17A     -0.902017    18A     -0.846495
      19A     -0.827044    20A     -0.786525    21A     -0.764240
      22A     -0.754269    23A     -0.734168    24A     -0.710732
      25A     -0.702967    26A     -0.693897    27A     -0.676770
      28A     -0.664374    29A     -0.647622    30A     -0.628752
      31A     -0.623562    32A     -0.603570

  @DF-RHF Final Energy:  -328.74956105742530

   => Energetics <=

    Nuclear Repulsion Energy =            424.6826269320568485
    One-Electron Energy =               -1273.9921308534728723
    Two-Electron Energy =                 520.5599428639907273
    Total Energy =                       -328.7495610574253533
  Basis Set: (AUG-CC-PVTZ AUX)
    Blend: AUG-CC-PVTZ-RI
    Molecular point group: c1

    Geometry (in Angstrom), charge = 1, multiplicity = 1:

       Center              X                  Y                   Z               Mass
    ------------   -----------------  -----------------  -----------------  -----------------
         N           -1.461849396678    -0.003310916797    -0.340403270152    14.003074004430
         C            0.780226603322    -0.682529016797     0.331797029848    12.000000000000
         C            0.848942603322     0.692374983203    -0.346527970152    12.000000000000
         C           -0.567098396678    -1.235953016797    -0.131223970152    12.000000000000
         C           -0.567008396678     1.209466983203    -0.149054970152    12.000000000000
         C            1.934470603322    -1.624490016797     0.012280029848    12.000000000000
         C            1.903608603322     1.635654983203     0.217296029848    12.000000000000
         C           -2.718548396678     0.011069983203     0.394180029848    12.000000000000
         H            0.738894603322    -0.518006016797     1.417691029848     1.007825032230
         H            1.029689603322     0.544873983203    -1.421772970152     1.007825032230
         H           -1.698671396678    -0.009270016797    -1.385297970152     1.007825032230
         H           -0.479415396678    -1.778712016797    -1.076332970152     1.007825032230
         H           -1.070449396678    -1.874189016797     0.597793029848     1.007825032230
         H           -0.729932396678     1.520860983203     0.887236029848     1.007825032230
         H           -0.881743396678     2.012555983203    -0.820116970152     1.007825032230
         H            2.877869603322    -1.213732016797     0.378408029848     1.007825032230
         H            1.793116603322    -2.598893016797     0.487979029848     1.007825032230
         H            2.021868603322    -1.777567016797    -1.068014970152     1.007825032230
         H            2.904836603322     1.228284983203     0.061632029848     1.007825032230
         H            1.864149603322     2.611710983203    -0.273736970152     1.007825032230
         H            1.756551603322     1.782911983203     1.291876029848     1.007825032230
         H           -2.464671396678    -0.037806016797     1.452734029848     1.007825032230
         H           -3.252419396678     0.936500983203     0.176171029848     1.007825032230
         H           -3.322911396678    -0.850139016797     0.109110029848     1.007825032230

  Basis Set: AUG-CC-PVTZ
    Blend: AUG-CC-PVTZ
  Basis Set: (AUG-CC-PVTZ AUX)
    Blend: AUG-CC-PVTZ-JKFIT
	 Reference Energy          =    -328.7495610574252964 [Eh]
	 Singles Energy            =      -0.0000000000000000 [Eh]
	 Same-Spin Energy          =      -0.3483908635966234 [Eh]
	 Opposite-Spin Energy      =      -1.2507173153590421 [Eh]
	 Correlation Energy        =      -1.5991081789556654 [Eh]
	 Total Energy              =    -330.3486692363809425 [Eh]

	 ================> DF-SCS-MP2 Energies <==================
	-----------------------------------------------------------
	 SCS Same-Spin Scale       =       0.3333333333333333 [-]
	 SCS Opposite-Spin Scale   =       1.2000000000000000 [-]
	 SCS Same-Spin Energy      =      -0.1161302878655411 [Eh]
	 SCS Opposite-Spin Energy  =      -1.5008607784308505 [Eh]
	 SCS Correlation Energy    =      -1.6169910662963916 [Eh]
	 SCS Total Energy          =    -330.3665521237217035 [Eh]
	-----------------------------------------------------------

  Dipole Moment: [D]
     X:    -4.2949      Y:    -0.0085      Z:    -0.9285     Total:     4.3942

*** Psi4 exiting successfully. Buy a developer a beer!
