                               Psi4 1.4a3.dev225

  ==> Input File <==

--------------------------------------------------------------------------
#psi4
#
memory 32 gb

molecule  {
1 1
  N       -1.4549350    -0.0063160    -0.3913190
  C        0.7700580    -0.6819900     0.3309590
  C        0.8387740     0.6929140    -0.3473660
  C       -0.5772670    -1.2354140    -0.1320620
  C       -0.5771770     1.2100060    -0.1498930
  C        1.9243020    -1.6239510     0.0114420
  C        1.8934400     1.6361940     0.2164580
  C       -2.7287170     0.0116090     0.3933420
  H        0.7287260    -0.5174670     1.4168530
  H        1.0195210     0.5454130    -1.4226110
  H       -1.7088400    -0.0087310    -1.3861360
  H       -0.4895840    -1.7781730    -1.0771710
  H       -1.0806180    -1.8736500     0.5969550
  H       -0.7401010     1.5214000     0.8863980
  H       -0.8919120     2.0130950    -0.8209550
  H        2.8677010    -1.2131930     0.3775700
  H        1.7829480    -2.5983540     0.4871410
  H        2.0117000    -1.7770280    -1.0688530
  H        2.8946680     1.2288240     0.0607940
  H        1.8510556     2.6204801    -0.2576096
  H        1.7463830     1.7834510     1.2910380
  H       -2.4748400    -0.0372670     1.4518960
  H       -3.2625880     0.9370400     0.1753330
  H       -3.3330800    -0.8496000     0.1082720
units angstrom
no_reorient  #important for SAPT in psi4, default
symmetry c1  #important for SAPT in psi4, default
}

set PROPERTIES_ORIGIN ["COM"]
properties('MP2/aug-cc-pvtz', properties = ['dipole'])
--------------------------------------------------------------------------

    Molecular point group: c1
  Charge       = 1
  Multiplicity = 1
  Basis Set: AUG-CC-PVTZ
    Blend: AUG-CC-PVTZ
  Basis Set: (AUG-CC-PVTZ AUX)
    Blend: AUG-CC-PVTZ-JKFIT

    Orbital Energies [Eh]
    ---------------------

    Doubly Occupied:

       1A    -15.852161     2A    -11.449021     3A    -11.446241
       4A    -11.445691     5A    -11.391023     6A    -11.390247
       7A    -11.352748     8A    -11.352526     9A     -1.489452
      10A     -1.272096    11A     -1.193157    12A     -1.142629
      13A     -1.094770    14A     -1.065489    15A     -0.987337
      16A     -0.939632    17A     -0.903364    18A     -0.844788
      19A     -0.822056    20A     -0.786255    21A     -0.763220
      22A     -0.755040    23A     -0.735459    24A     -0.715234
      25A     -0.700708    26A     -0.697248    27A     -0.676646
      28A     -0.662980    29A     -0.647118    30A     -0.628395
      31A     -0.623130    32A     -0.603069

  @DF-RHF Final Energy:  -328.75418721786326

   => Energetics <=

    Nuclear Repulsion Energy =            424.4782215839479136
    One-Electron Energy =               -1273.6069578267643010
    Two-Electron Energy =                 520.3745490249530121
    Total Energy =                       -328.7541872178633184
  Basis Set: (AUG-CC-PVTZ AUX)
    Blend: AUG-CC-PVTZ-RI
    Molecular point group: c1

    Geometry (in Angstrom), charge = 1, multiplicity = 1:

       Center              X                  Y                   Z               Mass
    ------------   -----------------  -----------------  -----------------  -----------------
         N           -1.446836577997    -0.006492847178    -0.384486455759    14.003074004430
         C            0.778156422003    -0.682166847178     0.337791544241    12.000000000000
         C            0.846872422003     0.692737152822    -0.340533455759    12.000000000000
         C           -0.569168577997    -1.235590847178    -0.125229455759    12.000000000000
         C           -0.569078577997     1.209829152822    -0.143060455759    12.000000000000
         C            1.932400422003    -1.624127847178     0.018274544241    12.000000000000
         C            1.901538422003     1.636017152822     0.223290544241    12.000000000000
         C           -2.720618577997     0.011432152822     0.400174544241    12.000000000000
         H            0.736824422003    -0.517643847178     1.423685544241     1.007825032230
         H            1.027619422003     0.545236152822    -1.415778455759     1.007825032230
         H           -1.700741577997    -0.008907847178    -1.379303455759     1.007825032230
         H           -0.481485577997    -1.778349847178    -1.070338455759     1.007825032230
         H           -1.072519577997    -1.873826847178     0.603787544241     1.007825032230
         H           -0.732002577997     1.521223152822     0.893230544241     1.007825032230
         H           -0.883813577997     2.012918152822    -0.814122455759     1.007825032230
         H            2.875799422003    -1.213369847178     0.384402544241     1.007825032230
         H            1.791046422003    -2.598530847178     0.493973544241     1.007825032230
         H            2.019798422003    -1.777204847178    -1.062020455759     1.007825032230
         H            2.902766422003     1.228647152822     0.067626544241     1.007825032230
         H            1.859154022003     2.620303252822    -0.250777055759     1.007825032230
         H            1.754481422003     1.783274152822     1.297870544241     1.007825032230
         H           -2.466741577997    -0.037443847178     1.458728544241     1.007825032230
         H           -3.254489577997     0.936863152822     0.182165544241     1.007825032230
         H           -3.324981577997    -0.849776847178     0.115104544241     1.007825032230

  Basis Set: AUG-CC-PVTZ
    Blend: AUG-CC-PVTZ
  Basis Set: (AUG-CC-PVTZ AUX)
    Blend: AUG-CC-PVTZ-JKFIT
	 Reference Energy          =    -328.7541872178632616 [Eh]
	 Singles Energy            =      -0.0000000000000000 [Eh]
	 Same-Spin Energy          =      -0.3478012041028213 [Eh]
	 Opposite-Spin Energy      =      -1.2498554420339505 [Eh]
	 Correlation Energy        =      -1.5976566461367718 [Eh]
	 Total Energy              =    -330.3518438640000454 [Eh]

	 ================> DF-SCS-MP2 Energies <==================
	-----------------------------------------------------------
	 SCS Same-Spin Scale       =       0.3333333333333333 [-]
	 SCS Opposite-Spin Scale   =       1.2000000000000000 [-]
	 SCS Same-Spin Energy      =      -0.1159337347009404 [Eh]
	 SCS Opposite-Spin Energy  =      -1.4998265304407405 [Eh]
	 SCS Correlation Energy    =      -1.6157602651416809 [Eh]
	 SCS Total Energy          =    -330.3699474830049212 [Eh]
	-----------------------------------------------------------

  Dipole Moment: [D]
     X:    -4.3598      Y:     0.0027      Z:    -0.8620     Total:     4.4442

*** Psi4 exiting successfully. Buy a developer a beer!
