                               Psi4 1.4a3.dev225

  ==> Input File <==

--------------------------------------------------------------------------
#psi4
#
memory 32 gb

molecule  {
1 1
  N       -1.5299366     0.0801214    -0.5017377
  C        0.7700580    -0.6819900     0.3309590
  C        0.8387740     0.6929140    -0.3473660
  C       -0.5772670    -1.2354140    -0.1320620
  C       -0.5771770     1.2100060    -0.1498930
  C        1.9243020    -1.6239510     0.0114420
  C        1.8934400     1.6361940     0.2164580
  C       -2.7287170     0.0116090     0.3933420
  H        0.7287260    -0.5174670     1.4168530
  H        1.0195210     0.5454130    -1.4226110
  H       -1.7088400    -0.0087310    -1.3861360
  H       -0.4895840    -1.7781730    -1.0771710
  H       -1.0806180    -1.8736500     0.5969550
  H       -0.7401010     1.5214000     0.8863980
  H       -0.8919120     2.0130950    -0.8209550
  H        2.8677010    -1.2131930     0.3775700
  H        1.7829480    -2.5983540     0.4871410
  H        2.0117000    -1.7770280    -1.0688530
  H        2.8946680     1.2288240     0.0607940
  H        1.8539810     2.6122500    -0.2745750
  H        1.7463830     1.7834510     1.2910380
  H       -2.4748400    -0.0372670     1.4518960
  H       -3.2625880     0.9370400     0.1753330
  H       -3.3330800    -0.8496000     0.1082720
units angstrom
no_reorient  #important for SAPT in psi4, default
symmetry c1  #important for SAPT in psi4, default
}

set PROPERTIES_ORIGIN ["COM"]
properties('MP2/aug-cc-pvtz', properties = ['dipole'])
--------------------------------------------------------------------------

    Molecular point group: c1
  Charge       = 1
  Multiplicity = 1
  Basis Set: AUG-CC-PVTZ
    Blend: AUG-CC-PVTZ
  Basis Set: (AUG-CC-PVTZ AUX)
    Blend: AUG-CC-PVTZ-JKFIT

    Orbital Energies [Eh]
    ---------------------

    Doubly Occupied:

       1A    -15.837800     2A    -11.457647     3A    -11.447320
       4A    -11.445074     5A    -11.393500     6A    -11.392061
       7A    -11.355535     8A    -11.353582     9A     -1.483314
      10A     -1.275742    11A     -1.188420    12A     -1.139255
      13A     -1.091017    14A     -1.086808    15A     -0.994261
      16A     -0.937141    17A     -0.898817    18A     -0.840755
      19A     -0.820781    20A     -0.790915    21A     -0.762110
      22A     -0.760392    23A     -0.738266    24A     -0.714033
      25A     -0.702609    26A     -0.689135    27A     -0.675223
      28A     -0.656132    29A     -0.647409    30A     -0.630291
      31A     -0.624523    32A     -0.603982

  @DF-RHF Final Energy:  -328.72690486010049

   => Energetics <=

    Nuclear Repulsion Energy =            422.5941874012758603
    One-Electron Energy =               -1269.7744930725596078
    Two-Electron Energy =                 518.4534008111833145
    Total Energy =                       -328.7269048601004897
  Basis Set: (AUG-CC-PVTZ AUX)
    Blend: AUG-CC-PVTZ-RI
    Molecular point group: c1

    Geometry (in Angstrom), charge = 1, multiplicity = 1:

       Center              X                  Y                   Z               Mass
    ------------   -----------------  -----------------  -----------------  -----------------
         N           -1.512661620581     0.069411713233    -0.481207416186    14.003074004430
         C            0.787332979419    -0.692699686767     0.351489283814    12.000000000000
         C            0.856048979419     0.682204313233    -0.326835716186    12.000000000000
         C           -0.559992020581    -1.246123686767    -0.111531716186    12.000000000000
         C           -0.559902020581     1.199296313233    -0.129362716186    12.000000000000
         C            1.941576979419    -1.634660686767     0.031972283814    12.000000000000
         C            1.910714979419     1.625484313233     0.236988283814    12.000000000000
         C           -2.711442020581     0.000899313233     0.413872283814    12.000000000000
         H            0.746000979419    -0.528176686767     1.437383283814     1.007825032230
         H            1.036795979419     0.534703313233    -1.402080716186     1.007825032230
         H           -1.691565020581    -0.019440686767    -1.365605716186     1.007825032230
         H           -0.472309020581    -1.788882686767    -1.056640716186     1.007825032230
         H           -1.063343020581    -1.884359686767     0.617485283814     1.007825032230
         H           -0.722826020581     1.510690313233     0.906928283814     1.007825032230
         H           -0.874637020581     2.002385313233    -0.800424716186     1.007825032230
         H            2.884975979419    -1.223902686767     0.398100283814     1.007825032230
         H            1.800222979419    -2.609063686767     0.507671283814     1.007825032230
         H            2.028974979419    -1.787737686767    -1.048322716186     1.007825032230
         H            2.911942979419     1.218114313233     0.081324283814     1.007825032230
         H            1.871255979419     2.601540313233    -0.254044716186     1.007825032230
         H            1.763657979419     1.772741313233     1.311568283814     1.007825032230
         H           -2.457565020581    -0.047976686767     1.472426283814     1.007825032230
         H           -3.245313020581     0.926330313233     0.195863283814     1.007825032230
         H           -3.315805020581    -0.860309686767     0.128802283814     1.007825032230

  Basis Set: AUG-CC-PVTZ
    Blend: AUG-CC-PVTZ
  Basis Set: (AUG-CC-PVTZ AUX)
    Blend: AUG-CC-PVTZ-JKFIT
	 Reference Energy          =    -328.7269048601004897 [Eh]
	 Singles Energy            =      -0.0000000000000000 [Eh]
	 Same-Spin Energy          =      -0.3472765893427842 [Eh]
	 Opposite-Spin Energy      =      -1.2499011409403662 [Eh]
	 Correlation Energy        =      -1.5971777302831502 [Eh]
	 Total Energy              =    -330.3240825903836253 [Eh]

	 ================> DF-SCS-MP2 Energies <==================
	-----------------------------------------------------------
	 SCS Same-Spin Scale       =       0.3333333333333333 [-]
	 SCS Opposite-Spin Scale   =       1.2000000000000000 [-]
	 SCS Same-Spin Energy      =      -0.1157588631142614 [Eh]
	 SCS Opposite-Spin Energy  =      -1.4998813691284394 [Eh]
	 SCS Correlation Energy    =      -1.6156402322427008 [Eh]
	 SCS Total Energy          =    -330.3425450923431868 [Eh]
	-----------------------------------------------------------

  Dipole Moment: [D]
     X:    -4.1184      Y:    -0.1771      Z:    -0.7100     Total:     4.1829

*** Psi4 exiting successfully. Buy a developer a beer!
