                               Psi4 1.4a3.dev225

  ==> Input File <==

--------------------------------------------------------------------------
#psi4
#
memory 32 gb

molecule  {
1 1
  N       -1.4549350    -0.0063160    -0.3913190
  C        0.7700580    -0.6819900     0.3309590
  C        0.8387740     0.6929140    -0.3473660
  C       -0.5772670    -1.2354140    -0.1320620
  C       -0.5771770     1.2100060    -0.1498930
  C        1.9243020    -1.6239510     0.0114420
  C        1.8934400     1.6361940     0.2164580
  C       -2.7287170     0.0116090     0.3933420
  H        0.7287260    -0.5174670     1.4168530
  H        1.0195210     0.5454130    -1.4226110
  H       -1.7088400    -0.0087310    -1.3861360
  H       -0.4895840    -1.7781730    -1.0771710
  H       -1.0806180    -1.8736500     0.5969550
  H       -0.7401010     1.5214000     0.8863980
  H       -0.8919120     2.0130950    -0.8209550
  H        2.8677010    -1.2131930     0.3775700
  H        1.7829480    -2.5983540     0.4871410
  H        2.0117000    -1.7770280    -1.0688530
  H        2.8946680     1.2288240     0.0607940
  H        1.8539810     2.6122500    -0.2745750
  H        1.7598184     1.7699973     1.1928622
  H       -2.4748400    -0.0372670     1.4518960
  H       -3.2625880     0.9370400     0.1753330
  H       -3.3330800    -0.8496000     0.1082720
units angstrom
no_reorient  #important for SAPT in psi4, default
symmetry c1  #important for SAPT in psi4, default
}

set PROPERTIES_ORIGIN ["COM"]
properties('MP2/aug-cc-pvtz', properties = ['dipole'])
--------------------------------------------------------------------------

    Molecular point group: c1
  Charge       = 1
  Multiplicity = 1
  Basis Set: AUG-CC-PVTZ
    Blend: AUG-CC-PVTZ
  Basis Set: (AUG-CC-PVTZ AUX)
    Blend: AUG-CC-PVTZ-JKFIT

    Orbital Energies [Eh]
    ---------------------

    Doubly Occupied:

       1A    -15.852121     2A    -11.449011     3A    -11.446176
       4A    -11.445676     5A    -11.390475     6A    -11.389723
       7A    -11.352423     8A    -11.340543     9A     -1.489399
      10A     -1.272542    11A     -1.193910    12A     -1.143684
      13A     -1.099001    14A     -1.067251    15A     -0.989981
      16A     -0.941368    17A     -0.903643    18A     -0.845106
      19A     -0.823281    20A     -0.786682    21A     -0.763121
      22A     -0.754945    23A     -0.735097    24A     -0.719553
      25A     -0.708236    26A     -0.697416    27A     -0.675972
      28A     -0.662658    29A     -0.653647    30A     -0.628133
      31A     -0.624033    32A     -0.602924

  @DF-RHF Final Energy:  -328.74813642627834

   => Energetics <=

    Nuclear Repulsion Energy =            424.9346309323590276
    One-Electron Energy =               -1274.4700717343357610
    Two-Electron Energy =                 520.7873043756984544
    Total Energy =                       -328.7481364262782790
  Basis Set: (AUG-CC-PVTZ AUX)
    Blend: AUG-CC-PVTZ-RI
    Molecular point group: c1

    Geometry (in Angstrom), charge = 1, multiplicity = 1:

       Center              X                  Y                   Z               Mass
    ------------   -----------------  -----------------  -----------------  -----------------
         N           -1.446981054235    -0.006301365474    -0.383469685953    14.003074004430
         C            0.778011945765    -0.681975365474     0.338808314047    12.000000000000
         C            0.846727945765     0.692928634526    -0.339516685953    12.000000000000
         C           -0.569313054235    -1.235399365474    -0.124212685953    12.000000000000
         C           -0.569223054235     1.210020634526    -0.142043685953    12.000000000000
         C            1.932255945765    -1.623936365474     0.019291314047    12.000000000000
         C            1.901393945765     1.636208634526     0.224307314047    12.000000000000
         C           -2.720763054235     0.011623634526     0.401191314047    12.000000000000
         H            0.736679945765    -0.517452365474     1.424702314047     1.007825032230
         H            1.027474945765     0.545427634526    -1.414761685953     1.007825032230
         H           -1.700886054235    -0.008716365474    -1.378286685953     1.007825032230
         H           -0.481630054235    -1.778158365474    -1.069321685953     1.007825032230
         H           -1.072664054235    -1.873635365474     0.604804314047     1.007825032230
         H           -0.732147054235     1.521414634526     0.894247314047     1.007825032230
         H           -0.883958054235     2.013109634526    -0.813105685953     1.007825032230
         H            2.875654945765    -1.213178365474     0.385419314047     1.007825032230
         H            1.790901945765    -2.598339365474     0.494990314047     1.007825032230
         H            2.019653945765    -1.777013365474    -1.061003685953     1.007825032230
         H            2.902621945765     1.228838634526     0.068643314047     1.007825032230
         H            1.861934945765     2.612264634526    -0.266725685953     1.007825032230
         H            1.767772345765     1.770011934526     1.200711514047     1.007825032230
         H           -2.466886054235    -0.037252365474     1.459745314047     1.007825032230
         H           -3.254634054235     0.937054634526     0.183182314047     1.007825032230
         H           -3.325126054235    -0.849585365474     0.116121314047     1.007825032230

  Basis Set: AUG-CC-PVTZ
    Blend: AUG-CC-PVTZ
  Basis Set: (AUG-CC-PVTZ AUX)
    Blend: AUG-CC-PVTZ-JKFIT
	 Reference Energy          =    -328.7481364262783359 [Eh]
	 Singles Energy            =      -0.0000000000000000 [Eh]
	 Same-Spin Energy          =      -0.3478090894149179 [Eh]
	 Opposite-Spin Energy      =      -1.2493839724476594 [Eh]
	 Correlation Energy        =      -1.5971930618625774 [Eh]
	 Total Energy              =    -330.3453294881409192 [Eh]

	 ================> DF-SCS-MP2 Energies <==================
	-----------------------------------------------------------
	 SCS Same-Spin Scale       =       0.3333333333333333 [-]
	 SCS Opposite-Spin Scale   =       1.2000000000000000 [-]
	 SCS Same-Spin Energy      =      -0.1159363631383060 [Eh]
	 SCS Opposite-Spin Energy  =      -1.4992607669371913 [Eh]
	 SCS Correlation Energy    =      -1.6151971300754973 [Eh]
	 SCS Total Energy          =    -330.3633335563538367 [Eh]
	-----------------------------------------------------------

  Dipole Moment: [D]
     X:    -4.3614      Y:     0.0083      Z:    -0.8317     Total:     4.4400

*** Psi4 exiting successfully. Buy a developer a beer!
