                               Psi4 1.4a3.dev225

  ==> Input File <==

--------------------------------------------------------------------------
#psi4
#
memory 32 gb

molecule  {
1 1
  N       -1.4549350    -0.0063160    -0.3913190
  C        0.7700580    -0.6819900     0.3309590
  C        0.8387740     0.6929140    -0.3473660
  C       -0.5772670    -1.2354140    -0.1320620
  C       -0.5771770     1.2100060    -0.1498930
  C        1.9243020    -1.6239510     0.0114420
  C        1.8934400     1.6361940     0.2164580
  C       -2.7287170     0.0116090     0.3933420
  H        0.7287260    -0.5174670     1.4168530
  H        1.0195210     0.5454130    -1.4226110
  H       -1.7088400    -0.0087310    -1.3861360
  H       -0.4895840    -1.7781730    -1.0771710
  H       -1.0806180    -1.8736500     0.5969550
  H       -0.7401010     1.5214000     0.8863980
  H       -0.8919120     2.0130950    -0.8209550
  H        2.8677010    -1.2131930     0.3775700
  H        1.7829480    -2.5983540     0.4871410
  H        2.0276692    -1.8049980    -1.2662426
  H        2.8946680     1.2288240     0.0607940
  H        1.8539810     2.6122500    -0.2745750
  H        1.7463830     1.7834510     1.2910380
  H       -2.4748400    -0.0372670     1.4518960
  H       -3.2625880     0.9370400     0.1753330
  H       -3.3330800    -0.8496000     0.1082720
units angstrom
no_reorient  #important for SAPT in psi4, default
symmetry c1  #important for SAPT in psi4, default
}

set PROPERTIES_ORIGIN ["COM"]
properties('MP2/aug-cc-pvtz', properties = ['dipole'])
--------------------------------------------------------------------------

    Molecular point group: c1
  Charge       = 1
  Multiplicity = 1
  Basis Set: AUG-CC-PVTZ
    Blend: AUG-CC-PVTZ
  Basis Set: (AUG-CC-PVTZ AUX)
    Blend: AUG-CC-PVTZ-JKFIT

    Orbital Energies [Eh]
    ---------------------

    Doubly Occupied:

       1A    -15.852318     2A    -11.449189     3A    -11.446328
       4A    -11.445898     5A    -11.392873     6A    -11.390915
       7A    -11.375019     8A    -11.353111     9A     -1.489634
      10A     -1.272125    11A     -1.192663    12A     -1.142077
      13A     -1.091610    14A     -1.061988    15A     -0.985423
      16A     -0.937103    17A     -0.901485    18A     -0.844619
      19A     -0.822313    20A     -0.785705    21A     -0.763916
      22A     -0.754336    23A     -0.736269    24A     -0.714489
      25A     -0.700593    26A     -0.685453    27A     -0.678130
      28A     -0.663354    29A     -0.638575    30A     -0.627725
      31A     -0.613505    32A     -0.599721

  @DF-RHF Final Energy:  -328.73433712853756

   => Energetics <=

    Nuclear Repulsion Energy =            423.7235496533217542
    One-Electron Energy =               -1272.0988529425294473
    Two-Electron Energy =                 519.6409661606702457
    Total Energy =                       -328.7343371285375042
  Basis Set: (AUG-CC-PVTZ AUX)
    Blend: AUG-CC-PVTZ-RI
    Molecular point group: c1

    Geometry (in Angstrom), charge = 1, multiplicity = 1:

       Center              X                  Y                   Z               Mass
    ------------   -----------------  -----------------  -----------------  -----------------
         N           -1.447003429296    -0.006173177340    -0.382593565188    14.003074004430
         C            0.777989570704    -0.681847177340     0.339684434812    12.000000000000
         C            0.846705570704     0.693056822660    -0.338640565188    12.000000000000
         C           -0.569335429296    -1.235271177340    -0.123336565188    12.000000000000
         C           -0.569245429296     1.210148822660    -0.141167565188    12.000000000000
         C            1.932233570704    -1.623808177340     0.020167434812    12.000000000000
         C            1.901371570704     1.636336822660     0.225183434812    12.000000000000
         C           -2.720785429296     0.011751822660     0.402067434812    12.000000000000
         H            0.736657570704    -0.517324177340     1.425578434812     1.007825032230
         H            1.027452570704     0.545555822660    -1.413885565188     1.007825032230
         H           -1.700908429296    -0.008588177340    -1.377410565188     1.007825032230
         H           -0.481652429296    -1.778030177340    -1.068445565188     1.007825032230
         H           -1.072686429296    -1.873507177340     0.605680434812     1.007825032230
         H           -0.732169429296     1.521542822660     0.895123434812     1.007825032230
         H           -0.883980429296     2.013237822660    -0.812229565188     1.007825032230
         H            2.875632570704    -1.213050177340     0.386295434812     1.007825032230
         H            1.790879570704    -2.598211177340     0.495866434812     1.007825032230
         H            2.035600770704    -1.804855177340    -1.257517165188     1.007825032230
         H            2.902599570704     1.228966822660     0.069519434812     1.007825032230
         H            1.861912570704     2.612392822660    -0.265849565188     1.007825032230
         H            1.754314570704     1.783593822660     1.299763434812     1.007825032230
         H           -2.466908429296    -0.037124177340     1.460621434812     1.007825032230
         H           -3.254656429296     0.937182822660     0.184058434812     1.007825032230
         H           -3.325148429296    -0.849457177340     0.116997434812     1.007825032230

  Basis Set: AUG-CC-PVTZ
    Blend: AUG-CC-PVTZ
  Basis Set: (AUG-CC-PVTZ AUX)
    Blend: AUG-CC-PVTZ-JKFIT
	 Reference Energy          =    -328.7343371285375611 [Eh]
	 Singles Energy            =      -0.0000000000000000 [Eh]
	 Same-Spin Energy          =      -0.3478349903418216 [Eh]
	 Opposite-Spin Energy      =      -1.2514492375886468 [Eh]
	 Correlation Energy        =      -1.5992842279304684 [Eh]
	 Total Energy              =    -330.3336213564680293 [Eh]

	 ================> DF-SCS-MP2 Energies <==================
	-----------------------------------------------------------
	 SCS Same-Spin Scale       =       0.3333333333333333 [-]
	 SCS Opposite-Spin Scale   =       1.2000000000000000 [-]
	 SCS Same-Spin Energy      =      -0.1159449967806072 [Eh]
	 SCS Opposite-Spin Energy  =      -1.5017390851063761 [Eh]
	 SCS Correlation Energy    =      -1.6176840818869833 [Eh]
	 SCS Total Energy          =    -330.3520212104245388 [Eh]
	-----------------------------------------------------------

  Dipole Moment: [D]
     X:    -4.3688      Y:     0.0267      Z:    -0.7669     Total:     4.4357

*** Psi4 exiting successfully. Buy a developer a beer!
