                               Psi4 1.4a3.dev225

  ==> Input File <==

--------------------------------------------------------------------------
#psi4
#
memory 32 gb

molecule  {
1 1
  N       -1.4549350    -0.0063160    -0.3913190
  C        0.7700580    -0.6819900     0.3309590
  C        0.8387740     0.6929140    -0.3473660
  C       -0.6345417    -1.1552057    -0.1489806
  C       -0.5771770     1.2100060    -0.1498930
  C        1.9243020    -1.6239510     0.0114420
  C        1.8934400     1.6361940     0.2164580
  C       -2.7287170     0.0116090     0.3933420
  H        0.7287260    -0.5174670     1.4168530
  H        1.0195210     0.5454130    -1.4226110
  H       -1.7088400    -0.0087310    -1.3861360
  H       -0.4895840    -1.7781730    -1.0771710
  H       -1.0806180    -1.8736500     0.5969550
  H       -0.7401010     1.5214000     0.8863980
  H       -0.8919120     2.0130950    -0.8209550
  H        2.8677010    -1.2131930     0.3775700
  H        1.7829480    -2.5983540     0.4871410
  H        2.0117000    -1.7770280    -1.0688530
  H        2.8946680     1.2288240     0.0607940
  H        1.8539810     2.6122500    -0.2745750
  H        1.7463830     1.7834510     1.2910380
  H       -2.4748400    -0.0372670     1.4518960
  H       -3.2625880     0.9370400     0.1753330
  H       -3.3330800    -0.8496000     0.1082720
units angstrom
no_reorient  #important for SAPT in psi4, default
symmetry c1  #important for SAPT in psi4, default
}

set PROPERTIES_ORIGIN ["COM"]
properties('MP2/aug-cc-pvtz', properties = ['dipole'])
--------------------------------------------------------------------------

    Molecular point group: c1
  Charge       = 1
  Multiplicity = 1
  Basis Set: AUG-CC-PVTZ
    Blend: AUG-CC-PVTZ
  Basis Set: (AUG-CC-PVTZ AUX)
    Blend: AUG-CC-PVTZ-JKFIT

    Orbital Energies [Eh]
    ---------------------

    Doubly Occupied:

       1A    -15.858327     2A    -11.452680     3A    -11.448497
       4A    -11.442524     5A    -11.390631     6A    -11.389722
       7A    -11.352365     8A    -11.351907     9A     -1.512855
      10A     -1.271231    11A     -1.190923    12A     -1.149950
      13A     -1.098141    14A     -1.066940    15A     -0.985487
      16A     -0.938938    17A     -0.914960    18A     -0.850880
      19A     -0.830027    20A     -0.782668    21A     -0.760827
      22A     -0.753479    23A     -0.735546    24A     -0.724690
      25A     -0.702448    26A     -0.685513    27A     -0.675479
      28A     -0.665248    29A     -0.644625    30A     -0.626978
      31A     -0.618372    32A     -0.596560

  @DF-RHF Final Energy:  -328.74549495785942

   => Energetics <=

    Nuclear Repulsion Energy =            425.6530284796126580
    One-Electron Energy =               -1275.8582108416717347
    Two-Electron Energy =                 521.4596874041997125
    Total Energy =                       -328.7454949578593641
  Basis Set: (AUG-CC-PVTZ AUX)
    Blend: AUG-CC-PVTZ-RI
    Molecular point group: c1

    Geometry (in Angstrom), charge = 1, multiplicity = 1:

       Center              X                  Y                   Z               Mass
    ------------   -----------------  -----------------  -----------------  -----------------
         N           -1.440840271546    -0.014853659634    -0.382557736906    14.003074004430
         C            0.784152728454    -0.690527659634     0.339720263094    12.000000000000
         C            0.852868728454     0.684376340366    -0.338604736906    12.000000000000
         C           -0.620446971546    -1.163743359634    -0.140219336906    12.000000000000
         C           -0.563082271546     1.201468340366    -0.141131736906    12.000000000000
         C            1.938396728454    -1.632488659634     0.020203263094    12.000000000000
         C            1.907534728454     1.627656340366     0.225219263094    12.000000000000
         C           -2.714622271546     0.003071340366     0.402103263094    12.000000000000
         H            0.742820728454    -0.526004659634     1.425614263094     1.007825032230
         H            1.033615728454     0.536875340366    -1.413849736906     1.007825032230
         H           -1.694745271546    -0.017268659634    -1.377374736906     1.007825032230
         H           -0.475489271546    -1.786710659634    -1.068409736906     1.007825032230
         H           -1.066523271546    -1.882187659634     0.605716263094     1.007825032230
         H           -0.726006271546     1.512862340366     0.895159263094     1.007825032230
         H           -0.877817271546     2.004557340366    -0.812193736906     1.007825032230
         H            2.881795728454    -1.221730659634     0.386331263094     1.007825032230
         H            1.797042728454    -2.606891659634     0.495902263094     1.007825032230
         H            2.025794728454    -1.785565659634    -1.060091736906     1.007825032230
         H            2.908762728454     1.220286340366     0.069555263094     1.007825032230
         H            1.868075728454     2.603712340366    -0.265813736906     1.007825032230
         H            1.760477728454     1.774913340366     1.299799263094     1.007825032230
         H           -2.460745271546    -0.045804659634     1.460657263094     1.007825032230
         H           -3.248493271546     0.928502340366     0.184094263094     1.007825032230
         H           -3.318985271546    -0.858137659634     0.117033263094     1.007825032230

  Basis Set: AUG-CC-PVTZ
    Blend: AUG-CC-PVTZ
  Basis Set: (AUG-CC-PVTZ AUX)
    Blend: AUG-CC-PVTZ-JKFIT
	 Reference Energy          =    -328.7454949578594210 [Eh]
	 Singles Energy            =      -0.0000000000000000 [Eh]
	 Same-Spin Energy          =      -0.3485048895496230 [Eh]
	 Opposite-Spin Energy      =      -1.2502711546029890 [Eh]
	 Correlation Energy        =      -1.5987760441526120 [Eh]
	 Total Energy              =    -330.3442710020120217 [Eh]

	 ================> DF-SCS-MP2 Energies <==================
	-----------------------------------------------------------
	 SCS Same-Spin Scale       =       0.3333333333333333 [-]
	 SCS Opposite-Spin Scale   =       1.2000000000000000 [-]
	 SCS Same-Spin Energy      =      -0.1161682965165410 [Eh]
	 SCS Opposite-Spin Energy  =      -1.5003253855235867 [Eh]
	 SCS Correlation Energy    =      -1.6164936820401277 [Eh]
	 SCS Total Energy          =    -330.3619886398995504 [Eh]
	-----------------------------------------------------------

  Dipole Moment: [D]
     X:    -4.4481      Y:     0.1003      Z:    -0.8710     Total:     4.5337

*** Psi4 exiting successfully. Buy a developer a beer!
