                               Psi4 1.4a3.dev225

  ==> Input File <==

--------------------------------------------------------------------------
#psi4
#
memory 32 gb

molecule  {
1 1
  N       -1.4549350    -0.0063160    -0.3913190
  C        0.7700580    -0.6819900     0.3309590
  C        0.8387740     0.6929140    -0.3473660
  C       -0.5772670    -1.2354140    -0.1320620
  C       -0.5771770     1.2100060    -0.1498930
  C        1.9243020    -1.6239510     0.0114420
  C        1.8934400     1.6361940     0.2164580
  C       -2.7287170     0.0116090     0.3933420
  H        0.7287260    -0.5174670     1.4168530
  H        1.0195210     0.5454130    -1.4226110
  H       -1.7088400    -0.0087310    -1.3861360
  H       -0.4895840    -1.7781730    -1.0771710
  H       -1.0806180    -1.8736500     0.5969550
  H       -0.7401010     1.5214000     0.8863980
  H       -0.8919120     2.0130950    -0.8209550
  H        2.8371926    -1.2124625     0.4474254
  H        1.7829480    -2.5983540     0.4871410
  H        2.0117000    -1.7770280    -1.0688530
  H        2.8946680     1.2288240     0.0607940
  H        1.8539810     2.6122500    -0.2745750
  H        1.7463830     1.7834510     1.2910380
  H       -2.4748400    -0.0372670     1.4518960
  H       -3.2625880     0.9370400     0.1753330
  H       -3.3330800    -0.8496000     0.1082720
units angstrom
no_reorient  #important for SAPT in psi4, default
symmetry c1  #important for SAPT in psi4, default
}

set PROPERTIES_ORIGIN ["COM"]
properties('MP2/aug-cc-pvtz', properties = ['dipole'])
--------------------------------------------------------------------------

    Molecular point group: c1
  Charge       = 1
  Multiplicity = 1
  Basis Set: AUG-CC-PVTZ
    Blend: AUG-CC-PVTZ
  Basis Set: (AUG-CC-PVTZ AUX)
    Blend: AUG-CC-PVTZ-JKFIT

    Orbital Energies [Eh]
    ---------------------

    Doubly Occupied:

       1A    -15.851906     2A    -11.448889     3A    -11.445852
       4A    -11.445580     5A    -11.390786     6A    -11.389797
       7A    -11.352759     8A    -11.352729     9A     -1.489246
      10A     -1.272083    11A     -1.193124    12A     -1.142616
      13A     -1.094960    14A     -1.065421    15A     -0.987045
      16A     -0.939189    17A     -0.902765    18A     -0.844796
      19A     -0.821996    20A     -0.786365    21A     -0.763292
      22A     -0.755423    23A     -0.734642    24A     -0.715880
      25A     -0.700896    26A     -0.698590    27A     -0.675294
      28A     -0.662783    29A     -0.647767    30A     -0.628253
      31A     -0.623111    32A     -0.602164

  @DF-RHF Final Energy:  -328.75360575960462

   => Energetics <=

    Nuclear Repulsion Energy =            424.5270915450128655
    One-Electron Energy =               -1273.7093978176301334
    Two-Electron Energy =                 520.4287005130127000
    Total Energy =                       -328.7536057596046248
  Basis Set: (AUG-CC-PVTZ AUX)
    Blend: AUG-CC-PVTZ-RI
    Molecular point group: c1

    Geometry (in Angstrom), charge = 1, multiplicity = 1:

       Center              X                  Y                   Z               Mass
    ------------   -----------------  -----------------  -----------------  -----------------
         N           -1.446593002616    -0.006426620954    -0.384953507997    14.003074004430
         C            0.778399997384    -0.682100620954     0.337324492003    12.000000000000
         C            0.847115997384     0.692803379046    -0.341000507997    12.000000000000
         C           -0.568925002616    -1.235524620954    -0.125696507997    12.000000000000
         C           -0.568835002616     1.209895379046    -0.143527507997    12.000000000000
         C            1.932643997384    -1.624061620954     0.017807492003    12.000000000000
         C            1.901781997384     1.636083379046     0.222823492003    12.000000000000
         C           -2.720375002616     0.011498379046     0.399707492003    12.000000000000
         H            0.737067997384    -0.517577620954     1.423218492003     1.007825032230
         H            1.027862997384     0.545302379046    -1.416245507997     1.007825032230
         H           -1.700498002616    -0.008841620954    -1.379770507997     1.007825032230
         H           -0.481242002616    -1.778283620954    -1.070805507997     1.007825032230
         H           -1.072276002616    -1.873760620954     0.603320492003     1.007825032230
         H           -0.731759002616     1.521289379046     0.892763492003     1.007825032230
         H           -0.883570002616     2.012984379046    -0.814589507997     1.007825032230
         H            2.845534597384    -1.212573120954     0.453790892003     1.007825032230
         H            1.791289997384    -2.598464620954     0.493506492003     1.007825032230
         H            2.020041997384    -1.777138620954    -1.062487507997     1.007825032230
         H            2.903009997384     1.228713379046     0.067159492003     1.007825032230
         H            1.862322997384     2.612139379046    -0.268209507997     1.007825032230
         H            1.754724997384     1.783340379046     1.297403492003     1.007825032230
         H           -2.466498002616    -0.037377620954     1.458261492003     1.007825032230
         H           -3.254246002616     0.936929379046     0.181698492003     1.007825032230
         H           -3.324738002616    -0.849710620954     0.114637492003     1.007825032230

  Basis Set: AUG-CC-PVTZ
    Blend: AUG-CC-PVTZ
  Basis Set: (AUG-CC-PVTZ AUX)
    Blend: AUG-CC-PVTZ-JKFIT
	 Reference Energy          =    -328.7536057596046248 [Eh]
	 Singles Energy            =      -0.0000000000000000 [Eh]
	 Same-Spin Energy          =      -0.3478482487706988 [Eh]
	 Opposite-Spin Energy      =      -1.2499507515249277 [Eh]
	 Correlation Energy        =      -1.5977990002956264 [Eh]
	 Total Energy              =    -330.3514047599002765 [Eh]

	 ================> DF-SCS-MP2 Energies <==================
	-----------------------------------------------------------
	 SCS Same-Spin Scale       =       0.3333333333333333 [-]
	 SCS Opposite-Spin Scale   =       1.2000000000000000 [-]
	 SCS Same-Spin Energy      =      -0.1159494162568996 [Eh]
	 SCS Opposite-Spin Energy  =      -1.4999409018299132 [Eh]
	 SCS Correlation Energy    =      -1.6158903180868127 [Eh]
	 SCS Total Energy          =    -330.3694960776914513 [Eh]
	-----------------------------------------------------------

  Dipole Moment: [D]
     X:    -4.3578      Y:    -0.0089      Z:    -0.8483     Total:     4.4396

*** Psi4 exiting successfully. Buy a developer a beer!
