                               Psi4 1.4a3.dev225

  ==> Input File <==

--------------------------------------------------------------------------
#psi4
#
memory 32 gb

molecule  {
1 1
  N       -1.4549350    -0.0063160    -0.3913190
  C        0.7700580    -0.6819900     0.3309590
  C        0.8387740     0.6929140    -0.3473660
  C       -0.5772670    -1.2354140    -0.1320620
  C       -0.5771770     1.2100060    -0.1498930
  C        1.9243020    -1.6239510     0.0114420
  C        1.8934400     1.6361940     0.2164580
  C       -2.7287170     0.0116090     0.3933420
  H        0.7287260    -0.5174670     1.4168530
  H        1.0195210     0.5454130    -1.4226110
  H       -1.7088400    -0.0087310    -1.3861360
  H       -0.4895840    -1.7781730    -1.0771710
  H       -1.0713980    -1.8619593     0.5836014
  H       -0.7401010     1.5214000     0.8863980
  H       -0.8919120     2.0130950    -0.8209550
  H        2.8677010    -1.2131930     0.3775700
  H        1.7829480    -2.5983540     0.4871410
  H        2.0117000    -1.7770280    -1.0688530
  H        2.8946680     1.2288240     0.0607940
  H        1.8539810     2.6122500    -0.2745750
  H        1.7463830     1.7834510     1.2910380
  H       -2.4748400    -0.0372670     1.4518960
  H       -3.2625880     0.9370400     0.1753330
  H       -3.3330800    -0.8496000     0.1082720
units angstrom
no_reorient  #important for SAPT in psi4, default
symmetry c1  #important for SAPT in psi4, default
}

set PROPERTIES_ORIGIN ["COM"]
properties('MP2/aug-cc-pvtz', properties = ['dipole'])
--------------------------------------------------------------------------

    Molecular point group: c1
  Charge       = 1
  Multiplicity = 1
  Basis Set: AUG-CC-PVTZ
    Blend: AUG-CC-PVTZ
  Basis Set: (AUG-CC-PVTZ AUX)
    Blend: AUG-CC-PVTZ-JKFIT

    Orbital Energies [Eh]
    ---------------------

    Doubly Occupied:

       1A    -15.852031     2A    -11.449061     3A    -11.445613
       4A    -11.444044     5A    -11.390831     6A    -11.390074
       7A    -11.352741     8A    -11.352479     9A     -1.489462
      10A     -1.272080    11A     -1.193909    12A     -1.142680
      13A     -1.095226    14A     -1.065865    15A     -0.988079
      16A     -0.939647    17A     -0.903339    18A     -0.845408
      19A     -0.822516    20A     -0.786726    21A     -0.764293
      22A     -0.755020    23A     -0.735726    24A     -0.715987
      25A     -0.701080    26A     -0.697616    27A     -0.676399
      28A     -0.662949    29A     -0.647517    30A     -0.628369
      31A     -0.622961    32A     -0.603108

  @DF-RHF Final Energy:  -328.75433685347014

   => Energetics <=

    Nuclear Repulsion Energy =            424.5908168599996202
    One-Electron Energy =               -1273.8246298967012535
    Two-Electron Energy =                 520.4794761832314407
    Total Energy =                       -328.7543368534701358
  Basis Set: (AUG-CC-PVTZ AUX)
    Blend: AUG-CC-PVTZ-RI
    Molecular point group: c1

    Geometry (in Angstrom), charge = 1, multiplicity = 1:

       Center              X                  Y                   Z               Mass
    ------------   -----------------  -----------------  -----------------  -----------------
         N           -1.446943829580    -0.006523406470    -0.384218719764    14.003074004430
         C            0.778049170420    -0.682197406470     0.338059280236    12.000000000000
         C            0.846765170420     0.692706593530    -0.340265719764    12.000000000000
         C           -0.569275829580    -1.235621406470    -0.124961719764    12.000000000000
         C           -0.569185829580     1.209798593530    -0.142792719764    12.000000000000
         C            1.932293170420    -1.624158406470     0.018542280236    12.000000000000
         C            1.901431170420     1.635986593530     0.223558280236    12.000000000000
         C           -2.720725829580     0.011401593530     0.400442280236    12.000000000000
         H            0.736717170420    -0.517674406470     1.423953280236     1.007825032230
         H            1.027512170420     0.545205593530    -1.415510719764     1.007825032230
         H           -1.700848829580    -0.008938406470    -1.379035719764     1.007825032230
         H           -0.481592829580    -1.778380406470    -1.070070719764     1.007825032230
         H           -1.063406829580    -1.862166706470     0.590701680236     1.007825032230
         H           -0.732109829580     1.521192593530     0.893498280236     1.007825032230
         H           -0.883920829580     2.012887593530    -0.813854719764     1.007825032230
         H            2.875692170420    -1.213400406470     0.384670280236     1.007825032230
         H            1.790939170420    -2.598561406470     0.494241280236     1.007825032230
         H            2.019691170420    -1.777235406470    -1.061752719764     1.007825032230
         H            2.902659170420     1.228616593530     0.067894280236     1.007825032230
         H            1.861972170420     2.612042593530    -0.267474719764     1.007825032230
         H            1.754374170420     1.783243593530     1.298138280236     1.007825032230
         H           -2.466848829580    -0.037474406470     1.458996280236     1.007825032230
         H           -3.254596829580     0.936832593530     0.182433280236     1.007825032230
         H           -3.325088829580    -0.849807406470     0.115372280236     1.007825032230

  Basis Set: AUG-CC-PVTZ
    Blend: AUG-CC-PVTZ
  Basis Set: (AUG-CC-PVTZ AUX)
    Blend: AUG-CC-PVTZ-JKFIT
	 Reference Energy          =    -328.7543368534701358 [Eh]
	 Singles Energy            =      -0.0000000000000000 [Eh]
	 Same-Spin Energy          =      -0.3477620666476230 [Eh]
	 Opposite-Spin Energy      =      -1.2496909642475220 [Eh]
	 Correlation Energy        =      -1.5974530308951449 [Eh]
	 Total Energy              =    -330.3517898843653029 [Eh]

	 ================> DF-SCS-MP2 Energies <==================
	-----------------------------------------------------------
	 SCS Same-Spin Scale       =       0.3333333333333333 [-]
	 SCS Opposite-Spin Scale   =       1.2000000000000000 [-]
	 SCS Same-Spin Energy      =      -0.1159206888825410 [Eh]
	 SCS Opposite-Spin Energy  =      -1.4996291570970264 [Eh]
	 SCS Correlation Energy    =      -1.6155498459795674 [Eh]
	 SCS Total Energy          =    -330.3698866994496939 [Eh]
	-----------------------------------------------------------

  Dipole Moment: [D]
     X:    -4.3594      Y:    -0.0007      Z:    -0.8677     Total:     4.4449

*** Psi4 exiting successfully. Buy a developer a beer!
