                               Psi4 1.4a3.dev225

  ==> Input File <==

--------------------------------------------------------------------------
#psi4
#
memory 32 gb

molecule  {
1 1
  N       -1.4549350    -0.0063160    -0.3913190
  C        0.7700580    -0.6819900     0.3309590
  C        0.8387740     0.6929140    -0.3473660
  C       -0.5772670    -1.2354140    -0.1320620
  C       -0.5771770     1.2100060    -0.1498930
  C        1.9243020    -1.6239510     0.0114420
  C        1.8934400     1.6361940     0.2164580
  C       -2.7287170     0.0116090     0.3933420
  H        0.7287260    -0.5174670     1.4168530
  H        1.0195210     0.5454130    -1.4226110
  H       -1.7088400    -0.0087310    -1.3861360
  H       -0.4895840    -1.7781730    -1.0771710
  H       -1.0806180    -1.8736500     0.5969550
  H       -0.7401010     1.5214000     0.8863980
  H       -0.8919120     2.0130950    -0.8209550
  H        2.8677010    -1.2131930     0.3775700
  H        1.7829480    -2.5983540     0.4871410
  H        2.0117000    -1.7770280    -1.0688530
  H        2.8946680     1.2288240     0.0607940
  H        1.8547028     2.5943952    -0.2655926
  H        1.7463830     1.7834510     1.2910380
  H       -2.4748400    -0.0372670     1.4518960
  H       -3.2625880     0.9370400     0.1753330
  H       -3.3330800    -0.8496000     0.1082720
units angstrom
no_reorient  #important for SAPT in psi4, default
symmetry c1  #important for SAPT in psi4, default
}

set PROPERTIES_ORIGIN ["COM"]
properties('MP2/aug-cc-pvtz', properties = ['dipole'])
--------------------------------------------------------------------------

    Molecular point group: c1
  Charge       = 1
  Multiplicity = 1
  Basis Set: AUG-CC-PVTZ
    Blend: AUG-CC-PVTZ
  Basis Set: (AUG-CC-PVTZ AUX)
    Blend: AUG-CC-PVTZ-JKFIT

    Orbital Energies [Eh]
    ---------------------

    Doubly Occupied:

       1A    -15.852117     2A    -11.448985     3A    -11.446119
       4A    -11.445656     5A    -11.390774     6A    -11.390037
       7A    -11.352407     8A    -11.350447     9A     -1.489398
      10A     -1.272080    11A     -1.193270    12A     -1.142743
      13A     -1.095528    14A     -1.065802    15A     -0.987770
      16A     -0.939599    17A     -0.903323    18A     -0.844923
      19A     -0.821973    20A     -0.786507    21A     -0.763154
      22A     -0.755341    23A     -0.735706    24A     -0.715610
      25A     -0.701223    26A     -0.697209    27A     -0.678314
      28A     -0.662860    29A     -0.647326    30A     -0.628263
      31A     -0.622902    32A     -0.603736

  @DF-RHF Final Energy:  -328.75423261727803

   => Energetics <=

    Nuclear Repulsion Energy =            424.5788516056837238
    One-Electron Energy =               -1273.8039684931368356
    Two-Electron Energy =                 520.4708842701751337
    Total Energy =                       -328.7542326172780349
  Basis Set: (AUG-CC-PVTZ AUX)
    Blend: AUG-CC-PVTZ-RI
    Molecular point group: c1

    Geometry (in Angstrom), charge = 1, multiplicity = 1:

       Center              X                  Y                   Z               Mass
    ------------   -----------------  -----------------  -----------------  -----------------
         N           -1.446868785085    -0.006262500970    -0.384415960807    14.003074004430
         C            0.778124214915    -0.681936500970     0.337862039193    12.000000000000
         C            0.846840214915     0.692967499030    -0.340462960807    12.000000000000
         C           -0.569200785085    -1.235360500970    -0.125158960807    12.000000000000
         C           -0.569110785085     1.210059499030    -0.142989960807    12.000000000000
         C            1.932368214915    -1.623897500970     0.018345039193    12.000000000000
         C            1.901506214915     1.636247499030     0.223361039193    12.000000000000
         C           -2.720650785085     0.011662499030     0.400245039193    12.000000000000
         H            0.736792214915    -0.517413500970     1.423756039193     1.007825032230
         H            1.027587214915     0.545466499030    -1.415707960807     1.007825032230
         H           -1.700773785085    -0.008677500970    -1.379232960807     1.007825032230
         H           -0.481517785085    -1.778119500970    -1.070267960807     1.007825032230
         H           -1.072551785085    -1.873596500970     0.603858039193     1.007825032230
         H           -0.732034785085     1.521453499030     0.893301039193     1.007825032230
         H           -0.883845785085     2.013148499030    -0.814051960807     1.007825032230
         H            2.875767214915    -1.213139500970     0.384473039193     1.007825032230
         H            1.791014214915    -2.598300500970     0.494044039193     1.007825032230
         H            2.019766214915    -1.776974500970    -1.061949960807     1.007825032230
         H            2.902734214915     1.228877499030     0.067697039193     1.007825032230
         H            1.862769014915     2.594448699030    -0.258689560807     1.007825032230
         H            1.754449214915     1.783504499030     1.297941039193     1.007825032230
         H           -2.466773785085    -0.037213500970     1.458799039193     1.007825032230
         H           -3.254521785085     0.937093499030     0.182236039193     1.007825032230
         H           -3.325013785085    -0.849546500970     0.115175039193     1.007825032230

  Basis Set: AUG-CC-PVTZ
    Blend: AUG-CC-PVTZ
  Basis Set: (AUG-CC-PVTZ AUX)
    Blend: AUG-CC-PVTZ-JKFIT
	 Reference Energy          =    -328.7542326172780349 [Eh]
	 Singles Energy            =      -0.0000000000000000 [Eh]
	 Same-Spin Energy          =      -0.3478066929569721 [Eh]
	 Opposite-Spin Energy      =      -1.2497419830250853 [Eh]
	 Correlation Energy        =      -1.5975486759820574 [Eh]
	 Total Energy              =    -330.3517812932601032 [Eh]

	 ================> DF-SCS-MP2 Energies <==================
	-----------------------------------------------------------
	 SCS Same-Spin Scale       =       0.3333333333333333 [-]
	 SCS Opposite-Spin Scale   =       1.2000000000000000 [-]
	 SCS Same-Spin Energy      =      -0.1159355643189907 [Eh]
	 SCS Opposite-Spin Energy  =      -1.4996903796301024 [Eh]
	 SCS Correlation Energy    =      -1.6156259439490932 [Eh]
	 SCS Total Energy          =    -330.3698585612271472 [Eh]
	-----------------------------------------------------------

  Dipole Moment: [D]
     X:    -4.3553      Y:     0.0085      Z:    -0.8685     Total:     4.4410

*** Psi4 exiting successfully. Buy a developer a beer!
