                               Psi4 1.4a3.dev225

  ==> Input File <==

--------------------------------------------------------------------------
#psi4
#
memory 32 gb

molecule  {
1 1
  N       -1.4549350    -0.0063160    -0.3913190
  C        0.7700580    -0.6819900     0.3309590
  C        0.8230819     0.7316202    -0.3802620
  C       -0.5772670    -1.2354140    -0.1320620
  C       -0.5771770     1.2100060    -0.1498930
  C        1.9243020    -1.6239510     0.0114420
  C        1.8934400     1.6361940     0.2164580
  C       -2.7287170     0.0116090     0.3933420
  H        0.7287260    -0.5174670     1.4168530
  H        1.0195210     0.5454130    -1.4226110
  H       -1.7088400    -0.0087310    -1.3861360
  H       -0.4895840    -1.7781730    -1.0771710
  H       -1.0806180    -1.8736500     0.5969550
  H       -0.7401010     1.5214000     0.8863980
  H       -0.8919120     2.0130950    -0.8209550
  H        2.8677010    -1.2131930     0.3775700
  H        1.7829480    -2.5983540     0.4871410
  H        2.0117000    -1.7770280    -1.0688530
  H        2.8946680     1.2288240     0.0607940
  H        1.8539810     2.6122500    -0.2745750
  H        1.7463830     1.7834510     1.2910380
  H       -2.4748400    -0.0372670     1.4518960
  H       -3.2625880     0.9370400     0.1753330
  H       -3.3330800    -0.8496000     0.1082720
units angstrom
no_reorient  #important for SAPT in psi4, default
symmetry c1  #important for SAPT in psi4, default
}

set PROPERTIES_ORIGIN ["COM"]
properties('MP2/aug-cc-pvtz', properties = ['dipole'])
--------------------------------------------------------------------------

    Molecular point group: c1
  Charge       = 1
  Multiplicity = 1
  Basis Set: AUG-CC-PVTZ
    Blend: AUG-CC-PVTZ
  Basis Set: (AUG-CC-PVTZ AUX)
    Blend: AUG-CC-PVTZ-JKFIT

    Orbital Energies [Eh]
    ---------------------

    Doubly Occupied:

       1A    -15.852359     2A    -11.449186     3A    -11.445655
       4A    -11.445472     5A    -11.391568     6A    -11.389686
       7A    -11.352892     8A    -11.352128     9A     -1.489585
      10A     -1.268345    11A     -1.195444    12A     -1.141979
      13A     -1.094949    14A     -1.065257    15A     -0.983121
      16A     -0.942255    17A     -0.903477    18A     -0.844831
      19A     -0.824225    20A     -0.786739    21A     -0.762178
      22A     -0.753357    23A     -0.734950    24A     -0.715635
      25A     -0.702500    26A     -0.696947    27A     -0.675463
      28A     -0.662526    29A     -0.649399    30A     -0.633002
      31A     -0.627730    32A     -0.589772

  @DF-RHF Final Energy:  -328.75188027951202

   => Energetics <=

    Nuclear Repulsion Energy =            424.1123056228733503
    One-Electron Energy =               -1272.8831481075401371
    Two-Electron Energy =                 520.0189622051548213
    Total Energy =                       -328.7518802795119655
  Basis Set: (AUG-CC-PVTZ AUX)
    Blend: AUG-CC-PVTZ-RI
    Molecular point group: c1

    Geometry (in Angstrom), charge = 1, multiplicity = 1:

       Center              X                  Y                   Z               Mass
    ------------   -----------------  -----------------  -----------------  -----------------
         N           -1.445212467675    -0.010489927666    -0.380877795622    14.003074004430
         C            0.779780532325    -0.686163927666     0.341400204378    12.000000000000
         C            0.832804432325     0.727446272334    -0.369820795622    12.000000000000
         C           -0.567544467675    -1.239587927666    -0.121620795622    12.000000000000
         C           -0.567454467675     1.205832072334    -0.139451795622    12.000000000000
         C            1.934024532325    -1.628124927666     0.021883204378    12.000000000000
         C            1.903162532325     1.632020072334     0.226899204378    12.000000000000
         C           -2.718994467675     0.007435072334     0.403783204378    12.000000000000
         H            0.738448532325    -0.521640927666     1.427294204378     1.007825032230
         H            1.029243532325     0.541239072334    -1.412169795622     1.007825032230
         H           -1.699117467675    -0.012904927666    -1.375694795622     1.007825032230
         H           -0.479861467675    -1.782346927666    -1.066729795622     1.007825032230
         H           -1.070895467675    -1.877823927666     0.607396204378     1.007825032230
         H           -0.730378467675     1.517226072334     0.896839204378     1.007825032230
         H           -0.882189467675     2.008921072334    -0.810513795622     1.007825032230
         H            2.877423532325    -1.217366927666     0.388011204378     1.007825032230
         H            1.792670532325    -2.602527927666     0.497582204378     1.007825032230
         H            2.021422532325    -1.781201927666    -1.058411795622     1.007825032230
         H            2.904390532325     1.224650072334     0.071235204378     1.007825032230
         H            1.863703532325     2.608076072334    -0.264133795622     1.007825032230
         H            1.756105532325     1.779277072334     1.301479204378     1.007825032230
         H           -2.465117467675    -0.041440927666     1.462337204378     1.007825032230
         H           -3.252865467675     0.932866072334     0.185774204378     1.007825032230
         H           -3.323357467675    -0.853773927666     0.118713204378     1.007825032230

  Basis Set: AUG-CC-PVTZ
    Blend: AUG-CC-PVTZ
  Basis Set: (AUG-CC-PVTZ AUX)
    Blend: AUG-CC-PVTZ-JKFIT
	 Reference Energy          =    -328.7518802795120223 [Eh]
	 Singles Energy            =      -0.0000000000000000 [Eh]
	 Same-Spin Energy          =      -0.3478123081392769 [Eh]
	 Opposite-Spin Energy      =      -1.2499489779141135 [Eh]
	 Correlation Energy        =      -1.5977612860533905 [Eh]
	 Total Energy              =    -330.3496415655654346 [Eh]

	 ================> DF-SCS-MP2 Energies <==================
	-----------------------------------------------------------
	 SCS Same-Spin Scale       =       0.3333333333333333 [-]
	 SCS Opposite-Spin Scale   =       1.2000000000000000 [-]
	 SCS Same-Spin Energy      =      -0.1159374360464256 [Eh]
	 SCS Opposite-Spin Energy  =      -1.4999387734969363 [Eh]
	 SCS Correlation Energy    =      -1.6158762095433619 [Eh]
	 SCS Total Energy          =    -330.3677564890554095 [Eh]
	-----------------------------------------------------------

  Dipole Moment: [D]
     X:    -4.3441      Y:    -0.0118      Z:    -0.8574     Total:     4.4279

*** Psi4 exiting successfully. Buy a developer a beer!
