                               Psi4 1.4a3.dev225

  ==> Input File <==

--------------------------------------------------------------------------
#psi4
#
memory 32 gb

molecule  {
1 1
  N       -1.4549350    -0.0063160    -0.3913190
  C        0.7700580    -0.6819900     0.3309590
  C        0.8387740     0.6929140    -0.3473660
  C       -0.5772670    -1.2354140    -0.1320620
  C       -0.5771770     1.2100060    -0.1498930
  C        1.9243020    -1.6239510     0.0114420
  C        1.8934400     1.6361940     0.2164580
  C       -2.7287170     0.0116090     0.3933420
  H        0.7287260    -0.5174670     1.4168530
  H        1.0195210     0.5454130    -1.4226110
  H       -1.7088400    -0.0087310    -1.3861360
  H       -0.4895840    -1.7781730    -1.0771710
  H       -1.0806180    -1.8736500     0.5969550
  H       -0.7401010     1.5214000     0.8863980
  H       -0.8919120     2.0130950    -0.8209550
  H        2.8677010    -1.2131930     0.3775700
  H        1.7829480    -2.5983540     0.4871410
  H        2.0117000    -1.7770280    -1.0688530
  H        2.8975838     1.2292407     0.0796252
  H        1.8539810     2.6122500    -0.2745750
  H        1.7463830     1.7834510     1.2910380
  H       -2.4748400    -0.0372670     1.4518960
  H       -3.2625880     0.9370400     0.1753330
  H       -3.3330800    -0.8496000     0.1082720
units angstrom
no_reorient  #important for SAPT in psi4, default
symmetry c1  #important for SAPT in psi4, default
}

set PROPERTIES_ORIGIN ["COM"]
properties('MP2/aug-cc-pvtz', properties = ['dipole'])
--------------------------------------------------------------------------

    Molecular point group: c1
  Charge       = 1
  Multiplicity = 1
  Basis Set: AUG-CC-PVTZ
    Blend: AUG-CC-PVTZ
  Basis Set: (AUG-CC-PVTZ AUX)
    Blend: AUG-CC-PVTZ-JKFIT

    Orbital Energies [Eh]
    ---------------------

    Doubly Occupied:

       1A    -15.852195     2A    -11.449038     3A    -11.446217
       4A    -11.445750     5A    -11.391007     6A    -11.390198
       7A    -11.352747     8A    -11.352499     9A     -1.489475
      10A     -1.272083    11A     -1.193167    12A     -1.142632
      13A     -1.094763    14A     -1.065491    15A     -0.987292
      16A     -0.939690    17A     -0.903367    18A     -0.844810
      19A     -0.821989    20A     -0.786318    21A     -0.763220
      22A     -0.754910    23A     -0.735430    24A     -0.715434
      25A     -0.700645    26A     -0.697174    27A     -0.676657
      28A     -0.663207    29A     -0.647092    30A     -0.628555
      31A     -0.622715    32A     -0.603133

  @DF-RHF Final Energy:  -328.75418681528021

   => Energetics <=

    Nuclear Repulsion Energy =            424.4788147493199517
    One-Electron Energy =               -1273.6082000808485191
    Two-Electron Energy =                 520.3751985162482470
    Total Energy =                       -328.7541868152802635
  Basis Set: (AUG-CC-PVTZ AUX)
    Blend: AUG-CC-PVTZ-RI
    Molecular point group: c1

    Geometry (in Angstrom), charge = 1, multiplicity = 1:

       Center              X                  Y                   Z               Mass
    ------------   -----------------  -----------------  -----------------  -----------------
         N           -1.446888159497    -0.006423849901    -0.384502931956    14.003074004430
         C            0.778104840503    -0.682097849901     0.337775068044    12.000000000000
         C            0.846820840503     0.692806150099    -0.340549931956    12.000000000000
         C           -0.569220159497    -1.235521849901    -0.125245931956    12.000000000000
         C           -0.569130159497     1.209898150099    -0.143076931956    12.000000000000
         C            1.932348840503    -1.624058849901     0.018258068044    12.000000000000
         C            1.901486840503     1.636086150099     0.223274068044    12.000000000000
         C           -2.720670159497     0.011501150099     0.400158068044    12.000000000000
         H            0.736772840503    -0.517574849901     1.423669068044     1.007825032230
         H            1.027567840503     0.545305150099    -1.415794931956     1.007825032230
         H           -1.700793159497    -0.008838849901    -1.379319931956     1.007825032230
         H           -0.481537159497    -1.778280849901    -1.070354931956     1.007825032230
         H           -1.072571159497    -1.873757849901     0.603771068044     1.007825032230
         H           -0.732054159497     1.521292150099     0.893214068044     1.007825032230
         H           -0.883865159497     2.012987150099    -0.814138931956     1.007825032230
         H            2.875747840503    -1.213300849901     0.384386068044     1.007825032230
         H            1.790994840503    -2.598461849901     0.493957068044     1.007825032230
         H            2.019746840503    -1.777135849901    -1.062036931956     1.007825032230
         H            2.905630640503     1.229132850099     0.086441268044     1.007825032230
         H            1.862027840503     2.612142150099    -0.267758931956     1.007825032230
         H            1.754429840503     1.783343150099     1.297854068044     1.007825032230
         H           -2.466793159497    -0.037374849901     1.458712068044     1.007825032230
         H           -3.254541159497     0.936932150099     0.182149068044     1.007825032230
         H           -3.325033159497    -0.849707849901     0.115088068044     1.007825032230

  Basis Set: AUG-CC-PVTZ
    Blend: AUG-CC-PVTZ
  Basis Set: (AUG-CC-PVTZ AUX)
    Blend: AUG-CC-PVTZ-JKFIT
	 Reference Energy          =    -328.7541868152802067 [Eh]
	 Singles Energy            =      -0.0000000000000000 [Eh]
	 Same-Spin Energy          =      -0.3478007735466804 [Eh]
	 Opposite-Spin Energy      =      -1.2498539814254856 [Eh]
	 Correlation Energy        =      -1.5976547549721660 [Eh]
	 Total Energy              =    -330.3518415702523612 [Eh]

	 ================> DF-SCS-MP2 Energies <==================
	-----------------------------------------------------------
	 SCS Same-Spin Scale       =       0.3333333333333333 [-]
	 SCS Opposite-Spin Scale   =       1.2000000000000000 [-]
	 SCS Same-Spin Energy      =      -0.1159335911822268 [Eh]
	 SCS Opposite-Spin Energy  =      -1.4998247777105826 [Eh]
	 SCS Correlation Energy    =      -1.6157583688928094 [Eh]
	 SCS Total Energy          =    -330.3699451841729910 [Eh]
	-----------------------------------------------------------

  Dipole Moment: [D]
     X:    -4.3569      Y:    -0.0012      Z:    -0.8614     Total:     4.4413

*** Psi4 exiting successfully. Buy a developer a beer!
