                               Psi4 1.4a3.dev225

  ==> Input File <==

--------------------------------------------------------------------------
#psi4
#
memory 32 gb

molecule  {
1 1
  N       -1.4549350    -0.0063160    -0.3913190
  C        0.7700580    -0.6819900     0.3309590
  C        0.8396695     0.7108319    -0.3562060
  C       -0.5772670    -1.2354140    -0.1320620
  C       -0.5771770     1.2100060    -0.1498930
  C        1.9243020    -1.6239510     0.0114420
  C        1.8934400     1.6361940     0.2164580
  C       -2.7287170     0.0116090     0.3933420
  H        0.7287260    -0.5174670     1.4168530
  H        1.0195210     0.5454130    -1.4226110
  H       -1.7088400    -0.0087310    -1.3861360
  H       -0.4895840    -1.7781730    -1.0771710
  H       -1.0806180    -1.8736500     0.5969550
  H       -0.7401010     1.5214000     0.8863980
  H       -0.8919120     2.0130950    -0.8209550
  H        2.8677010    -1.2131930     0.3775700
  H        1.7829480    -2.5983540     0.4871410
  H        2.0117000    -1.7770280    -1.0688530
  H        2.8946680     1.2288240     0.0607940
  H        1.8539810     2.6122500    -0.2745750
  H        1.7463830     1.7834510     1.2910380
  H       -2.4748400    -0.0372670     1.4518960
  H       -3.2625880     0.9370400     0.1753330
  H       -3.3330800    -0.8496000     0.1082720
units angstrom
no_reorient  #important for SAPT in psi4, default
symmetry c1  #important for SAPT in psi4, default
}

set PROPERTIES_ORIGIN ["COM"]
properties('MP2/aug-cc-pvtz', properties = ['dipole'])
--------------------------------------------------------------------------

    Molecular point group: c1
  Charge       = 1
  Multiplicity = 1
  Basis Set: AUG-CC-PVTZ
    Blend: AUG-CC-PVTZ
  Basis Set: (AUG-CC-PVTZ AUX)
    Blend: AUG-CC-PVTZ-JKFIT

    Orbital Energies [Eh]
    ---------------------

    Doubly Occupied:

       1A    -15.852365     2A    -11.449136     3A    -11.446076
       4A    -11.445670     5A    -11.391060     6A    -11.390463
       7A    -11.352444     8A    -11.352273     9A     -1.489336
      10A     -1.270385    11A     -1.193981    12A     -1.142651
      13A     -1.095544    14A     -1.065469    15A     -0.985207
      16A     -0.940195    17A     -0.903318    18A     -0.844727
      19A     -0.822546    20A     -0.786310    21A     -0.762672
      22A     -0.754467    23A     -0.735403    24A     -0.715501
      25A     -0.701636    26A     -0.697114    27A     -0.676290
      28A     -0.663637    29A     -0.648229    30A     -0.629880
      31A     -0.624907    32A     -0.597516

  @DF-RHF Final Energy:  -328.75391249254494

   => Energetics <=

    Nuclear Repulsion Energy =            424.2971225846627021
    One-Electron Energy =               -1273.2492576153558730
    Two-Electron Energy =                 520.1982225381482294
    Total Energy =                       -328.7539124925449414
  Basis Set: (AUG-CC-PVTZ AUX)
    Blend: AUG-CC-PVTZ-RI
    Molecular point group: c1

    Geometry (in Angstrom), charge = 1, multiplicity = 1:

       Center              X                  Y                   Z               Mass
    ------------   -----------------  -----------------  -----------------  -----------------
         N           -1.446956568344    -0.008304145036    -0.383407160069    14.003074004430
         C            0.778036431656    -0.683978145036     0.338870839931    12.000000000000
         C            0.847647931656     0.708843754964    -0.348294160069    12.000000000000
         C           -0.569288568344    -1.237402145036    -0.124150160069    12.000000000000
         C           -0.569198568344     1.208017854964    -0.141981160069    12.000000000000
         C            1.932280431656    -1.625939145036     0.019353839931    12.000000000000
         C            1.901418431656     1.634205854964     0.224369839931    12.000000000000
         C           -2.720738568344     0.009620854964     0.401253839931    12.000000000000
         H            0.736704431656    -0.519455145036     1.424764839931     1.007825032230
         H            1.027499431656     0.543424854964    -1.414699160069     1.007825032230
         H           -1.700861568344    -0.010719145036    -1.378224160069     1.007825032230
         H           -0.481605568344    -1.780161145036    -1.069259160069     1.007825032230
         H           -1.072639568344    -1.875638145036     0.604866839931     1.007825032230
         H           -0.732122568344     1.519411854964     0.894309839931     1.007825032230
         H           -0.883933568344     2.011106854964    -0.813043160069     1.007825032230
         H            2.875679431656    -1.215181145036     0.385481839931     1.007825032230
         H            1.790926431656    -2.600342145036     0.495052839931     1.007825032230
         H            2.019678431656    -1.779016145036    -1.060941160069     1.007825032230
         H            2.902646431656     1.226835854964     0.068705839931     1.007825032230
         H            1.861959431656     2.610261854964    -0.266663160069     1.007825032230
         H            1.754361431656     1.781462854964     1.298949839931     1.007825032230
         H           -2.466861568344    -0.039255145036     1.459807839931     1.007825032230
         H           -3.254609568344     0.935051854964     0.183244839931     1.007825032230
         H           -3.325101568344    -0.851588145036     0.116183839931     1.007825032230

  Basis Set: AUG-CC-PVTZ
    Blend: AUG-CC-PVTZ
  Basis Set: (AUG-CC-PVTZ AUX)
    Blend: AUG-CC-PVTZ-JKFIT
	 Reference Energy          =    -328.7539124925449414 [Eh]
	 Singles Energy            =      -0.0000000000000000 [Eh]
	 Same-Spin Energy          =      -0.3477818932120637 [Eh]
	 Opposite-Spin Energy      =      -1.2498575297088648 [Eh]
	 Correlation Energy        =      -1.5976394229209285 [Eh]
	 Total Energy              =    -330.3515519154658477 [Eh]

	 ================> DF-SCS-MP2 Energies <==================
	-----------------------------------------------------------
	 SCS Same-Spin Scale       =       0.3333333333333333 [-]
	 SCS Opposite-Spin Scale   =       1.2000000000000000 [-]
	 SCS Same-Spin Energy      =      -0.1159272977373546 [Eh]
	 SCS Opposite-Spin Energy  =      -1.4998290356506376 [Eh]
	 SCS Correlation Energy    =      -1.6157563333879921 [Eh]
	 SCS Total Energy          =    -330.3696688259329335 [Eh]
	-----------------------------------------------------------

  Dipole Moment: [D]
     X:    -4.3557      Y:    -0.0047      Z:    -0.8638     Total:     4.4406

*** Psi4 exiting successfully. Buy a developer a beer!
