                               Psi4 1.4a3.dev225

  ==> Input File <==

--------------------------------------------------------------------------
#psi4
#
memory 32 gb

molecule  {
1 1
  N       -1.4549350    -0.0063160    -0.3913190
  C        0.7700580    -0.6819900     0.3309590
  C        0.8387740     0.6929140    -0.3473660
  C       -0.5772670    -1.2354140    -0.1320620
  C       -0.5771770     1.2100060    -0.1498930
  C        1.9243020    -1.6239510     0.0114420
  C        1.8934400     1.6361940     0.2164580
  C       -2.7287170     0.0116090     0.3933420
  H        0.7287260    -0.5174670     1.4168530
  H        1.0195210     0.5454130    -1.4226110
  H       -1.7088400    -0.0087310    -1.3861360
  H       -0.4895840    -1.7781730    -1.0771710
  H       -1.0806180    -1.8736500     0.5969550
  H       -0.7401010     1.5214000     0.8863980
  H       -0.8919120     2.0130950    -0.8209550
  H        2.8677010    -1.2131930     0.3775700
  H        1.7829480    -2.5983540     0.4871410
  H        2.0117000    -1.7770280    -1.0688530
  H        2.8946680     1.2288240     0.0607940
  H        1.8575901     2.5229758    -0.2296630
  H        1.7463830     1.7834510     1.2910380
  H       -2.4748400    -0.0372670     1.4518960
  H       -3.2625880     0.9370400     0.1753330
  H       -3.3330800    -0.8496000     0.1082720
units angstrom
no_reorient  #important for SAPT in psi4, default
symmetry c1  #important for SAPT in psi4, default
}

set PROPERTIES_ORIGIN ["COM"]
properties('MP2/aug-cc-pvtz', properties = ['dipole'])
--------------------------------------------------------------------------

    Molecular point group: c1
  Charge       = 1
  Multiplicity = 1
  Basis Set: AUG-CC-PVTZ
    Blend: AUG-CC-PVTZ
  Basis Set: (AUG-CC-PVTZ AUX)
    Blend: AUG-CC-PVTZ-JKFIT

    Orbital Energies [Eh]
    ---------------------

    Doubly Occupied:

       1A    -15.852039     2A    -11.448914     3A    -11.445852
       4A    -11.445634     5A    -11.390304     6A    -11.389621
       7A    -11.352119     8A    -11.340841     9A     -1.489292
      10A     -1.272223    11A     -1.193950    12A     -1.143460
      13A     -1.099308    14A     -1.067172    15A     -0.990297
      16A     -0.939846    17A     -0.903384    18A     -0.845806
      19A     -0.821809    20A     -0.787467    21A     -0.763023
      22A     -0.757805    23A     -0.737583    24A     -0.716582
      25A     -0.702032    26A     -0.697069    27A     -0.685176
      28A     -0.662470    29A     -0.647047    30A     -0.627869
      31A     -0.622699    32A     -0.606199

  @DF-RHF Final Energy:  -328.74811174922974

   => Energetics <=

    Nuclear Repulsion Energy =            424.9687136384703763
    One-Electron Energy =               -1274.5438655125051355
    Two-Electron Energy =                 520.8270401248049666
    Total Energy =                       -328.7481117492297926
  Basis Set: (AUG-CC-PVTZ AUX)
    Blend: AUG-CC-PVTZ-RI
    Molecular point group: c1

    Geometry (in Angstrom), charge = 1, multiplicity = 1:

       Center              X                  Y                   Z               Mass
    ------------   -----------------  -----------------  -----------------  -----------------
         N           -1.446894281775    -0.005631822382    -0.384733241958    14.003074004430
         C            0.778098718225    -0.681305822382     0.337544758042    12.000000000000
         C            0.846814718225     0.693598177618    -0.340780241958    12.000000000000
         C           -0.569226281775    -1.234729822382    -0.125476241958    12.000000000000
         C           -0.569136281775     1.210690177618    -0.143307241958    12.000000000000
         C            1.932342718225    -1.623266822382     0.018027758042    12.000000000000
         C            1.901480718225     1.636878177618     0.223043758042    12.000000000000
         C           -2.720676281775     0.012293177618     0.399927758042    12.000000000000
         H            0.736766718225    -0.516782822382     1.423438758042     1.007825032230
         H            1.027561718225     0.546097177618    -1.416025241958     1.007825032230
         H           -1.700799281775    -0.008046822382    -1.379550241958     1.007825032230
         H           -0.481543281775    -1.777488822382    -1.070585241958     1.007825032230
         H           -1.072577281775    -1.872965822382     0.603540758042     1.007825032230
         H           -0.732060281775     1.522084177618     0.892983758042     1.007825032230
         H           -0.883871281775     2.013779177618    -0.814369241958     1.007825032230
         H            2.875741718225    -1.212508822382     0.384155758042     1.007825032230
         H            1.790988718225    -2.597669822382     0.493726758042     1.007825032230
         H            2.019740718225    -1.776343822382    -1.062267241958     1.007825032230
         H            2.902708718225     1.229508177618     0.067379758042     1.007825032230
         H            1.865630818225     2.523659977618    -0.223077241958     1.007825032230
         H            1.754423718225     1.784135177618     1.297623758042     1.007825032230
         H           -2.466799281775    -0.036582822382     1.458481758042     1.007825032230
         H           -3.254547281775     0.937724177618     0.181918758042     1.007825032230
         H           -3.325039281775    -0.848915822382     0.114857758042     1.007825032230

  Basis Set: AUG-CC-PVTZ
    Blend: AUG-CC-PVTZ
  Basis Set: (AUG-CC-PVTZ AUX)
    Blend: AUG-CC-PVTZ-JKFIT
	 Reference Energy          =    -328.7481117492297358 [Eh]
	 Singles Energy            =      -0.0000000000000000 [Eh]
	 Same-Spin Energy          =      -0.3478365437487409 [Eh]
	 Opposite-Spin Energy      =      -1.2493696953684386 [Eh]
	 Correlation Energy        =      -1.5972062391171795 [Eh]
	 Total Energy              =    -330.3453179883468920 [Eh]

	 ================> DF-SCS-MP2 Energies <==================
	-----------------------------------------------------------
	 SCS Same-Spin Scale       =       0.3333333333333333 [-]
	 SCS Opposite-Spin Scale   =       1.2000000000000000 [-]
	 SCS Same-Spin Energy      =      -0.1159455145829136 [Eh]
	 SCS Opposite-Spin Energy  =      -1.4992436344421263 [Eh]
	 SCS Correlation Energy    =      -1.6151891490250398 [Eh]
	 SCS Total Energy          =    -330.3633008982547494 [Eh]
	-----------------------------------------------------------

  Dipole Moment: [D]
     X:    -4.3523      Y:     0.0333      Z:    -0.8749     Total:     4.4395

*** Psi4 exiting successfully. Buy a developer a beer!
