                               Psi4 1.4a3.dev225

  ==> Input File <==

--------------------------------------------------------------------------
#psi4
#
memory 32 gb

molecule  {
1 1
  N       -1.4549350    -0.0063160    -0.3913190
  C        0.7700580    -0.6819900     0.3309590
  C        0.8387740     0.6929140    -0.3473660
  C       -0.5772670    -1.2354140    -0.1320620
  C       -0.5771770     1.2100060    -0.1498930
  C        1.9243020    -1.6239510     0.0114420
  C        1.8934400     1.6361940     0.2164580
  C       -2.7287170     0.0116090     0.3933420
  H        0.7287260    -0.5174670     1.4168530
  H        1.0195210     0.5454130    -1.4226110
  H       -1.7088400    -0.0087310    -1.3861360
  H       -0.4895840    -1.7781730    -1.0771710
  H       -1.0806180    -1.8736500     0.5969550
  H       -0.7401010     1.5214000     0.8863980
  H       -0.8919120     2.0130950    -0.8209550
  H        2.8936133    -1.2159247     0.3059309
  H        1.7829480    -2.5983540     0.4871410
  H        2.0117000    -1.7770280    -1.0688530
  H        2.8946680     1.2288240     0.0607940
  H        1.8539810     2.6122500    -0.2745750
  H        1.7463830     1.7834510     1.2910380
  H       -2.4748400    -0.0372670     1.4518960
  H       -3.2625880     0.9370400     0.1753330
  H       -3.3330800    -0.8496000     0.1082720
units angstrom
no_reorient  #important for SAPT in psi4, default
symmetry c1  #important for SAPT in psi4, default
}

set PROPERTIES_ORIGIN ["COM"]
properties('MP2/aug-cc-pvtz', properties = ['dipole'])
--------------------------------------------------------------------------

    Molecular point group: c1
  Charge       = 1
  Multiplicity = 1
  Basis Set: AUG-CC-PVTZ
    Blend: AUG-CC-PVTZ
  Basis Set: (AUG-CC-PVTZ AUX)
    Blend: AUG-CC-PVTZ-JKFIT

    Orbital Energies [Eh]
    ---------------------

    Doubly Occupied:

       1A    -15.852356     2A    -11.449114     3A    -11.446499
       4A    -11.445753     5A    -11.391116     6A    -11.390501
       7A    -11.352824     8A    -11.352283     9A     -1.489601
      10A     -1.272099    11A     -1.193200    12A     -1.142649
      13A     -1.094707    14A     -1.065585    15A     -0.987409
      16A     -0.939971    17A     -0.903884    18A     -0.844733
      19A     -0.822059    20A     -0.786365    21A     -0.763151
      22A     -0.754408    23A     -0.736074    24A     -0.715062
      25A     -0.701573    26A     -0.696363    27A     -0.677220
      28A     -0.663009    29A     -0.646928    30A     -0.628163
      31A     -0.622042    32A     -0.603639

  @DF-RHF Final Energy:  -328.75369652700431

   => Energetics <=

    Nuclear Repulsion Energy =            424.4520786533057617
    One-Electron Energy =               -1273.5508649762950881
    Two-Electron Energy =                 520.3450897959850181
    Total Energy =                       -328.7536965270043083
  Basis Set: (AUG-CC-PVTZ AUX)
    Blend: AUG-CC-PVTZ-RI
    Molecular point group: c1

    Geometry (in Angstrom), charge = 1, multiplicity = 1:

       Center              X                  Y                   Z               Mass
    ------------   -----------------  -----------------  -----------------  -----------------
         N           -1.447091233174    -0.006396047533    -0.383704021841    14.003074004430
         C            0.777901766826    -0.682070047533     0.338573978159    12.000000000000
         C            0.846617766826     0.692833952467    -0.339751021841    12.000000000000
         C           -0.569423233174    -1.235494047533    -0.124447021841    12.000000000000
         C           -0.569333233174     1.209925952467    -0.142278021841    12.000000000000
         C            1.932145766826    -1.624031047533     0.019056978159    12.000000000000
         C            1.901283766826     1.636113952467     0.224072978159    12.000000000000
         C           -2.720873233174     0.011528952467     0.400956978159    12.000000000000
         H            0.736569766826    -0.517547047533     1.424467978159     1.007825032230
         H            1.027364766826     0.545332952467    -1.414996021841     1.007825032230
         H           -1.700996233174    -0.008811047533    -1.378521021841     1.007825032230
         H           -0.481740233174    -1.778253047533    -1.069556021841     1.007825032230
         H           -1.072774233174    -1.873730047533     0.604569978159     1.007825032230
         H           -0.732257233174     1.521319952467     0.894012978159     1.007825032230
         H           -0.884068233174     2.013014952467    -0.813340021841     1.007825032230
         H            2.901457066826    -1.216004747533     0.313545878159     1.007825032230
         H            1.790791766826    -2.598434047533     0.494755978159     1.007825032230
         H            2.019543766826    -1.777108047533    -1.061238021841     1.007825032230
         H            2.902511766826     1.228743952467     0.068408978159     1.007825032230
         H            1.861824766826     2.612169952467    -0.266960021841     1.007825032230
         H            1.754226766826     1.783370952467     1.298652978159     1.007825032230
         H           -2.466996233174    -0.037347047533     1.459510978159     1.007825032230
         H           -3.254744233174     0.936959952467     0.182947978159     1.007825032230
         H           -3.325236233174    -0.849680047533     0.115886978159     1.007825032230

  Basis Set: AUG-CC-PVTZ
    Blend: AUG-CC-PVTZ
  Basis Set: (AUG-CC-PVTZ AUX)
    Blend: AUG-CC-PVTZ-JKFIT
	 Reference Energy          =    -328.7536965270043083 [Eh]
	 Singles Energy            =      -0.0000000000000000 [Eh]
	 Same-Spin Energy          =      -0.3478097932889810 [Eh]
	 Opposite-Spin Energy      =      -1.2498518182124991 [Eh]
	 Correlation Energy        =      -1.5976616115014801 [Eh]
	 Total Energy              =    -330.3513581385058160 [Eh]

	 ================> DF-SCS-MP2 Energies <==================
	-----------------------------------------------------------
	 SCS Same-Spin Scale       =       0.3333333333333333 [-]
	 SCS Opposite-Spin Scale   =       1.2000000000000000 [-]
	 SCS Same-Spin Energy      =      -0.1159365977629937 [Eh]
	 SCS Opposite-Spin Energy  =      -1.4998221818549988 [Eh]
	 SCS Correlation Energy    =      -1.6157587796179924 [Eh]
	 SCS Total Energy          =    -330.3694553066222852 [Eh]
	-----------------------------------------------------------

  Dipole Moment: [D]
     X:    -4.3549      Y:     0.0099      Z:    -0.8874     Total:     4.4444

*** Psi4 exiting successfully. Buy a developer a beer!
