                               Psi4 1.4a3.dev225

  ==> Input File <==

--------------------------------------------------------------------------
#psi4
#
memory 32 gb

molecule  {
1 1
  N       -1.4549350    -0.0063160    -0.3913190
  C        0.7700580    -0.6819900     0.3309590
  C        0.8387740     0.6929140    -0.3473660
  C       -0.5772670    -1.2354140    -0.1320620
  C       -0.5771770     1.2100060    -0.1498930
  C        1.9243020    -1.6239510     0.0114420
  C        1.8934400     1.6361940     0.2164580
  C       -2.7287170     0.0116090     0.3933420
  H        0.7287260    -0.5174670     1.4168530
  H        1.0195210     0.5454130    -1.4226110
  H       -1.7088400    -0.0087310    -1.3861360
  H       -0.4895840    -1.7781730    -1.0771710
  H       -1.0806180    -1.8736500     0.5969550
  H       -0.7401010     1.5214000     0.8863980
  H       -0.8919120     2.0130950    -0.8209550
  H        2.8677010    -1.2131930     0.3775700
  H        1.7829480    -2.5983540     0.4871410
  H        2.0117000    -1.7770280    -1.0688530
  H        2.9075605     1.2331795     0.1742912
  H        1.8539810     2.6122500    -0.2745750
  H        1.7463830     1.7834510     1.2910380
  H       -2.4748400    -0.0372670     1.4518960
  H       -3.2625880     0.9370400     0.1753330
  H       -3.3330800    -0.8496000     0.1082720
units angstrom
no_reorient  #important for SAPT in psi4, default
symmetry c1  #important for SAPT in psi4, default
}

set PROPERTIES_ORIGIN ["COM"]
properties('MP2/aug-cc-pvtz', properties = ['dipole'])
--------------------------------------------------------------------------

    Molecular point group: c1
  Charge       = 1
  Multiplicity = 1
  Basis Set: AUG-CC-PVTZ
    Blend: AUG-CC-PVTZ
  Basis Set: (AUG-CC-PVTZ AUX)
    Blend: AUG-CC-PVTZ-JKFIT

    Orbital Energies [Eh]
    ---------------------

    Doubly Occupied:

       1A    -15.852435     2A    -11.449179     3A    -11.446316
       4A    -11.446121     5A    -11.391546     6A    -11.390368
       7A    -11.352524     8A    -11.352515     9A     -1.489675
      10A     -1.272114    11A     -1.193238    12A     -1.142673
      13A     -1.094675    14A     -1.065566    15A     -0.987728
      16A     -0.940372    17A     -0.903600    18A     -0.845099
      19A     -0.821865    20A     -0.786242    21A     -0.763315
      22A     -0.754988    23A     -0.736182    24A     -0.715657
      25A     -0.699355    26A     -0.696298    27A     -0.678290
      28A     -0.664229    29A     -0.645503    30A     -0.628906
      31A     -0.620794    32A     -0.603844

  @DF-RHF Final Energy:  -328.75302411710089

   => Energetics <=

    Nuclear Repulsion Energy =            424.4402946916916335
    One-Electron Energy =               -1273.5242148182398978
    Two-Electron Energy =                 520.3308960094474287
    Total Energy =                       -328.7530241171008356
  Basis Set: (AUG-CC-PVTZ AUX)
    Blend: AUG-CC-PVTZ-RI
    Molecular point group: c1

    Geometry (in Angstrom), charge = 1, multiplicity = 1:

       Center              X                  Y                   Z               Mass
    ------------   -----------------  -----------------  -----------------  -----------------
         N           -1.446976260084    -0.006458632003    -0.385338892764    14.003074004430
         C            0.778016739916    -0.682132632003     0.336939107236    12.000000000000
         C            0.846732739916     0.692771367997    -0.341385892764    12.000000000000
         C           -0.569308260084    -1.235556632003    -0.126081892764    12.000000000000
         C           -0.569218260084     1.209863367997    -0.143912892764    12.000000000000
         C            1.932260739916    -1.624093632003     0.017422107236    12.000000000000
         C            1.901398739916     1.636051367997     0.222438107236    12.000000000000
         C           -2.720758260084     0.011466367997     0.399322107236    12.000000000000
         H            0.736684739916    -0.517609632003     1.422833107236     1.007825032230
         H            1.027479739916     0.545270367997    -1.416630892764     1.007825032230
         H           -1.700881260084    -0.008873632003    -1.380155892764     1.007825032230
         H           -0.481625260084    -1.778315632003    -1.071190892764     1.007825032230
         H           -1.072659260084    -1.873792632003     0.602935107236     1.007825032230
         H           -0.732142260084     1.521257367997     0.892378107236     1.007825032230
         H           -0.883953260084     2.012952367997    -0.814974892764     1.007825032230
         H            2.875659739916    -1.213335632003     0.383550107236     1.007825032230
         H            1.790906739916    -2.598496632003     0.493121107236     1.007825032230
         H            2.019658739916    -1.777170632003    -1.062872892764     1.007825032230
         H            2.915519239916     1.233036867997     0.180271307236     1.007825032230
         H            1.861939739916     2.612107367997    -0.268594892764     1.007825032230
         H            1.754341739916     1.783308367997     1.297018107236     1.007825032230
         H           -2.466881260084    -0.037409632003     1.457876107236     1.007825032230
         H           -3.254629260084     0.936897367997     0.181313107236     1.007825032230
         H           -3.325121260084    -0.849742632003     0.114252107236     1.007825032230

  Basis Set: AUG-CC-PVTZ
    Blend: AUG-CC-PVTZ
  Basis Set: (AUG-CC-PVTZ AUX)
    Blend: AUG-CC-PVTZ-JKFIT
	 Reference Energy          =    -328.7530241171008925 [Eh]
	 Singles Energy            =      -0.0000000000000000 [Eh]
	 Same-Spin Energy          =      -0.3478357447971915 [Eh]
	 Opposite-Spin Energy      =      -1.2498756687711421 [Eh]
	 Correlation Energy        =      -1.5977114135683337 [Eh]
	 Total Energy              =    -330.3507355306692261 [Eh]

	 ================> DF-SCS-MP2 Energies <==================
	-----------------------------------------------------------
	 SCS Same-Spin Scale       =       0.3333333333333333 [-]
	 SCS Opposite-Spin Scale   =       1.2000000000000000 [-]
	 SCS Same-Spin Energy      =      -0.1159452482657305 [Eh]
	 SCS Opposite-Spin Energy  =      -1.4998508025253705 [Eh]
	 SCS Correlation Energy    =      -1.6157960507911009 [Eh]
	 SCS Total Energy          =    -330.3688201678920109 [Eh]
	-----------------------------------------------------------

  Dipole Moment: [D]
     X:    -4.3609      Y:    -0.0114      Z:    -0.8329     Total:     4.4398

*** Psi4 exiting successfully. Buy a developer a beer!
