                               Psi4 1.4a3.dev225

  ==> Input File <==

--------------------------------------------------------------------------
#psi4
#
memory 32 gb

molecule  {
1 1
  N       -1.4549350    -0.0063160    -0.3913190
  C        0.7700580    -0.6819900     0.3309590
  C        0.8387740     0.6929140    -0.3473660
  C       -0.5772670    -1.2354140    -0.1320620
  C       -0.5771770     1.2100060    -0.1498930
  C        1.9243020    -1.6239510     0.0114420
  C        1.9351766     1.6418842     0.1188442
  C       -2.7287170     0.0116090     0.3933420
  H        0.7287260    -0.5174670     1.4168530
  H        1.0195210     0.5454130    -1.4226110
  H       -1.7088400    -0.0087310    -1.3861360
  H       -0.4895840    -1.7781730    -1.0771710
  H       -1.0806180    -1.8736500     0.5969550
  H       -0.7401010     1.5214000     0.8863980
  H       -0.8919120     2.0130950    -0.8209550
  H        2.8677010    -1.2131930     0.3775700
  H        1.7829480    -2.5983540     0.4871410
  H        2.0117000    -1.7770280    -1.0688530
  H        2.8946680     1.2288240     0.0607940
  H        1.8539810     2.6122500    -0.2745750
  H        1.7463830     1.7834510     1.2910380
  H       -2.4748400    -0.0372670     1.4518960
  H       -3.2625880     0.9370400     0.1753330
  H       -3.3330800    -0.8496000     0.1082720
units angstrom
no_reorient  #important for SAPT in psi4, default
symmetry c1  #important for SAPT in psi4, default
}

set PROPERTIES_ORIGIN ["COM"]
properties('MP2/aug-cc-pvtz', properties = ['dipole'])
--------------------------------------------------------------------------

    Molecular point group: c1
  Charge       = 1
  Multiplicity = 1
  Basis Set: AUG-CC-PVTZ
    Blend: AUG-CC-PVTZ
  Basis Set: (AUG-CC-PVTZ AUX)
    Blend: AUG-CC-PVTZ-JKFIT

    Orbital Energies [Eh]
    ---------------------

    Doubly Occupied:

       1A    -15.852989     2A    -11.449395     3A    -11.446924
       4A    -11.446745     5A    -11.391698     6A    -11.391059
       7A    -11.355178     8A    -11.352994     9A     -1.490008
      10A     -1.271953    11A     -1.193459    12A     -1.143182
      13A     -1.096502    14A     -1.066892    15A     -0.987712
      16A     -0.939149    17A     -0.903746    18A     -0.846096
      19A     -0.821581    20A     -0.786327    21A     -0.764433
      22A     -0.757907    23A     -0.741867    24A     -0.715185
      25A     -0.698370    26A     -0.693096    27A     -0.688063
      28A     -0.668817    29A     -0.636945    30A     -0.631955
      31A     -0.614429    32A     -0.599333

  @DF-RHF Final Energy:  -328.74334879404847

   => Energetics <=

    Nuclear Repulsion Energy =            424.1705191001308890
    One-Electron Energy =               -1272.9397598257276059
    Two-Electron Energy =                 520.0258919315482444
    Total Energy =                       -328.7433487940485293
  Basis Set: (AUG-CC-PVTZ AUX)
    Blend: AUG-CC-PVTZ-RI
    Molecular point group: c1

    Geometry (in Angstrom), charge = 1, multiplicity = 1:

       Center              X                  Y                   Z               Mass
    ------------   -----------------  -----------------  -----------------  -----------------
         N           -1.451250799569    -0.007018465386    -0.374073052422    14.003074004430
         C            0.773742200431    -0.682692465386     0.348204947578    12.000000000000
         C            0.842458200431     0.692211534614    -0.330120052422    12.000000000000
         C           -0.573582799569    -1.236116465386    -0.114816052422    12.000000000000
         C           -0.573492799569     1.209303534614    -0.132647052422    12.000000000000
         C            1.927986200431    -1.624653465386     0.028687947578    12.000000000000
         C            1.938860800431     1.641181734614     0.136090147578    12.000000000000
         C           -2.725032799569     0.010906534614     0.410587947578    12.000000000000
         H            0.732410200431    -0.518169465386     1.434098947578     1.007825032230
         H            1.023205200431     0.544710534614    -1.405365052422     1.007825032230
         H           -1.705155799569    -0.009433465386    -1.368890052422     1.007825032230
         H           -0.485899799569    -1.778875465386    -1.059925052422     1.007825032230
         H           -1.076933799569    -1.874352465386     0.614200947578     1.007825032230
         H           -0.736416799569     1.520697534614     0.903643947578     1.007825032230
         H           -0.888227799569     2.012392534614    -0.803709052422     1.007825032230
         H            2.871385200431    -1.213895465386     0.394815947578     1.007825032230
         H            1.786632200431    -2.599056465386     0.504386947578     1.007825032230
         H            2.015384200431    -1.777730465386    -1.051607052422     1.007825032230
         H            2.898352200431     1.228121534614     0.078039947578     1.007825032230
         H            1.857665200431     2.611547534614    -0.257329052422     1.007825032230
         H            1.750067200431     1.782748534614     1.308283947578     1.007825032230
         H           -2.471155799569    -0.037969465386     1.469141947578     1.007825032230
         H           -3.258903799569     0.936337534614     0.192578947578     1.007825032230
         H           -3.329395799569    -0.850302465386     0.125517947578     1.007825032230

  Basis Set: AUG-CC-PVTZ
    Blend: AUG-CC-PVTZ
  Basis Set: (AUG-CC-PVTZ AUX)
    Blend: AUG-CC-PVTZ-JKFIT
	 Reference Energy          =    -328.7433487940484724 [Eh]
	 Singles Energy            =      -0.0000000000000000 [Eh]
	 Same-Spin Energy          =      -0.3478757526777565 [Eh]
	 Opposite-Spin Energy      =      -1.2501983023967012 [Eh]
	 Correlation Energy        =      -1.5980740550744577 [Eh]
	 Total Energy              =    -330.3414228491229210 [Eh]

	 ================> DF-SCS-MP2 Energies <==================
	-----------------------------------------------------------
	 SCS Same-Spin Scale       =       0.3333333333333333 [-]
	 SCS Opposite-Spin Scale   =       1.2000000000000000 [-]
	 SCS Same-Spin Energy      =      -0.1159585842259188 [Eh]
	 SCS Opposite-Spin Energy  =      -1.5002379628760414 [Eh]
	 SCS Correlation Energy    =      -1.6161965471019601 [Eh]
	 SCS Total Energy          =    -330.3595453411504081 [Eh]
	-----------------------------------------------------------

  Dipole Moment: [D]
     X:    -4.3906      Y:    -0.0188      Z:    -0.8665     Total:     4.4753

*** Psi4 exiting successfully. Buy a developer a beer!
