                               Psi4 1.4a3.dev225

  ==> Input File <==

--------------------------------------------------------------------------
#psi4
#
memory 32 gb

molecule  {
1 1
  N       -1.4549350    -0.0063160    -0.3913190
  C        0.7700580    -0.6819900     0.3309590
  C        0.8387740     0.6929140    -0.3473660
  C       -0.5772670    -1.2354140    -0.1320620
  C       -0.3909038     1.1419808    -0.1758712
  C        1.9243020    -1.6239510     0.0114420
  C        1.8934400     1.6361940     0.2164580
  C       -2.7287170     0.0116090     0.3933420
  H        0.7287260    -0.5174670     1.4168530
  H        1.0195210     0.5454130    -1.4226110
  H       -1.7088400    -0.0087310    -1.3861360
  H       -0.4895840    -1.7781730    -1.0771710
  H       -1.0806180    -1.8736500     0.5969550
  H       -0.7401010     1.5214000     0.8863980
  H       -0.8919120     2.0130950    -0.8209550
  H        2.8677010    -1.2131930     0.3775700
  H        1.7829480    -2.5983540     0.4871410
  H        2.0117000    -1.7770280    -1.0688530
  H        2.8946680     1.2288240     0.0607940
  H        1.8539810     2.6122500    -0.2745750
  H        1.7463830     1.7834510     1.2910380
  H       -2.4748400    -0.0372670     1.4518960
  H       -3.2625880     0.9370400     0.1753330
  H       -3.3330800    -0.8496000     0.1082720
units angstrom
no_reorient  #important for SAPT in psi4, default
symmetry c1  #important for SAPT in psi4, default
}

set PROPERTIES_ORIGIN ["COM"]
properties('MP2/aug-cc-pvtz', properties = ['dipole'])
--------------------------------------------------------------------------

    Molecular point group: c1
  Charge       = 1
  Multiplicity = 1
  Basis Set: AUG-CC-PVTZ
    Blend: AUG-CC-PVTZ
  Basis Set: (AUG-CC-PVTZ AUX)
    Blend: AUG-CC-PVTZ-JKFIT

    Orbital Energies [Eh]
    ---------------------

    Doubly Occupied:

       1A    -15.844964     2A    -11.459524     3A    -11.448208
       4A    -11.443831     5A    -11.394292     6A    -11.380214
       7A    -11.360152     8A    -11.353866     9A     -1.480554
      10A     -1.303957    11A     -1.201970    12A     -1.141497
      13A     -1.088761    14A     -1.069352    15A     -0.980423
      16A     -0.953517    17A     -0.892642    18A     -0.849644
      19A     -0.825819    20A     -0.783034    21A     -0.770154
      22A     -0.755279    23A     -0.739831    24A     -0.712263
      25A     -0.694581    26A     -0.686796    27A     -0.674969
      28A     -0.663911    29A     -0.641949    30A     -0.637455
      31A     -0.627909    32A     -0.599362

  @DF-RHF Final Energy:  -328.70124982928741

   => Energetics <=

    Nuclear Repulsion Energy =            426.7515291959825845
    One-Electron Energy =               -1277.9841985381676750
    Two-Electron Energy =                 522.5314195128977417
    Total Energy =                       -328.7012498292873488
  Basis Set: (AUG-CC-PVTZ AUX)
    Blend: AUG-CC-PVTZ-RI
    Molecular point group: c1

    Geometry (in Angstrom), charge = 1, multiplicity = 1:

       Center              X                  Y                   Z               Mass
    ------------   -----------------  -----------------  -----------------  -----------------
         N           -1.466448078309     0.000732329092    -0.381605166647    14.003074004430
         C            0.758544921691    -0.674941670908     0.340672833353    12.000000000000
         C            0.827260921691     0.699962329092    -0.337652166647    12.000000000000
         C           -0.588780078309    -1.228365670908    -0.122348166647    12.000000000000
         C           -0.402416878309     1.149029129092    -0.166157366647    12.000000000000
         C            1.912788921691    -1.616902670908     0.021155833353    12.000000000000
         C            1.881926921691     1.643242329092     0.226171833353    12.000000000000
         C           -2.740230078309     0.018657329092     0.403055833353    12.000000000000
         H            0.717212921691    -0.510418670908     1.426566833353     1.007825032230
         H            1.008007921691     0.552461329092    -1.412897166647     1.007825032230
         H           -1.720353078309    -0.001682670908    -1.376422166647     1.007825032230
         H           -0.501097078309    -1.771124670908    -1.067457166647     1.007825032230
         H           -1.092131078309    -1.866601670908     0.606668833353     1.007825032230
         H           -0.751614078309     1.528448329092     0.896111833353     1.007825032230
         H           -0.903425078309     2.020143329092    -0.811241166647     1.007825032230
         H            2.856187921691    -1.206144670908     0.387283833353     1.007825032230
         H            1.771434921691    -2.591305670908     0.496854833353     1.007825032230
         H            2.000186921691    -1.769979670908    -1.059139166647     1.007825032230
         H            2.883154921691     1.235872329092     0.070507833353     1.007825032230
         H            1.842467921691     2.619298329092    -0.264861166647     1.007825032230
         H            1.734869921691     1.790499329092     1.300751833353     1.007825032230
         H           -2.486353078309    -0.030218670908     1.461609833353     1.007825032230
         H           -3.274101078309     0.944088329092     0.185046833353     1.007825032230
         H           -3.344593078309    -0.842551670908     0.117985833353     1.007825032230

  Basis Set: AUG-CC-PVTZ
    Blend: AUG-CC-PVTZ
  Basis Set: (AUG-CC-PVTZ AUX)
    Blend: AUG-CC-PVTZ-JKFIT
	 Reference Energy          =    -328.7012498292874056 [Eh]
	 Singles Energy            =      -0.0000000000000000 [Eh]
	 Same-Spin Energy          =      -0.3515176516100630 [Eh]
	 Opposite-Spin Energy      =      -1.2547818668486364 [Eh]
	 Correlation Energy        =      -1.6062995184586994 [Eh]
	 Total Energy              =    -330.3075493477460896 [Eh]

	 ================> DF-SCS-MP2 Energies <==================
	-----------------------------------------------------------
	 SCS Same-Spin Scale       =       0.3333333333333333 [-]
	 SCS Opposite-Spin Scale   =       1.2000000000000000 [-]
	 SCS Same-Spin Energy      =      -0.1171725505366877 [Eh]
	 SCS Opposite-Spin Energy  =      -1.5057382402183637 [Eh]
	 SCS Correlation Energy    =      -1.6229107907550513 [Eh]
	 SCS Total Energy          =    -330.3241606200424485 [Eh]
	-----------------------------------------------------------

  Dipole Moment: [D]
     X:    -4.1053      Y:     0.0108      Z:    -0.8246     Total:     4.1873

*** Psi4 exiting successfully. Buy a developer a beer!
