                               Psi4 1.4a3.dev225

  ==> Input File <==

--------------------------------------------------------------------------
#psi4
#
memory 32 gb

molecule  {
1 1
  N       -1.4549350    -0.0063160    -0.3913190
  C        0.7700580    -0.6819900     0.3309590
  C        0.8557511     0.6553570    -0.3137831
  C       -0.5772670    -1.2354140    -0.1320620
  C       -0.5771770     1.2100060    -0.1498930
  C        1.9243020    -1.6239510     0.0114420
  C        1.8934400     1.6361940     0.2164580
  C       -2.7287170     0.0116090     0.3933420
  H        0.7287260    -0.5174670     1.4168530
  H        1.0195210     0.5454130    -1.4226110
  H       -1.7088400    -0.0087310    -1.3861360
  H       -0.4895840    -1.7781730    -1.0771710
  H       -1.0806180    -1.8736500     0.5969550
  H       -0.7401010     1.5214000     0.8863980
  H       -0.8919120     2.0130950    -0.8209550
  H        2.8677010    -1.2131930     0.3775700
  H        1.7829480    -2.5983540     0.4871410
  H        2.0117000    -1.7770280    -1.0688530
  H        2.8946680     1.2288240     0.0607940
  H        1.8539810     2.6122500    -0.2745750
  H        1.7463830     1.7834510     1.2910380
  H       -2.4748400    -0.0372670     1.4518960
  H       -3.2625880     0.9370400     0.1753330
  H       -3.3330800    -0.8496000     0.1082720
units angstrom
no_reorient  #important for SAPT in psi4, default
symmetry c1  #important for SAPT in psi4, default
}

set PROPERTIES_ORIGIN ["COM"]
properties('MP2/aug-cc-pvtz', properties = ['dipole'])
--------------------------------------------------------------------------

    Molecular point group: c1
  Charge       = 1
  Multiplicity = 1
  Basis Set: AUG-CC-PVTZ
    Blend: AUG-CC-PVTZ
  Basis Set: (AUG-CC-PVTZ AUX)
    Blend: AUG-CC-PVTZ-JKFIT

    Orbital Energies [Eh]
    ---------------------

    Doubly Occupied:

       1A    -15.851918     2A    -11.448809     3A    -11.447021
       4A    -11.445743     5A    -11.392555     6A    -11.388870
       7A    -11.353070     8A    -11.352928     9A     -1.489217
      10A     -1.276748    11A     -1.190712    12A     -1.143347
      13A     -1.094797    14A     -1.065795    15A     -0.992359
      16A     -0.936296    17A     -0.903091    18A     -0.844827
      19A     -0.820054    20A     -0.785732    21A     -0.764403
      22A     -0.756743    23A     -0.735904    24A     -0.715162
      25A     -0.701110    26A     -0.696948    27A     -0.677662
      28A     -0.664124    29A     -0.646450    30A     -0.625715
      31A     -0.614353    32A     -0.612943

  @DF-RHF Final Energy:  -328.75118952831713

   => Energetics <=

    Nuclear Repulsion Energy =            424.8437081046256480
    One-Electron Energy =               -1274.3189849995590066
    Two-Electron Energy =                 520.7240873666162315
    Total Energy =                       -328.7511895283171270
  Basis Set: (AUG-CC-PVTZ AUX)
    Blend: AUG-CC-PVTZ-RI
    Molecular point group: c1

    Geometry (in Angstrom), charge = 1, multiplicity = 1:

       Center              X                  Y                   Z               Mass
    ------------   -----------------  -----------------  -----------------  -----------------
         N           -1.448647465721    -0.002471245145    -0.387867709413    14.003074004430
         C            0.776345534279    -0.678145245145     0.334410290587    12.000000000000
         C            0.862038634279     0.659201754855    -0.310331809413    12.000000000000
         C           -0.570979465721    -1.231569245145    -0.128610709413    12.000000000000
         C           -0.570889465721     1.213850754855    -0.146441709413    12.000000000000
         C            1.930589534279    -1.620106245145     0.014893290587    12.000000000000
         C            1.899727534279     1.640038754855     0.219909290587    12.000000000000
         C           -2.722429465721     0.015453754855     0.396793290587    12.000000000000
         H            0.735013534279    -0.513622245145     1.420304290587     1.007825032230
         H            1.025808534279     0.549257754855    -1.419159709413     1.007825032230
         H           -1.702552465721    -0.004886245145    -1.382684709413     1.007825032230
         H           -0.483296465721    -1.774328245145    -1.073719709413     1.007825032230
         H           -1.074330465721    -1.869805245145     0.600406290587     1.007825032230
         H           -0.733813465721     1.525244754855     0.889849290587     1.007825032230
         H           -0.885624465721     2.016939754855    -0.817503709413     1.007825032230
         H            2.873988534279    -1.209348245145     0.381021290587     1.007825032230
         H            1.789235534279    -2.594509245145     0.490592290587     1.007825032230
         H            2.017987534279    -1.773183245145    -1.065401709413     1.007825032230
         H            2.900955534279     1.232668754855     0.064245290587     1.007825032230
         H            1.860268534279     2.616094754855    -0.271123709413     1.007825032230
         H            1.752670534279     1.787295754855     1.294489290587     1.007825032230
         H           -2.468552465721    -0.033422245145     1.455347290587     1.007825032230
         H           -3.256300465721     0.940884754855     0.178784290587     1.007825032230
         H           -3.326792465721    -0.845755245145     0.111723290587     1.007825032230

  Basis Set: AUG-CC-PVTZ
    Blend: AUG-CC-PVTZ
  Basis Set: (AUG-CC-PVTZ AUX)
    Blend: AUG-CC-PVTZ-JKFIT
	 Reference Energy          =    -328.7511895283171270 [Eh]
	 Singles Energy            =      -0.0000000000000000 [Eh]
	 Same-Spin Energy          =      -0.3480357246428715 [Eh]
	 Opposite-Spin Energy      =      -1.2502233224714154 [Eh]
	 Correlation Energy        =      -1.5982590471142870 [Eh]
	 Total Energy              =    -330.3494485754314383 [Eh]

	 ================> DF-SCS-MP2 Energies <==================
	-----------------------------------------------------------
	 SCS Same-Spin Scale       =       0.3333333333333333 [-]
	 SCS Opposite-Spin Scale   =       1.2000000000000000 [-]
	 SCS Same-Spin Energy      =      -0.1160119082142905 [Eh]
	 SCS Opposite-Spin Energy  =      -1.5002679869656985 [Eh]
	 SCS Correlation Energy    =      -1.6162798951799890 [Eh]
	 SCS Total Energy          =    -330.3674694234971412 [Eh]
	-----------------------------------------------------------

  Dipole Moment: [D]
     X:    -4.3642      Y:     0.0111      Z:    -0.8714     Total:     4.4504

*** Psi4 exiting successfully. Buy a developer a beer!
