                               Psi4 1.4a3.dev225

  ==> Input File <==

--------------------------------------------------------------------------
#psi4
#
memory 32 gb

molecule  {
1 1
  N       -1.4549350    -0.0063160    -0.3913190
  C        0.7700580    -0.6819900     0.3309590
  C        0.8387740     0.6929140    -0.3473660
  C       -0.5772670    -1.2354140    -0.1320620
  C       -0.5771770     1.2100060    -0.1498930
  C        1.9243020    -1.6239510     0.0114420
  C        1.8934400     1.6361940     0.2164580
  C       -2.7287170     0.0116090     0.3933420
  H        0.7287260    -0.5174670     1.4168530
  H        1.0195210     0.5454130    -1.4226110
  H       -1.7088400    -0.0087310    -1.3861360
  H       -0.4895840    -1.7781730    -1.0771710
  H       -1.0806180    -1.8736500     0.5969550
  H       -0.7698789     1.5783140     1.0758025
  H       -0.8919120     2.0130950    -0.8209550
  H        2.8677010    -1.2131930     0.3775700
  H        1.7829480    -2.5983540     0.4871410
  H        2.0117000    -1.7770280    -1.0688530
  H        2.8946680     1.2288240     0.0607940
  H        1.8539810     2.6122500    -0.2745750
  H        1.7463830     1.7834510     1.2910380
  H       -2.4748400    -0.0372670     1.4518960
  H       -3.2625880     0.9370400     0.1753330
  H       -3.3330800    -0.8496000     0.1082720
units angstrom
no_reorient  #important for SAPT in psi4, default
symmetry c1  #important for SAPT in psi4, default
}

set PROPERTIES_ORIGIN ["COM"]
properties('MP2/aug-cc-pvtz', properties = ['dipole'])
--------------------------------------------------------------------------

    Molecular point group: c1
  Charge       = 1
  Multiplicity = 1
  Basis Set: AUG-CC-PVTZ
    Blend: AUG-CC-PVTZ
  Basis Set: (AUG-CC-PVTZ AUX)
    Blend: AUG-CC-PVTZ-JKFIT

    Orbital Energies [Eh]
    ---------------------

    Doubly Occupied:

       1A    -15.853877     2A    -11.465576     3A    -11.448597
       4A    -11.446589     5A    -11.392520     6A    -11.390353
       7A    -11.352769     8A    -11.352594     9A     -1.489651
      10A     -1.271769    11A     -1.189125    12A     -1.142510
      13A     -1.092502    14A     -1.062072    15A     -0.979782
      16A     -0.939598    17A     -0.903797    18A     -0.841640
      19A     -0.821696    20A     -0.774616    21A     -0.761032
      22A     -0.754886    23A     -0.735382    24A     -0.715764
      25A     -0.699067    26A     -0.677862    27A     -0.676476
      28A     -0.663270    29A     -0.642578    30A     -0.628715
      31A     -0.622507    32A     -0.603442

  @DF-RHF Final Energy:  -328.73318984872304

   => Energetics <=

    Nuclear Repulsion Energy =            423.5868361162774249
    One-Electron Energy =               -1271.8548239715471482
    Two-Electron Energy =                 519.5347980065466800
    Total Energy =                       -328.7331898487229864
  Basis Set: (AUG-CC-PVTZ AUX)
    Blend: AUG-CC-PVTZ-RI
    Molecular point group: c1

    Geometry (in Angstrom), charge = 1, multiplicity = 1:

       Center              X                  Y                   Z               Mass
    ------------   -----------------  -----------------  -----------------  -----------------
         N           -1.446599453395    -0.006922756885    -0.386009202355    14.003074004430
         C            0.778393546605    -0.682596756885     0.336268797645    12.000000000000
         C            0.847109546605     0.692307243115    -0.342056202355    12.000000000000
         C           -0.568931453395    -1.236020756885    -0.126752202355    12.000000000000
         C           -0.568841453395     1.209399243115    -0.144583202355    12.000000000000
         C            1.932637546605    -1.624557756885     0.016751797645    12.000000000000
         C            1.901775546605     1.635587243115     0.221767797645    12.000000000000
         C           -2.720381453395     0.011002243115     0.398651797645    12.000000000000
         H            0.737061546605    -0.518073756885     1.422162797645     1.007825032230
         H            1.027856546605     0.544806243115    -1.417301202355     1.007825032230
         H           -1.700504453395    -0.009337756885    -1.380826202355     1.007825032230
         H           -0.481248453395    -1.778779756885    -1.071861202355     1.007825032230
         H           -1.072282453395    -1.874256756885     0.602264797645     1.007825032230
         H           -0.761543353395     1.577707243115     1.081112297645     1.007825032230
         H           -0.883576453395     2.012488243115    -0.815645202355     1.007825032230
         H            2.876036546605    -1.213799756885     0.382879797645     1.007825032230
         H            1.791283546605    -2.598960756885     0.492450797645     1.007825032230
         H            2.020035546605    -1.777634756885    -1.063543202355     1.007825032230
         H            2.903003546605     1.228217243115     0.066103797645     1.007825032230
         H            1.862316546605     2.611643243115    -0.269265202355     1.007825032230
         H            1.754718546605     1.782844243115     1.296347797645     1.007825032230
         H           -2.466504453395    -0.037873756885     1.457205797645     1.007825032230
         H           -3.254252453395     0.936433243115     0.180642797645     1.007825032230
         H           -3.324744453395    -0.850206756885     0.113581797645     1.007825032230

  Basis Set: AUG-CC-PVTZ
    Blend: AUG-CC-PVTZ
  Basis Set: (AUG-CC-PVTZ AUX)
    Blend: AUG-CC-PVTZ-JKFIT
	 Reference Energy          =    -328.7331898487230433 [Eh]
	 Singles Energy            =      -0.0000000000000000 [Eh]
	 Same-Spin Energy          =      -0.3483637486973756 [Eh]
	 Opposite-Spin Energy      =      -1.2519817202467356 [Eh]
	 Correlation Energy        =      -1.6003454689441112 [Eh]
	 Total Energy              =    -330.3335353176671561 [Eh]

	 ================> DF-SCS-MP2 Energies <==================
	-----------------------------------------------------------
	 SCS Same-Spin Scale       =       0.3333333333333333 [-]
	 SCS Opposite-Spin Scale   =       1.2000000000000000 [-]
	 SCS Same-Spin Energy      =      -0.1161212495657919 [Eh]
	 SCS Opposite-Spin Energy  =      -1.5023780642960827 [Eh]
	 SCS Correlation Energy    =      -1.6184993138618746 [Eh]
	 SCS Total Energy          =    -330.3516891625849325 [Eh]
	-----------------------------------------------------------

  Dipole Moment: [D]
     X:    -4.3292      Y:    -0.0103      Z:    -0.8980     Total:     4.4214

*** Psi4 exiting successfully. Buy a developer a beer!
