                               Psi4 1.4a3.dev225

  ==> Input File <==

--------------------------------------------------------------------------
#psi4
#
memory 32 gb

molecule  {
1 1
  N       -1.4549350    -0.0063160    -0.3913190
  C        0.7700580    -0.6819900     0.3309590
  C        0.8387740     0.6929140    -0.3473660
  C       -0.4009596    -1.1629944    -0.0714723
  C       -0.5771770     1.2100060    -0.1498930
  C        1.9243020    -1.6239510     0.0114420
  C        1.8934400     1.6361940     0.2164580
  C       -2.7287170     0.0116090     0.3933420
  H        0.7287260    -0.5174670     1.4168530
  H        1.0195210     0.5454130    -1.4226110
  H       -1.7088400    -0.0087310    -1.3861360
  H       -0.4895840    -1.7781730    -1.0771710
  H       -1.0806180    -1.8736500     0.5969550
  H       -0.7401010     1.5214000     0.8863980
  H       -0.8919120     2.0130950    -0.8209550
  H        2.8677010    -1.2131930     0.3775700
  H        1.7829480    -2.5983540     0.4871410
  H        2.0117000    -1.7770280    -1.0688530
  H        2.8946680     1.2288240     0.0607940
  H        1.8539810     2.6122500    -0.2745750
  H        1.7463830     1.7834510     1.2910380
  H       -2.4748400    -0.0372670     1.4518960
  H       -3.2625880     0.9370400     0.1753330
  H       -3.3330800    -0.8496000     0.1082720
units angstrom
no_reorient  #important for SAPT in psi4, default
symmetry c1  #important for SAPT in psi4, default
}

set PROPERTIES_ORIGIN ["COM"]
properties('MP2/aug-cc-pvtz', properties = ['dipole'])
--------------------------------------------------------------------------

    Molecular point group: c1
  Charge       = 1
  Multiplicity = 1
  Basis Set: AUG-CC-PVTZ
    Blend: AUG-CC-PVTZ
  Basis Set: (AUG-CC-PVTZ AUX)
    Blend: AUG-CC-PVTZ-JKFIT

    Orbital Energies [Eh]
    ---------------------

    Doubly Occupied:

       1A    -15.844757     2A    -11.460464     3A    -11.446233
       4A    -11.443749     5A    -11.395408     6A    -11.379557
       7A    -11.359363     8A    -11.354350     9A     -1.480273
      10A     -1.302456    11A     -1.203051    12A     -1.139391
      13A     -1.088074    14A     -1.071434    15A     -0.983739
      16A     -0.943793    17A     -0.903991    18A     -0.846961
      19A     -0.818447    20A     -0.783510    21A     -0.771646
      22A     -0.761374    23A     -0.735784    24A     -0.702144
      25A     -0.699895    26A     -0.691716    27A     -0.677138
      28A     -0.663066    29A     -0.644196    30A     -0.639730
      31A     -0.621442    32A     -0.599609

  @DF-RHF Final Energy:  -328.70257555404731

   => Energetics <=

    Nuclear Repulsion Energy =            426.8162296100670687
    One-Electron Energy =               -1278.1241263788456308
    Two-Electron Energy =                 522.6053212147312479
    Total Energy =                       -328.7025755540473710
  Basis Set: (AUG-CC-PVTZ AUX)
    Blend: AUG-CC-PVTZ-RI
    Molecular point group: c1

    Geometry (in Angstrom), charge = 1, multiplicity = 1:

       Center              X                  Y                   Z               Mass
    ------------   -----------------  -----------------  -----------------  -----------------
         N           -1.465400225789    -0.014034717961    -0.390707335276    14.003074004430
         C            0.759592774211    -0.689708717961     0.331570664724    12.000000000000
         C            0.828308774211     0.685195282039    -0.346754335276    12.000000000000
         C           -0.411424825789    -1.170713117961    -0.070860635276    12.000000000000
         C           -0.587642225789     1.202287282039    -0.149281335276    12.000000000000
         C            1.913836774211    -1.631669717961     0.012053664724    12.000000000000
         C            1.882974774211     1.628475282039     0.217069664724    12.000000000000
         C           -2.739182225789     0.003890282039     0.393953664724    12.000000000000
         H            0.718260774211    -0.525185717961     1.417464664724     1.007825032230
         H            1.009055774211     0.537694282039    -1.421999335276     1.007825032230
         H           -1.719305225789    -0.016449717961    -1.385524335276     1.007825032230
         H           -0.500049225789    -1.785891717961    -1.076559335276     1.007825032230
         H           -1.091083225789    -1.881368717961     0.597566664724     1.007825032230
         H           -0.750566225789     1.513681282039     0.887009664724     1.007825032230
         H           -0.902377225789     2.005376282039    -0.820343335276     1.007825032230
         H            2.857235774211    -1.220911717961     0.378181664724     1.007825032230
         H            1.772482774211    -2.606072717961     0.487752664724     1.007825032230
         H            2.001234774211    -1.784746717961    -1.068241335276     1.007825032230
         H            2.884202774211     1.221105282039     0.061405664724     1.007825032230
         H            1.843515774211     2.604531282039    -0.273963335276     1.007825032230
         H            1.735917774211     1.775732282039     1.291649664724     1.007825032230
         H           -2.485305225789    -0.044985717961     1.452507664724     1.007825032230
         H           -3.273053225789     0.929321282039     0.175944664724     1.007825032230
         H           -3.343545225789    -0.857318717961     0.108883664724     1.007825032230

  Basis Set: AUG-CC-PVTZ
    Blend: AUG-CC-PVTZ
  Basis Set: (AUG-CC-PVTZ AUX)
    Blend: AUG-CC-PVTZ-JKFIT
	 Reference Energy          =    -328.7025755540473142 [Eh]
	 Singles Energy            =      -0.0000000000000000 [Eh]
	 Same-Spin Energy          =      -0.3514441729210053 [Eh]
	 Opposite-Spin Energy      =      -1.2546199034146459 [Eh]
	 Correlation Energy        =      -1.6060640763356511 [Eh]
	 Total Energy              =    -330.3086396303829702 [Eh]

	 ================> DF-SCS-MP2 Energies <==================
	-----------------------------------------------------------
	 SCS Same-Spin Scale       =       0.3333333333333333 [-]
	 SCS Opposite-Spin Scale   =       1.2000000000000000 [-]
	 SCS Same-Spin Energy      =      -0.1171480576403351 [Eh]
	 SCS Opposite-Spin Energy  =      -1.5055438840975750 [Eh]
	 SCS Correlation Energy    =      -1.6226919417379100 [Eh]
	 SCS Total Energy          =    -330.3252674957852264 [Eh]
	-----------------------------------------------------------

  Dipole Moment: [D]
     X:    -4.0946      Y:    -0.0126      Z:    -0.8298     Total:     4.1779

*** Psi4 exiting successfully. Buy a developer a beer!
