                               Psi4 1.4a3.dev225

  ==> Input File <==

--------------------------------------------------------------------------
#psi4
#
memory 32 gb

molecule  {
1 1
  N       -1.4549350    -0.0063160    -0.3913190
  C        0.7700580    -0.6819900     0.3309590
  C        0.8387740     0.6929140    -0.3473660
  C       -0.5772670    -1.2354140    -0.1320620
  C       -0.4616271     1.3701251    -0.1181112
  C        1.9243020    -1.6239510     0.0114420
  C        1.8934400     1.6361940     0.2164580
  C       -2.7287170     0.0116090     0.3933420
  H        0.7287260    -0.5174670     1.4168530
  H        1.0195210     0.5454130    -1.4226110
  H       -1.7088400    -0.0087310    -1.3861360
  H       -0.4895840    -1.7781730    -1.0771710
  H       -1.0806180    -1.8736500     0.5969550
  H       -0.7401010     1.5214000     0.8863980
  H       -0.8919120     2.0130950    -0.8209550
  H        2.8677010    -1.2131930     0.3775700
  H        1.7829480    -2.5983540     0.4871410
  H        2.0117000    -1.7770280    -1.0688530
  H        2.8946680     1.2288240     0.0607940
  H        1.8539810     2.6122500    -0.2745750
  H        1.7463830     1.7834510     1.2910380
  H       -2.4748400    -0.0372670     1.4518960
  H       -3.2625880     0.9370400     0.1753330
  H       -3.3330800    -0.8496000     0.1082720
units angstrom
no_reorient  #important for SAPT in psi4, default
symmetry c1  #important for SAPT in psi4, default
}

set PROPERTIES_ORIGIN ["COM"]
properties('MP2/aug-cc-pvtz', properties = ['dipole'])
--------------------------------------------------------------------------

    Molecular point group: c1
  Charge       = 1
  Multiplicity = 1
  Basis Set: AUG-CC-PVTZ
    Blend: AUG-CC-PVTZ
  Basis Set: (AUG-CC-PVTZ AUX)
    Blend: AUG-CC-PVTZ-JKFIT

    Orbital Energies [Eh]
    ---------------------

    Doubly Occupied:

       1A    -15.829484     2A    -11.461854     3A    -11.439309
       4A    -11.439172     5A    -11.394928     6A    -11.392299
       7A    -11.356796     8A    -11.353725     9A     -1.451371
      10A     -1.276535    11A     -1.198451    12A     -1.130006
      13A     -1.092638    14A     -1.059545    15A     -0.994233
      16A     -0.936707    17A     -0.890053    18A     -0.827927
      19A     -0.818027    20A     -0.796049    21A     -0.773605
      22A     -0.749475    23A     -0.732158    24A     -0.718161
      25A     -0.705383    26A     -0.686519    27A     -0.678850
      28A     -0.654293    29A     -0.646058    30A     -0.627543
      31A     -0.624982    32A     -0.609265

  @DF-RHF Final Energy:  -328.72940426503425

   => Energetics <=

    Nuclear Repulsion Energy =            422.3065917936180540
    One-Electron Energy =               -1269.3811901498941097
    Two-Electron Energy =                 518.3451940912417513
    Total Energy =                       -328.7294042650343044
  Basis Set: (AUG-CC-PVTZ AUX)
    Blend: AUG-CC-PVTZ-RI
    Molecular point group: c1

    Geometry (in Angstrom), charge = 1, multiplicity = 1:

       Center              X                  Y                   Z               Mass
    ------------   -----------------  -----------------  -----------------  -----------------
         N           -1.459011887728    -0.023255868500    -0.387678333028    14.003074004430
         C            0.765981112272    -0.698929868500     0.334599666972    12.000000000000
         C            0.834697112272     0.675974131500    -0.343725333028    12.000000000000
         C           -0.581343887728    -1.252353868500    -0.128421333028    12.000000000000
         C           -0.465703987728     1.353185231500    -0.114470533028    12.000000000000
         C            1.920225112272    -1.640890868500     0.015082666972    12.000000000000
         C            1.889363112272     1.619254131500     0.220098666972    12.000000000000
         C           -2.732793887728    -0.005330868500     0.396982666972    12.000000000000
         H            0.724649112272    -0.534406868500     1.420493666972     1.007825032230
         H            1.015444112272     0.528473131500    -1.418970333028     1.007825032230
         H           -1.712916887728    -0.025670868500    -1.382495333028     1.007825032230
         H           -0.493660887728    -1.795112868500    -1.073530333028     1.007825032230
         H           -1.084694887728    -1.890589868500     0.600595666972     1.007825032230
         H           -0.744177887728     1.504460131500     0.890038666972     1.007825032230
         H           -0.895988887728     1.996155131500    -0.817314333028     1.007825032230
         H            2.863624112272    -1.230132868500     0.381210666972     1.007825032230
         H            1.778871112272    -2.615293868500     0.490781666972     1.007825032230
         H            2.007623112272    -1.793967868500    -1.065212333028     1.007825032230
         H            2.890591112272     1.211884131500     0.064434666972     1.007825032230
         H            1.849904112272     2.595310131500    -0.270934333028     1.007825032230
         H            1.742306112272     1.766511131500     1.294678666972     1.007825032230
         H           -2.478916887728    -0.054206868500     1.455536666972     1.007825032230
         H           -3.266664887728     0.920100131500     0.178973666972     1.007825032230
         H           -3.337156887728    -0.866539868500     0.111912666972     1.007825032230

  Basis Set: AUG-CC-PVTZ
    Blend: AUG-CC-PVTZ
  Basis Set: (AUG-CC-PVTZ AUX)
    Blend: AUG-CC-PVTZ-JKFIT
	 Reference Energy          =    -328.7294042650342476 [Eh]
	 Singles Energy            =      -0.0000000000000000 [Eh]
	 Same-Spin Energy          =      -0.3481423481299086 [Eh]
	 Opposite-Spin Energy      =      -1.2518550235060180 [Eh]
	 Correlation Energy        =      -1.5999973716359266 [Eh]
	 Total Energy              =    -330.3294016366701840 [Eh]

	 ================> DF-SCS-MP2 Energies <==================
	-----------------------------------------------------------
	 SCS Same-Spin Scale       =       0.3333333333333333 [-]
	 SCS Opposite-Spin Scale   =       1.2000000000000000 [-]
	 SCS Same-Spin Energy      =      -0.1160474493766362 [Eh]
	 SCS Opposite-Spin Energy  =      -1.5022260282072215 [Eh]
	 SCS Correlation Energy    =      -1.6182734775838576 [Eh]
	 SCS Total Energy          =    -330.3476777426180888 [Eh]
	-----------------------------------------------------------

  Dipole Moment: [D]
     X:    -4.0185      Y:     0.2598      Z:    -0.8406     Total:     4.1137

*** Psi4 exiting successfully. Buy a developer a beer!
