                               Psi4 1.4a3.dev225

  ==> Input File <==

--------------------------------------------------------------------------
#psi4
#
memory 32 gb

molecule  {
1 1
  N       -1.4549350    -0.0063160    -0.3913190
  C        0.7700580    -0.6819900     0.3309590
  C        0.8387740     0.6929140    -0.3473660
  C       -0.5772670    -1.2354140    -0.1320620
  C       -0.5771770     1.2100060    -0.1498930
  C        1.9243020    -1.6239510     0.0114420
  C        1.8934400     1.6361940     0.2164580
  C       -2.7287170     0.0116090     0.3933420
  H        0.7287260    -0.5174670     1.4168530
  H        1.0195210     0.5454130    -1.4226110
  H       -1.7088400    -0.0087310    -1.3861360
  H       -0.4895840    -1.7781730    -1.0771710
  H       -1.0806180    -1.8736500     0.5969550
  H       -0.7401010     1.5214000     0.8863980
  H       -0.8919120     2.0130950    -0.8209550
  H        2.8677010    -1.2131930     0.3775700
  H        1.7829480    -2.5983540     0.4871410
  H        2.0117000    -1.7770280    -1.0688530
  H        2.8946680     1.2288240     0.0607940
  H        1.8366400     2.6570865    -0.1707215
  H        1.7463830     1.7834510     1.2910380
  H       -2.4748400    -0.0372670     1.4518960
  H       -3.2625880     0.9370400     0.1753330
  H       -3.3330800    -0.8496000     0.1082720
units angstrom
no_reorient  #important for SAPT in psi4, default
symmetry c1  #important for SAPT in psi4, default
}

set PROPERTIES_ORIGIN ["COM"]
properties('MP2/aug-cc-pvtz', properties = ['dipole'])
--------------------------------------------------------------------------

    Molecular point group: c1
  Charge       = 1
  Multiplicity = 1
  Basis Set: AUG-CC-PVTZ
    Blend: AUG-CC-PVTZ
  Basis Set: (AUG-CC-PVTZ AUX)
    Blend: AUG-CC-PVTZ-JKFIT

    Orbital Energies [Eh]
    ---------------------

    Doubly Occupied:

       1A    -15.852252     2A    -11.449091     3A    -11.446447
       4A    -11.445823     5A    -11.391613     6A    -11.390640
       7A    -11.352687     8A    -11.352519     9A     -1.489555
      10A     -1.272186    11A     -1.193190    12A     -1.142660
      13A     -1.094717    14A     -1.065563    15A     -0.988001
      16A     -0.940020    17A     -0.903587    18A     -0.844975
      19A     -0.822281    20A     -0.785878    21A     -0.763313
      22A     -0.755826    23A     -0.736255    24A     -0.714603
      25A     -0.699474    26A     -0.697156    27A     -0.677674
      28A     -0.663027    29A     -0.645261    30A     -0.628452
      31A     -0.624031    32A     -0.602736

  @DF-RHF Final Energy:  -328.75302017374929

   => Energetics <=

    Nuclear Repulsion Energy =            424.4383512542480048
    One-Electron Energy =               -1273.5197524809484548
    Two-Electron Energy =                 520.3283810529511584
    Total Energy =                       -328.7530201737492916
  Basis Set: (AUG-CC-PVTZ AUX)
    Blend: AUG-CC-PVTZ-RI
    Molecular point group: c1

    Geometry (in Angstrom), charge = 1, multiplicity = 1:

       Center              X                  Y                   Z               Mass
    ------------   -----------------  -----------------  -----------------  -----------------
         N           -1.446709279108    -0.006816104902    -0.385253732778    14.003074004430
         C            0.778283720892    -0.682490104902     0.337024267222    12.000000000000
         C            0.846999720892     0.692413895098    -0.341300732778    12.000000000000
         C           -0.569041279108    -1.235914104902    -0.125996732778    12.000000000000
         C           -0.568951279108     1.209505895098    -0.143827732778    12.000000000000
         C            1.932527720892    -1.624451104902     0.017507267222    12.000000000000
         C            1.901665720892     1.635693895098     0.222523267222    12.000000000000
         C           -2.720491279108     0.011108895098     0.399407267222    12.000000000000
         H            0.736951720892    -0.517967104902     1.422918267222     1.007825032230
         H            1.027746720892     0.544912895098    -1.416545732778     1.007825032230
         H           -1.700614279108    -0.009231104902    -1.380070732778     1.007825032230
         H           -0.481358279108    -1.778673104902    -1.071105732778     1.007825032230
         H           -1.072392279108    -1.874150104902     0.603020267222     1.007825032230
         H           -0.731875279108     1.520899895098     0.892463267222     1.007825032230
         H           -0.883686279108     2.012594895098    -0.814889732778     1.007825032230
         H            2.875926720892    -1.213693104902     0.383635267222     1.007825032230
         H            1.791173720892    -2.598854104902     0.493206267222     1.007825032230
         H            2.019925720892    -1.777528104902    -1.062787732778     1.007825032230
         H            2.902893720892     1.228323895098     0.066859267222     1.007825032230
         H            1.844865720892     2.656586395098    -0.164656232778     1.007825032230
         H            1.754608720892     1.782950895098     1.297103267222     1.007825032230
         H           -2.466614279108    -0.037767104902     1.457961267222     1.007825032230
         H           -3.254362279108     0.936539895098     0.181398267222     1.007825032230
         H           -3.324854279108    -0.850100104902     0.114337267222     1.007825032230

  Basis Set: AUG-CC-PVTZ
    Blend: AUG-CC-PVTZ
  Basis Set: (AUG-CC-PVTZ AUX)
    Blend: AUG-CC-PVTZ-JKFIT
	 Reference Energy          =    -328.7530201737492916 [Eh]
	 Singles Energy            =      -0.0000000000000000 [Eh]
	 Same-Spin Energy          =      -0.3478395723689276 [Eh]
	 Opposite-Spin Energy      =      -1.2498870315458492 [Eh]
	 Correlation Energy        =      -1.5977266039147768 [Eh]
	 Total Energy              =    -330.3507467776640851 [Eh]

	 ================> DF-SCS-MP2 Energies <==================
	-----------------------------------------------------------
	 SCS Same-Spin Scale       =       0.3333333333333333 [-]
	 SCS Opposite-Spin Scale   =       1.2000000000000000 [-]
	 SCS Same-Spin Energy      =      -0.1159465241229759 [Eh]
	 SCS Opposite-Spin Energy  =      -1.4998644378550190 [Eh]
	 SCS Correlation Energy    =      -1.6158109619779948 [Eh]
	 SCS Total Energy          =    -330.3688311357273051 [Eh]
	-----------------------------------------------------------

  Dipole Moment: [D]
     X:    -4.3773      Y:     0.0102      Z:    -0.8363     Total:     4.4565

*** Psi4 exiting successfully. Buy a developer a beer!
