                               Psi4 1.4a3.dev225

  ==> Input File <==

--------------------------------------------------------------------------
#psi4
#
memory 32 gb

molecule  {
1 1
  N       -1.4549350    -0.0063160    -0.3913190
  C        0.7700580    -0.6819900     0.3309590
  C        0.8365352     0.6481192    -0.3252660
  C       -0.5772670    -1.2354140    -0.1320620
  C       -0.5771770     1.2100060    -0.1498930
  C        1.9243020    -1.6239510     0.0114420
  C        1.8934400     1.6361940     0.2164580
  C       -2.7287170     0.0116090     0.3933420
  H        0.7287260    -0.5174670     1.4168530
  H        1.0195210     0.5454130    -1.4226110
  H       -1.7088400    -0.0087310    -1.3861360
  H       -0.4895840    -1.7781730    -1.0771710
  H       -1.0806180    -1.8736500     0.5969550
  H       -0.7401010     1.5214000     0.8863980
  H       -0.8919120     2.0130950    -0.8209550
  H        2.8677010    -1.2131930     0.3775700
  H        1.7829480    -2.5983540     0.4871410
  H        2.0117000    -1.7770280    -1.0688530
  H        2.8946680     1.2288240     0.0607940
  H        1.8539810     2.6122500    -0.2745750
  H        1.7463830     1.7834510     1.2910380
  H       -2.4748400    -0.0372670     1.4518960
  H       -3.2625880     0.9370400     0.1753330
  H       -3.3330800    -0.8496000     0.1082720
units angstrom
no_reorient  #important for SAPT in psi4, default
symmetry c1  #important for SAPT in psi4, default
}

set PROPERTIES_ORIGIN ["COM"]
properties('MP2/aug-cc-pvtz', properties = ['dipole'])
--------------------------------------------------------------------------

    Molecular point group: c1
  Charge       = 1
  Multiplicity = 1
  Basis Set: AUG-CC-PVTZ
    Blend: AUG-CC-PVTZ
  Basis Set: (AUG-CC-PVTZ AUX)
    Blend: AUG-CC-PVTZ-JKFIT

    Orbital Energies [Eh]
    ---------------------

    Doubly Occupied:

       1A    -15.851581     2A    -11.448675     3A    -11.446529
       4A    -11.445800     5A    -11.391399     6A    -11.388646
       7A    -11.353835     8A    -11.353089     9A     -1.489693
      10A     -1.277069    11A     -1.190936    12A     -1.142674
      13A     -1.092957    14A     -1.065510    15A     -0.992777
      16A     -0.937753    17A     -0.903322    18A     -0.844914
      19A     -0.820782    20A     -0.786403    21A     -0.764639
      22A     -0.756051    23A     -0.735231    24A     -0.715169
      25A     -0.700763    26A     -0.696988    27A     -0.676380
      28A     -0.662919    29A     -0.645996    30A     -0.623045
      31A     -0.617202    32A     -0.615184

  @DF-RHF Final Energy:  -328.75146705559291

   => Energetics <=

    Nuclear Repulsion Energy =            424.9681344448434857
    One-Electron Energy =               -1274.5713734616811053
    Two-Electron Energy =                 520.8517719612447081
    Total Energy =                       -328.7514670555929115
  Basis Set: (AUG-CC-PVTZ AUX)
    Blend: AUG-CC-PVTZ-RI
    Molecular point group: c1

    Geometry (in Angstrom), charge = 1, multiplicity = 1:

       Center              X                  Y                   Z               Mass
    ------------   -----------------  -----------------  -----------------  -----------------
         N           -1.446627012849    -0.001710227769    -0.386660341646    14.003074004430
         C            0.778365987151    -0.677384227769     0.335617658354    12.000000000000
         C            0.844843187151     0.652724972231    -0.320607341646    12.000000000000
         C           -0.568959012849    -1.230808227769    -0.127403341646    12.000000000000
         C           -0.568869012849     1.214611772231    -0.145234341646    12.000000000000
         C            1.932609987151    -1.619345227769     0.016100658354    12.000000000000
         C            1.901747987151     1.640799772231     0.221116658354    12.000000000000
         C           -2.720409012849     0.016214772231     0.398000658354    12.000000000000
         H            0.737033987151    -0.512861227769     1.421511658354     1.007825032230
         H            1.027828987151     0.550018772231    -1.417952341646     1.007825032230
         H           -1.700532012849    -0.004125227769    -1.381477341646     1.007825032230
         H           -0.481276012849    -1.773567227769    -1.072512341646     1.007825032230
         H           -1.072310012849    -1.869044227769     0.601613658354     1.007825032230
         H           -0.731793012849     1.526005772231     0.891056658354     1.007825032230
         H           -0.883604012849     2.017700772231    -0.816296341646     1.007825032230
         H            2.876008987151    -1.208587227769     0.382228658354     1.007825032230
         H            1.791255987151    -2.593748227769     0.491799658354     1.007825032230
         H            2.020007987151    -1.772422227769    -1.064194341646     1.007825032230
         H            2.902975987151     1.233429772231     0.065452658354     1.007825032230
         H            1.862288987151     2.616855772231    -0.269916341646     1.007825032230
         H            1.754690987151     1.788056772231     1.295696658354     1.007825032230
         H           -2.466532012849    -0.032661227769     1.456554658354     1.007825032230
         H           -3.254280012849     0.941645772231     0.179991658354     1.007825032230
         H           -3.324772012849    -0.844994227769     0.112930658354     1.007825032230

  Basis Set: AUG-CC-PVTZ
    Blend: AUG-CC-PVTZ
  Basis Set: (AUG-CC-PVTZ AUX)
    Blend: AUG-CC-PVTZ-JKFIT
	 Reference Energy          =    -328.7514670555929115 [Eh]
	 Singles Energy            =      -0.0000000000000000 [Eh]
	 Same-Spin Energy          =      -0.3480265840422629 [Eh]
	 Opposite-Spin Energy      =      -1.2501739995638188 [Eh]
	 Correlation Energy        =      -1.5982005836060817 [Eh]
	 Total Energy              =    -330.3496676391989695 [Eh]

	 ================> DF-SCS-MP2 Energies <==================
	-----------------------------------------------------------
	 SCS Same-Spin Scale       =       0.3333333333333333 [-]
	 SCS Opposite-Spin Scale   =       1.2000000000000000 [-]
	 SCS Same-Spin Energy      =      -0.1160088613474210 [Eh]
	 SCS Opposite-Spin Energy  =      -1.5002087994765825 [Eh]
	 SCS Correlation Energy    =      -1.6162176608240035 [Eh]
	 SCS Total Energy          =    -330.3676847164169317 [Eh]
	-----------------------------------------------------------

  Dipole Moment: [D]
     X:    -4.3555      Y:     0.0148      Z:    -0.8721     Total:     4.4419

*** Psi4 exiting successfully. Buy a developer a beer!
