                               Psi4 1.4a3.dev225

  ==> Input File <==

--------------------------------------------------------------------------
#psi4
#
memory 32 gb

molecule  {
1 1
  N       -1.4549350    -0.0063160    -0.3913190
  C        0.7700580    -0.6819900     0.3309590
  C        0.8387740     0.6929140    -0.3473660
  C       -0.5772670    -1.2354140    -0.1320620
  C       -0.5771770     1.2100060    -0.1498930
  C        1.9243020    -1.6239510     0.0114420
  C        1.8934400     1.6361940     0.2164580
  C       -2.7287170     0.0116090     0.3933420
  H        0.7294781    -0.5204609     1.3970927
  H        1.0195210     0.5454130    -1.4226110
  H       -1.7088400    -0.0087310    -1.3861360
  H       -0.4895840    -1.7781730    -1.0771710
  H       -1.0806180    -1.8736500     0.5969550
  H       -0.7401010     1.5214000     0.8863980
  H       -0.8919120     2.0130950    -0.8209550
  H        2.8677010    -1.2131930     0.3775700
  H        1.7829480    -2.5983540     0.4871410
  H        2.0117000    -1.7770280    -1.0688530
  H        2.8946680     1.2288240     0.0607940
  H        1.8539810     2.6122500    -0.2745750
  H        1.7463830     1.7834510     1.2910380
  H       -2.4748400    -0.0372670     1.4518960
  H       -3.2625880     0.9370400     0.1753330
  H       -3.3330800    -0.8496000     0.1082720
units angstrom
no_reorient  #important for SAPT in psi4, default
symmetry c1  #important for SAPT in psi4, default
}

set PROPERTIES_ORIGIN ["COM"]
properties('MP2/aug-cc-pvtz', properties = ['dipole'])
--------------------------------------------------------------------------

    Molecular point group: c1
  Charge       = 1
  Multiplicity = 1
  Basis Set: AUG-CC-PVTZ
    Blend: AUG-CC-PVTZ
  Basis Set: (AUG-CC-PVTZ AUX)
    Blend: AUG-CC-PVTZ-JKFIT

    Orbital Energies [Eh]
    ---------------------

    Doubly Occupied:

       1A    -15.852112     2A    -11.449018     3A    -11.446040
       4A    -11.445674     5A    -11.390622     6A    -11.387881
       7A    -11.352815     8A    -11.352308     9A     -1.489419
      10A     -1.272528    11A     -1.193307    12A     -1.142693
      13A     -1.094826    14A     -1.065468    15A     -0.987417
      16A     -0.941203    17A     -0.903743    18A     -0.845237
      19A     -0.822108    20A     -0.786723    21A     -0.763225
      22A     -0.755055    23A     -0.735276    24A     -0.715575
      25A     -0.701156    26A     -0.697337    27A     -0.676296
      28A     -0.662864    29A     -0.647975    30A     -0.628610
      31A     -0.624023    32A     -0.602980

  @DF-RHF Final Energy:  -328.75429087918928

   => Energetics <=

    Nuclear Repulsion Energy =            424.5915777688732078
    One-Electron Energy =               -1273.8287108141159933
    Two-Electron Energy =                 520.4828421660535014
    Total Energy =                       -328.7542908791892842
  Basis Set: (AUG-CC-PVTZ AUX)
    Blend: AUG-CC-PVTZ-RI
    Molecular point group: c1

    Geometry (in Angstrom), charge = 1, multiplicity = 1:

       Center              X                  Y                   Z               Mass
    ------------   -----------------  -----------------  -----------------  -----------------
         N           -1.446869052654    -0.006393732141    -0.384162144541    14.003074004430
         C            0.778123947346    -0.682067732141     0.338115855459    12.000000000000
         C            0.846839947346     0.692836267859    -0.340209144541    12.000000000000
         C           -0.569201052654    -1.235491732141    -0.124905144541    12.000000000000
         C           -0.569111052654     1.209928267859    -0.142736144541    12.000000000000
         C            1.932367947346    -1.624028732141     0.018598855459    12.000000000000
         C            1.901505947346     1.636116267859     0.223614855459    12.000000000000
         C           -2.720651052654     0.011531267859     0.400498855459    12.000000000000
         H            0.737544047346    -0.520538632141     1.404249555459     1.007825032230
         H            1.027586947346     0.545335267859    -1.415454144541     1.007825032230
         H           -1.700774052654    -0.008808732141    -1.378979144541     1.007825032230
         H           -0.481518052654    -1.778250732141    -1.070014144541     1.007825032230
         H           -1.072552052654    -1.873727732141     0.604111855459     1.007825032230
         H           -0.732035052654     1.521322267859     0.893554855459     1.007825032230
         H           -0.883846052654     2.013017267859    -0.813798144541     1.007825032230
         H            2.875766947346    -1.213270732141     0.384726855459     1.007825032230
         H            1.791013947346    -2.598431732141     0.494297855459     1.007825032230
         H            2.019765947346    -1.777105732141    -1.061696144541     1.007825032230
         H            2.902733947346     1.228746267859     0.067950855459     1.007825032230
         H            1.862046947346     2.612172267859    -0.267418144541     1.007825032230
         H            1.754448947346     1.783373267859     1.298194855459     1.007825032230
         H           -2.466774052654    -0.037344732141     1.459052855459     1.007825032230
         H           -3.254522052654     0.936962267859     0.182489855459     1.007825032230
         H           -3.325014052654    -0.849677732141     0.115428855459     1.007825032230

  Basis Set: AUG-CC-PVTZ
    Blend: AUG-CC-PVTZ
  Basis Set: (AUG-CC-PVTZ AUX)
    Blend: AUG-CC-PVTZ-JKFIT
	 Reference Energy          =    -328.7542908791892842 [Eh]
	 Singles Energy            =      -0.0000000000000000 [Eh]
	 Same-Spin Energy          =      -0.3477775620712287 [Eh]
	 Opposite-Spin Energy      =      -1.2497149764017408 [Eh]
	 Correlation Energy        =      -1.5974925384729695 [Eh]
	 Total Energy              =    -330.3517834176622614 [Eh]

	 ================> DF-SCS-MP2 Energies <==================
	-----------------------------------------------------------
	 SCS Same-Spin Scale       =       0.3333333333333333 [-]
	 SCS Opposite-Spin Scale   =       1.2000000000000000 [-]
	 SCS Same-Spin Energy      =      -0.1159258540237429 [Eh]
	 SCS Opposite-Spin Energy  =      -1.4996579716820888 [Eh]
	 SCS Correlation Energy    =      -1.6155838257058317 [Eh]
	 SCS Total Energy          =    -330.3698747048950963 [Eh]
	-----------------------------------------------------------

  Dipole Moment: [D]
     X:    -4.3588      Y:     0.0042      Z:    -0.8586     Total:     4.4426

*** Psi4 exiting successfully. Buy a developer a beer!
