                               Psi4 1.4a3.dev225

  ==> Input File <==

--------------------------------------------------------------------------
#psi4
#
memory 32 gb

molecule  {
1 1
  N       -1.4549350    -0.0063160    -0.3913190
  C        0.7700580    -0.6819900     0.3309590
  C        0.8387740     0.6929140    -0.3473660
  C       -0.6918164    -1.0749974    -0.1658991
  C       -0.5771770     1.2100060    -0.1498930
  C        1.9243020    -1.6239510     0.0114420
  C        1.8934400     1.6361940     0.2164580
  C       -2.7287170     0.0116090     0.3933420
  H        0.7287260    -0.5174670     1.4168530
  H        1.0195210     0.5454130    -1.4226110
  H       -1.7088400    -0.0087310    -1.3861360
  H       -0.4895840    -1.7781730    -1.0771710
  H       -1.0806180    -1.8736500     0.5969550
  H       -0.7401010     1.5214000     0.8863980
  H       -0.8919120     2.0130950    -0.8209550
  H        2.8677010    -1.2131930     0.3775700
  H        1.7829480    -2.5983540     0.4871410
  H        2.0117000    -1.7770280    -1.0688530
  H        2.8946680     1.2288240     0.0607940
  H        1.8539810     2.6122500    -0.2745750
  H        1.7463830     1.7834510     1.2910380
  H       -2.4748400    -0.0372670     1.4518960
  H       -3.2625880     0.9370400     0.1753330
  H       -3.3330800    -0.8496000     0.1082720
units angstrom
no_reorient  #important for SAPT in psi4, default
symmetry c1  #important for SAPT in psi4, default
}

set PROPERTIES_ORIGIN ["COM"]
properties('MP2/aug-cc-pvtz', properties = ['dipole'])
--------------------------------------------------------------------------

    Molecular point group: c1
  Charge       = 1
  Multiplicity = 1
  Basis Set: AUG-CC-PVTZ
    Blend: AUG-CC-PVTZ
  Basis Set: (AUG-CC-PVTZ AUX)
    Blend: AUG-CC-PVTZ-JKFIT

    Orbital Energies [Eh]
    ---------------------

    Doubly Occupied:

       1A    -15.861044     2A    -11.455751     3A    -11.451019
       4A    -11.441533     5A    -11.391937     6A    -11.389225
       7A    -11.352145     8A    -11.352121     9A     -1.542062
      10A     -1.271320    11A     -1.191017    12A     -1.157593
      13A     -1.102356    14A     -1.068266    15A     -0.986824
      16A     -0.938612    17A     -0.924868    18A     -0.859589
      19A     -0.837372    20A     -0.782008    21A     -0.761122
      22A     -0.752367    23A     -0.744540    24A     -0.721223
      25A     -0.703665    26A     -0.675978    27A     -0.672644
      28A     -0.664291    29A     -0.639368    30A     -0.626193
      31A     -0.611947    32A     -0.586640

  @DF-RHF Final Energy:  -328.71395686351059

   => Energetics <=

    Nuclear Repulsion Energy =            426.9362130618549145
    One-Electron Energy =               -1278.2670582758876208
    Two-Electron Energy =                 522.6168883505221174
    Total Energy =                       -328.7139568635105888
  Basis Set: (AUG-CC-PVTZ AUX)
    Blend: AUG-CC-PVTZ-RI
    Molecular point group: c1

    Geometry (in Angstrom), charge = 1, multiplicity = 1:

       Center              X                  Y                   Z               Mass
    ------------   -----------------  -----------------  -----------------  -----------------
         N           -1.434818131959    -0.023287149092    -0.380778843806    14.003074004430
         C            0.790174868041    -0.698961149092     0.341499156194    12.000000000000
         C            0.858890868041     0.675942850908    -0.336825843806    12.000000000000
         C           -0.671699531959    -1.091968549092    -0.155358943806    12.000000000000
         C           -0.557060131959     1.193034850908    -0.139352843806    12.000000000000
         C            1.944418868041    -1.640922149092     0.021982156194    12.000000000000
         C            1.913556868041     1.619222850908     0.226998156194    12.000000000000
         C           -2.708600131959    -0.005362149092     0.403882156194    12.000000000000
         H            0.748842868041    -0.534438149092     1.427393156194     1.007825032230
         H            1.039637868041     0.528441850908    -1.412070843806     1.007825032230
         H           -1.688723131959    -0.025702149092    -1.375595843806     1.007825032230
         H           -0.469467131959    -1.795144149092    -1.066630843806     1.007825032230
         H           -1.060501131959    -1.890621149092     0.607495156194     1.007825032230
         H           -0.719984131959     1.504428850908     0.896938156194     1.007825032230
         H           -0.871795131959     1.996123850908    -0.810414843806     1.007825032230
         H            2.887817868041    -1.230164149092     0.388110156194     1.007825032230
         H            1.803064868041    -2.615325149092     0.497681156194     1.007825032230
         H            2.031816868041    -1.793999149092    -1.058312843806     1.007825032230
         H            2.914784868041     1.211852850908     0.071334156194     1.007825032230
         H            1.874097868041     2.595278850908    -0.264034843806     1.007825032230
         H            1.766499868041     1.766479850908     1.301578156194     1.007825032230
         H           -2.454723131959    -0.054238149092     1.462436156194     1.007825032230
         H           -3.242471131959     0.920068850908     0.185873156194     1.007825032230
         H           -3.312963131959    -0.866571149092     0.118812156194     1.007825032230

  Basis Set: AUG-CC-PVTZ
    Blend: AUG-CC-PVTZ
  Basis Set: (AUG-CC-PVTZ AUX)
    Blend: AUG-CC-PVTZ-JKFIT
	 Reference Energy          =    -328.7139568635105888 [Eh]
	 Singles Energy            =      -0.0000000000000000 [Eh]
	 Same-Spin Energy          =      -0.3500475514213819 [Eh]
	 Opposite-Spin Energy      =      -1.2518854807459621 [Eh]
	 Correlation Energy        =      -1.6019330321673440 [Eh]
	 Total Energy              =    -330.3158898956779126 [Eh]

	 ================> DF-SCS-MP2 Energies <==================
	-----------------------------------------------------------
	 SCS Same-Spin Scale       =       0.3333333333333333 [-]
	 SCS Opposite-Spin Scale   =       1.2000000000000000 [-]
	 SCS Same-Spin Energy      =      -0.1166825171404606 [Eh]
	 SCS Opposite-Spin Energy  =      -1.5022625768951545 [Eh]
	 SCS Correlation Energy    =      -1.6189450940356152 [Eh]
	 SCS Total Energy          =    -330.3329019575461984 [Eh]
	-----------------------------------------------------------

  Dipole Moment: [D]
     X:    -4.4885      Y:     0.1823      Z:    -0.8681     Total:     4.5753

*** Psi4 exiting successfully. Buy a developer a beer!
