                               Psi4 1.4a3.dev225

  ==> Input File <==

--------------------------------------------------------------------------
#psi4
#
memory 32 gb

molecule  {
1 1
  N       -1.4549350    -0.0063160    -0.3913190
  C        0.7700580    -0.6819900     0.3309590
  C        0.8387740     0.6929140    -0.3473660
  C       -0.6654207    -1.2716238    -0.1623568
  C       -0.5771770     1.2100060    -0.1498930
  C        1.9243020    -1.6239510     0.0114420
  C        1.8934400     1.6361940     0.2164580
  C       -2.7287170     0.0116090     0.3933420
  H        0.7287260    -0.5174670     1.4168530
  H        1.0195210     0.5454130    -1.4226110
  H       -1.7088400    -0.0087310    -1.3861360
  H       -0.4895840    -1.7781730    -1.0771710
  H       -1.0806180    -1.8736500     0.5969550
  H       -0.7401010     1.5214000     0.8863980
  H       -0.8919120     2.0130950    -0.8209550
  H        2.8677010    -1.2131930     0.3775700
  H        1.7829480    -2.5983540     0.4871410
  H        2.0117000    -1.7770280    -1.0688530
  H        2.8946680     1.2288240     0.0607940
  H        1.8539810     2.6122500    -0.2745750
  H        1.7463830     1.7834510     1.2910380
  H       -2.4748400    -0.0372670     1.4518960
  H       -3.2625880     0.9370400     0.1753330
  H       -3.3330800    -0.8496000     0.1082720
units angstrom
no_reorient  #important for SAPT in psi4, default
symmetry c1  #important for SAPT in psi4, default
}

set PROPERTIES_ORIGIN ["COM"]
properties('MP2/aug-cc-pvtz', properties = ['dipole'])
--------------------------------------------------------------------------

    Molecular point group: c1
  Charge       = 1
  Multiplicity = 1
  Basis Set: AUG-CC-PVTZ
    Blend: AUG-CC-PVTZ
  Basis Set: (AUG-CC-PVTZ AUX)
    Blend: AUG-CC-PVTZ-JKFIT

    Orbital Energies [Eh]
    ---------------------

    Doubly Occupied:

       1A    -15.854479     2A    -11.449440     3A    -11.446794
       4A    -11.441069     5A    -11.395186     6A    -11.390190
       7A    -11.352974     8A    -11.350949     9A     -1.493097
      10A     -1.264887    11A     -1.189485    12A     -1.143452
      13A     -1.097895    14A     -1.063964    15A     -0.988456
      16A     -0.939207    17A     -0.902811    18A     -0.845354
      19A     -0.825126    20A     -0.790085    21A     -0.765392
      22A     -0.749713    23A     -0.734581    24A     -0.723026
      25A     -0.702959    26A     -0.700680    27A     -0.675856
      28A     -0.660284    29A     -0.648752    30A     -0.623814
      31A     -0.614573    32A     -0.597568

  @DF-RHF Final Energy:  -328.74671759969135

   => Energetics <=

    Nuclear Repulsion Energy =            423.4278546348134569
    One-Electron Energy =               -1271.5049473692745323
    Two-Electron Energy =                 519.3303751347697244
    Total Energy =                       -328.7467175996913511
  Basis Set: (AUG-CC-PVTZ AUX)
    Blend: AUG-CC-PVTZ-RI
    Molecular point group: c1

    Geometry (in Angstrom), charge = 1, multiplicity = 1:

       Center              X                  Y                   Z               Mass
    ------------   -----------------  -----------------  -----------------  -----------------
         N           -1.437593503806    -0.002612896283    -0.381151298399    14.003074004430
         C            0.787399496194    -0.678286896283     0.341126701601    12.000000000000
         C            0.856115496194     0.696617103717    -0.337198298399    12.000000000000
         C           -0.648079203806    -1.267920696283    -0.152189098399    12.000000000000
         C           -0.559835503806     1.213709103717    -0.139725298399    12.000000000000
         C            1.941643496194    -1.620247896283     0.021609701601    12.000000000000
         C            1.910781496194     1.639897103717     0.226625701601    12.000000000000
         C           -2.711375503806     0.015312103717     0.403509701601    12.000000000000
         H            0.746067496194    -0.513763896283     1.427020701601     1.007825032230
         H            1.036862496194     0.549116103717    -1.412443298399     1.007825032230
         H           -1.691498503806    -0.005027896283    -1.375968298399     1.007825032230
         H           -0.472242503806    -1.774469896283    -1.067003298399     1.007825032230
         H           -1.063276503806    -1.869946896283     0.607122701601     1.007825032230
         H           -0.722759503806     1.525103103717     0.896565701601     1.007825032230
         H           -0.874570503806     2.016798103717    -0.810787298399     1.007825032230
         H            2.885042496194    -1.209489896283     0.387737701601     1.007825032230
         H            1.800289496194    -2.594650896283     0.497308701601     1.007825032230
         H            2.029041496194    -1.773324896283    -1.058685298399     1.007825032230
         H            2.912009496194     1.232527103717     0.070961701601     1.007825032230
         H            1.871322496194     2.615953103717    -0.264407298399     1.007825032230
         H            1.763724496194     1.787154103717     1.301205701601     1.007825032230
         H           -2.457498503806    -0.033563896283     1.462063701601     1.007825032230
         H           -3.245246503806     0.940743103717     0.185500701601     1.007825032230
         H           -3.315738503806    -0.845896896283     0.118439701601     1.007825032230

  Basis Set: AUG-CC-PVTZ
    Blend: AUG-CC-PVTZ
  Basis Set: (AUG-CC-PVTZ AUX)
    Blend: AUG-CC-PVTZ-JKFIT
	 Reference Energy          =    -328.7467175996913511 [Eh]
	 Singles Energy            =      -0.0000000000000000 [Eh]
	 Same-Spin Energy          =      -0.3475179872714281 [Eh]
	 Opposite-Spin Energy      =      -1.2499337646055801 [Eh]
	 Correlation Energy        =      -1.5974517518770082 [Eh]
	 Total Energy              =    -330.3441693515683824 [Eh]

	 ================> DF-SCS-MP2 Energies <==================
	-----------------------------------------------------------
	 SCS Same-Spin Scale       =       0.3333333333333333 [-]
	 SCS Opposite-Spin Scale   =       1.2000000000000000 [-]
	 SCS Same-Spin Energy      =      -0.1158393290904760 [Eh]
	 SCS Opposite-Spin Energy  =      -1.4999205175266961 [Eh]
	 SCS Correlation Energy    =      -1.6157598466171721 [Eh]
	 SCS Total Energy          =    -330.3624774463085032 [Eh]
	-----------------------------------------------------------

  Dipole Moment: [D]
     X:    -4.3580      Y:     0.0531      Z:    -0.8639     Total:     4.4431

*** Psi4 exiting successfully. Buy a developer a beer!
