                               Psi4 1.4a3.dev225

  ==> Input File <==

--------------------------------------------------------------------------
#psi4
#
memory 32 gb

molecule  {
1 1
  N       -1.4549350    -0.0063160    -0.3913190
  C        0.7700580    -0.6819900     0.3309590
  C        0.8387740     0.6929140    -0.3473660
  C       -0.5772670    -1.2354140    -0.1320620
  C       -0.5771770     1.2100060    -0.1498930
  C        1.9243020    -1.6239510     0.0114420
  C        1.8934400     1.6361940     0.2164580
  C       -2.7287170     0.0116090     0.3933420
  H        0.7287260    -0.5174670     1.4168530
  H        1.0195210     0.5454130    -1.4226110
  H       -1.7088400    -0.0087310    -1.3861360
  H       -0.4895840    -1.7781730    -1.0771710
  H       -1.0806180    -1.8736500     0.5969550
  H       -0.7401010     1.5214000     0.8863980
  H       -0.8919120     2.0130950    -0.8209550
  H        2.8677010    -1.2131930     0.3775700
  H        1.7829480    -2.5983540     0.4871410
  H        2.0117000    -1.7770280    -1.0688530
  H        2.8946680     1.2288240     0.0607940
  H        1.8611992     2.4337015    -0.1847511
  H        1.7463830     1.7834510     1.2910380
  H       -2.4748400    -0.0372670     1.4518960
  H       -3.2625880     0.9370400     0.1753330
  H       -3.3330800    -0.8496000     0.1082720
units angstrom
no_reorient  #important for SAPT in psi4, default
symmetry c1  #important for SAPT in psi4, default
}

set PROPERTIES_ORIGIN ["COM"]
properties('MP2/aug-cc-pvtz', properties = ['dipole'])
--------------------------------------------------------------------------

    Molecular point group: c1
  Charge       = 1
  Multiplicity = 1
  Basis Set: AUG-CC-PVTZ
    Blend: AUG-CC-PVTZ
  Basis Set: (AUG-CC-PVTZ AUX)
    Blend: AUG-CC-PVTZ-JKFIT

    Orbital Energies [Eh]
    ---------------------

    Doubly Occupied:

       1A    -15.851997     2A    -11.448868     3A    -11.445657
       4A    -11.445618     5A    -11.389913     6A    -11.389272
       7A    -11.351868     8A    -11.328896     9A     -1.489222
      10A     -1.272798    11A     -1.195474    12A     -1.145222
      13A     -1.106136    14A     -1.068897    15A     -0.994002
      16A     -0.940332    17A     -0.903572    18A     -0.847443
      19A     -0.821700    20A     -0.789593    21A     -0.763519
      22A     -0.761970    23A     -0.740077    24A     -0.718042
      25A     -0.703748    26A     -0.696999    27A     -0.690546
      28A     -0.662166    29A     -0.646838    30A     -0.627573
      31A     -0.622584    32A     -0.608333

  @DF-RHF Final Energy:  -328.72000027496364

   => Energetics <=

    Nuclear Repulsion Energy =            425.5205914031600969
    One-Electron Energy =               -1275.5434367813018071
    Two-Electron Energy =                 521.3028451031780151
    Total Energy =                       -328.7200002749636951
  Basis Set: (AUG-CC-PVTZ AUX)
    Blend: AUG-CC-PVTZ-RI
    Molecular point group: c1

    Geometry (in Angstrom), charge = 1, multiplicity = 1:

       Center              X                  Y                   Z               Mass
    ------------   -----------------  -----------------  -----------------  -----------------
         N           -1.446926152417    -0.004843473704    -0.385129842514    14.003074004430
         C            0.778066847583    -0.680517473704     0.337148157486    12.000000000000
         C            0.846782847583     0.694386526296    -0.341176842514    12.000000000000
         C           -0.569258152417    -1.233941473704    -0.125872842514    12.000000000000
         C           -0.569168152417     1.211478526296    -0.143703842514    12.000000000000
         C            1.932310847583    -1.622478473704     0.017631157486    12.000000000000
         C            1.901448847583     1.637666526296     0.222647157486    12.000000000000
         C           -2.720708152417     0.013081526296     0.399531157486    12.000000000000
         H            0.736734847583    -0.515994473704     1.423042157486     1.007825032230
         H            1.027529847583     0.546885526296    -1.416421842514     1.007825032230
         H           -1.700831152417    -0.007258473704    -1.379946842514     1.007825032230
         H           -0.481575152417    -1.776700473704    -1.070981842514     1.007825032230
         H           -1.072609152417    -1.872177473704     0.603144157486     1.007825032230
         H           -0.732092152417     1.522872526296     0.892587157486     1.007825032230
         H           -0.883903152417     2.014567526296    -0.814765842514     1.007825032230
         H            2.875709847583    -1.211720473704     0.383759157486     1.007825032230
         H            1.790956847583    -2.596881473704     0.493330157486     1.007825032230
         H            2.019708847583    -1.775555473704    -1.062663842514     1.007825032230
         H            2.902676847583     1.230296526296     0.066983157486     1.007825032230
         H            1.869208047583     2.435174026296    -0.178561942514     1.007825032230
         H            1.754391847583     1.784923526296     1.297227157486     1.007825032230
         H           -2.466831152417    -0.035794473704     1.458085157486     1.007825032230
         H           -3.254579152417     0.938512526296     0.181522157486     1.007825032230
         H           -3.325071152417    -0.848127473704     0.114461157486     1.007825032230

  Basis Set: AUG-CC-PVTZ
    Blend: AUG-CC-PVTZ
  Basis Set: (AUG-CC-PVTZ AUX)
    Blend: AUG-CC-PVTZ-JKFIT
	 Reference Energy          =    -328.7200002749636383 [Eh]
	 Singles Energy            =      -0.0000000000000000 [Eh]
	 Same-Spin Energy          =      -0.3479323337106114 [Eh]
	 Opposite-Spin Energy      =      -1.2492372102436144 [Eh]
	 Correlation Energy        =      -1.5971695439542257 [Eh]
	 Total Energy              =    -330.3171698189178755 [Eh]

	 ================> DF-SCS-MP2 Energies <==================
	-----------------------------------------------------------
	 SCS Same-Spin Scale       =       0.3333333333333333 [-]
	 SCS Opposite-Spin Scale   =       1.2000000000000000 [-]
	 SCS Same-Spin Energy      =      -0.1159774445702038 [Eh]
	 SCS Opposite-Spin Energy  =      -1.4990846522923373 [Eh]
	 SCS Correlation Energy    =      -1.6150620968625411 [Eh]
	 SCS Total Energy          =    -330.3350623718261545 [Eh]
	-----------------------------------------------------------

  Dipole Moment: [D]
     X:    -4.3508      Y:     0.0528      Z:    -0.8791     Total:     4.4390

*** Psi4 exiting successfully. Buy a developer a beer!
