                               Psi4 1.4a3.dev225

  ==> Input File <==

--------------------------------------------------------------------------
#psi4
#
memory 32 gb

molecule  {
1 1
  N       -1.4549350    -0.0063160    -0.3913190
  C        0.7700580    -0.6819900     0.3309590
  C        0.8387740     0.6929140    -0.3473660
  C       -0.5772670    -1.2354140    -0.1320620
  C       -0.5771770     1.2100060    -0.1498930
  C        1.9243020    -1.6239510     0.0114420
  C        1.8934400     1.6361940     0.2164580
  C       -2.7287170     0.0116090     0.3933420
  H        0.7287260    -0.5174670     1.4168530
  H        1.0195210     0.5454130    -1.4226110
  H       -1.7335700    -0.0089662    -1.4830296
  H       -0.4895840    -1.7781730    -1.0771710
  H       -1.0806180    -1.8736500     0.5969550
  H       -0.7401010     1.5214000     0.8863980
  H       -0.8919120     2.0130950    -0.8209550
  H        2.8677010    -1.2131930     0.3775700
  H        1.7829480    -2.5983540     0.4871410
  H        2.0117000    -1.7770280    -1.0688530
  H        2.8946680     1.2288240     0.0607940
  H        1.8539810     2.6122500    -0.2745750
  H        1.7463830     1.7834510     1.2910380
  H       -2.4748400    -0.0372670     1.4518960
  H       -3.2625880     0.9370400     0.1753330
  H       -3.3330800    -0.8496000     0.1082720
units angstrom
no_reorient  #important for SAPT in psi4, default
symmetry c1  #important for SAPT in psi4, default
}

set PROPERTIES_ORIGIN ["COM"]
properties('MP2/aug-cc-pvtz', properties = ['dipole'])
--------------------------------------------------------------------------

    Molecular point group: c1
  Charge       = 1
  Multiplicity = 1
  Basis Set: AUG-CC-PVTZ
    Blend: AUG-CC-PVTZ
  Basis Set: (AUG-CC-PVTZ AUX)
    Blend: AUG-CC-PVTZ-JKFIT

    Orbital Energies [Eh]
    ---------------------

    Doubly Occupied:

       1A    -15.859398     2A    -11.448288     3A    -11.445390
       4A    -11.444928     5A    -11.390345     6A    -11.389601
       7A    -11.352384     8A    -11.352145     9A     -1.478518
      10A     -1.269673    11A     -1.192302    12A     -1.140719
      13A     -1.094063    14A     -1.054524    15A     -0.982631
      16A     -0.938160    17A     -0.894008    18A     -0.842984
      19A     -0.819758    20A     -0.785404    21A     -0.762229
      22A     -0.752918    23A     -0.733268    24A     -0.713635
      25A     -0.700332    26A     -0.692205    27A     -0.675903
      28A     -0.662018    29A     -0.646686    30A     -0.627644
      31A     -0.622301    32A     -0.602446

  @DF-RHF Final Energy:  -328.74398101665508

   => Energetics <=

    Nuclear Repulsion Energy =            423.9014498971212674
    One-Electron Energy =               -1272.5572434945927398
    Two-Electron Energy =                 519.9118125808164450
    Total Energy =                       -328.7439810166550842
  Basis Set: (AUG-CC-PVTZ AUX)
    Blend: AUG-CC-PVTZ-RI
    Molecular point group: c1

    Geometry (in Angstrom), charge = 1, multiplicity = 1:

       Center              X                  Y                   Z               Mass
    ------------   -----------------  -----------------  -----------------  -----------------
         N           -1.446644029552    -0.006418093211    -0.383481008592    14.003074004430
         C            0.778348970448    -0.682092093211     0.338796991408    12.000000000000
         C            0.847064970448     0.692811906789    -0.339528008592    12.000000000000
         C           -0.568976029552    -1.235516093211    -0.124224008592    12.000000000000
         C           -0.568886029552     1.209903906789    -0.142055008592    12.000000000000
         C            1.932592970448    -1.624053093211     0.019279991408    12.000000000000
         C            1.901730970448     1.636091906789     0.224295991408    12.000000000000
         C           -2.720426029552     0.011506906789     0.401179991408    12.000000000000
         H            0.737016970448    -0.517569093211     1.424690991408     1.007825032230
         H            1.027811970448     0.545310906789    -1.414773008592     1.007825032230
         H           -1.725279029552    -0.009068293211    -1.475191608592     1.007825032230
         H           -0.481293029552    -1.778275093211    -1.069333008592     1.007825032230
         H           -1.072327029552    -1.873752093211     0.604792991408     1.007825032230
         H           -0.731810029552     1.521297906789     0.894235991408     1.007825032230
         H           -0.883621029552     2.012992906789    -0.813117008592     1.007825032230
         H            2.875991970448    -1.213295093211     0.385407991408     1.007825032230
         H            1.791238970448    -2.598456093211     0.494978991408     1.007825032230
         H            2.019990970448    -1.777130093211    -1.061015008592     1.007825032230
         H            2.902958970448     1.228721906789     0.068631991408     1.007825032230
         H            1.862271970448     2.612147906789    -0.266737008592     1.007825032230
         H            1.754673970448     1.783348906789     1.298875991408     1.007825032230
         H           -2.466549029552    -0.037369093211     1.459733991408     1.007825032230
         H           -3.254297029552     0.936937906789     0.183170991408     1.007825032230
         H           -3.324789029552    -0.849702093211     0.116109991408     1.007825032230

  Basis Set: AUG-CC-PVTZ
    Blend: AUG-CC-PVTZ
  Basis Set: (AUG-CC-PVTZ AUX)
    Blend: AUG-CC-PVTZ-JKFIT
	 Reference Energy          =    -328.7439810166550842 [Eh]
	 Singles Energy            =      -0.0000000000000000 [Eh]
	 Same-Spin Energy          =      -0.3485523404624670 [Eh]
	 Opposite-Spin Energy      =      -1.2520831077256918 [Eh]
	 Correlation Energy        =      -1.6006354481881586 [Eh]
	 Total Energy              =    -330.3446164648432273 [Eh]

	 ================> DF-SCS-MP2 Energies <==================
	-----------------------------------------------------------
	 SCS Same-Spin Scale       =       0.3333333333333333 [-]
	 SCS Opposite-Spin Scale   =       1.2000000000000000 [-]
	 SCS Same-Spin Energy      =      -0.1161841134874890 [Eh]
	 SCS Opposite-Spin Energy  =      -1.5024997292708300 [Eh]
	 SCS Correlation Energy    =      -1.6186838427583190 [Eh]
	 SCS Total Energy          =    -330.3626648594134281 [Eh]
	-----------------------------------------------------------

  Dipole Moment: [D]
     X:    -4.3959      Y:     0.0002      Z:    -0.9722     Total:     4.5021

*** Psi4 exiting successfully. Buy a developer a beer!
