                               Psi4 1.4a3.dev225

  ==> Input File <==

--------------------------------------------------------------------------
#psi4
#
memory 32 gb

molecule  {
1 1
  N       -1.4549350    -0.0063160    -0.3913190
  C        0.7700580    -0.6819900     0.3309590
  C        0.8387740     0.6929140    -0.3473660
  C       -0.5772670    -1.2354140    -0.1320620
  C       -0.5771770     1.2100060    -0.1498930
  C        1.9243020    -1.6239510     0.0114420
  C        1.8934400     1.6361940     0.2164580
  C       -2.7287170     0.0116090     0.3933420
  H        0.7287260    -0.5174670     1.4168530
  H        1.0195210     0.5454130    -1.4226110
  H       -1.7088400    -0.0087310    -1.3861360
  H       -0.4895840    -1.7781730    -1.0771710
  H       -1.0806180    -1.8736500     0.5969550
  H       -0.7401010     1.5214000     0.8863980
  H       -0.8919120     2.0130950    -0.8209550
  H        2.8677010    -1.2131930     0.3775700
  H        1.7829480    -2.5983540     0.4871410
  H        2.0117000    -1.7770280    -1.0688530
  H        2.8946680     1.2288240     0.0607940
  H        1.8717543     2.5567196    -0.3730486
  H        1.7463830     1.7834510     1.2910380
  H       -2.4748400    -0.0372670     1.4518960
  H       -3.2625880     0.9370400     0.1753330
  H       -3.3330800    -0.8496000     0.1082720
units angstrom
no_reorient  #important for SAPT in psi4, default
symmetry c1  #important for SAPT in psi4, default
}

set PROPERTIES_ORIGIN ["COM"]
properties('MP2/aug-cc-pvtz', properties = ['dipole'])
--------------------------------------------------------------------------

    Molecular point group: c1
  Charge       = 1
  Multiplicity = 1
  Basis Set: AUG-CC-PVTZ
    Blend: AUG-CC-PVTZ
  Basis Set: (AUG-CC-PVTZ AUX)
    Blend: AUG-CC-PVTZ-JKFIT

    Orbital Energies [Eh]
    ---------------------

    Doubly Occupied:

       1A    -15.852035     2A    -11.448928     3A    -11.445910
       4A    -11.445549     5A    -11.390294     6A    -11.389608
       7A    -11.353144     8A    -11.352263     9A     -1.489310
      10A     -1.272011    11A     -1.193169    12A     -1.142644
      13A     -1.095067    14A     -1.065482    15A     -0.986525
      16A     -0.939170    17A     -0.903061    18A     -0.844590
      19A     -0.821959    20A     -0.786897    21A     -0.763099
      22A     -0.754080    23A     -0.734447    24A     -0.716962
      25A     -0.704051    26A     -0.697209    27A     -0.673991
      28A     -0.662939    29A     -0.648502    30A     -0.628304
      31A     -0.622155    32A     -0.601302

  @DF-RHF Final Energy:  -328.75287351139110

   => Energetics <=

    Nuclear Repulsion Energy =            424.5502590160770637
    One-Electron Energy =               -1273.7569491131291670
    Two-Electron Energy =                 520.4538165856611158
    Total Energy =                       -328.7528735113910443
  Basis Set: (AUG-CC-PVTZ AUX)
    Blend: AUG-CC-PVTZ-RI
    Molecular point group: c1

    Geometry (in Angstrom), charge = 1, multiplicity = 1:

       Center              X                  Y                   Z               Mass
    ------------   -----------------  -----------------  -----------------  -----------------
         N           -1.447019360643    -0.005929801532    -0.383467056190    14.003074004430
         C            0.777973639357    -0.681603801532     0.338810943810    12.000000000000
         C            0.846689639357     0.693300198468    -0.339514056190    12.000000000000
         C           -0.569351360643    -1.235027801532    -0.124210056190    12.000000000000
         C           -0.569261360643     1.210392198468    -0.142041056190    12.000000000000
         C            1.932217639357    -1.623564801532     0.019293943810    12.000000000000
         C            1.901355639357     1.636580198468     0.224309943810    12.000000000000
         C           -2.720801360643     0.011995198468     0.401193943810    12.000000000000
         H            0.736641639357    -0.517080801532     1.424704943810     1.007825032230
         H            1.027436639357     0.545799198468    -1.414759056190     1.007825032230
         H           -1.700924360643    -0.008344801532    -1.378284056190     1.007825032230
         H           -0.481668360643    -1.777786801532    -1.069319056190     1.007825032230
         H           -1.072702360643    -1.873263801532     0.604806943810     1.007825032230
         H           -0.732185360643     1.521786198468     0.894249943810     1.007825032230
         H           -0.883996360643     2.013481198468    -0.813103056190     1.007825032230
         H            2.875616639357    -1.212806801532     0.385421943810     1.007825032230
         H            1.790863639357    -2.597967801532     0.494992943810     1.007825032230
         H            2.019615639357    -1.776641801532    -1.061001056190     1.007825032230
         H            2.902583639357     1.229210198468     0.068645943810     1.007825032230
         H            1.879669939357     2.557105798468    -0.365196656190     1.007825032230
         H            1.754298639357     1.783837198468     1.298889943810     1.007825032230
         H           -2.466924360643    -0.036880801532     1.459747943810     1.007825032230
         H           -3.254672360643     0.937426198468     0.183184943810     1.007825032230
         H           -3.325164360643    -0.849213801532     0.116123943810     1.007825032230

  Basis Set: AUG-CC-PVTZ
    Blend: AUG-CC-PVTZ
  Basis Set: (AUG-CC-PVTZ AUX)
    Blend: AUG-CC-PVTZ-JKFIT
	 Reference Energy          =    -328.7528735113911011 [Eh]
	 Singles Energy            =      -0.0000000000000000 [Eh]
	 Same-Spin Energy          =      -0.3478855280853296 [Eh]
	 Opposite-Spin Energy      =      -1.2500154928762925 [Eh]
	 Correlation Energy        =      -1.5979010209616220 [Eh]
	 Total Energy              =    -330.3507745323527161 [Eh]

	 ================> DF-SCS-MP2 Energies <==================
	-----------------------------------------------------------
	 SCS Same-Spin Scale       =       0.3333333333333333 [-]
	 SCS Opposite-Spin Scale   =       1.2000000000000000 [-]
	 SCS Same-Spin Energy      =      -0.1159618426951099 [Eh]
	 SCS Opposite-Spin Energy  =      -1.5000185914515509 [Eh]
	 SCS Correlation Energy    =      -1.6159804341466608 [Eh]
	 SCS Total Energy          =    -330.3688539455377509 [Eh]
	-----------------------------------------------------------

  Dipole Moment: [D]
     X:    -4.3353      Y:    -0.0095      Z:    -0.8900     Total:     4.4257

*** Psi4 exiting successfully. Buy a developer a beer!
