                               Psi4 1.4a3.dev225

  ==> Input File <==

--------------------------------------------------------------------------
#psi4
#
memory 32 gb

molecule  {
1 1
  N       -1.5060576     0.0498838    -0.4653008
  C        0.7700580    -0.6819900     0.3309590
  C        0.8387740     0.6929140    -0.3473660
  C       -0.5772670    -1.2354140    -0.1320620
  C       -0.5771770     1.2100060    -0.1498930
  C        1.9243020    -1.6239510     0.0114420
  C        1.8934400     1.6361940     0.2164580
  C       -2.7287170     0.0116090     0.3933420
  H        0.7287260    -0.5174670     1.4168530
  H        1.0195210     0.5454130    -1.4226110
  H       -1.7088400    -0.0087310    -1.3861360
  H       -0.4895840    -1.7781730    -1.0771710
  H       -1.0806180    -1.8736500     0.5969550
  H       -0.7401010     1.5214000     0.8863980
  H       -0.8919120     2.0130950    -0.8209550
  H        2.8677010    -1.2131930     0.3775700
  H        1.7829480    -2.5983540     0.4871410
  H        2.0117000    -1.7770280    -1.0688530
  H        2.8946680     1.2288240     0.0607940
  H        1.8539810     2.6122500    -0.2745750
  H        1.7463830     1.7834510     1.2910380
  H       -2.4748400    -0.0372670     1.4518960
  H       -3.2625880     0.9370400     0.1753330
  H       -3.3330800    -0.8496000     0.1082720
units angstrom
no_reorient  #important for SAPT in psi4, default
symmetry c1  #important for SAPT in psi4, default
}

set PROPERTIES_ORIGIN ["COM"]
properties('MP2/aug-cc-pvtz', properties = ['dipole'])
--------------------------------------------------------------------------

    Molecular point group: c1
  Charge       = 1
  Multiplicity = 1
  Basis Set: AUG-CC-PVTZ
    Blend: AUG-CC-PVTZ
  Basis Set: (AUG-CC-PVTZ AUX)
    Blend: AUG-CC-PVTZ-JKFIT

    Orbital Energies [Eh]
    ---------------------

    Doubly Occupied:

       1A    -15.843106     2A    -11.453720     3A    -11.447517
       4A    -11.445150     5A    -11.392415     6A    -11.391549
       7A    -11.354440     8A    -11.353331     9A     -1.484843
      10A     -1.274533    11A     -1.189512    12A     -1.140024
      13A     -1.091375    14A     -1.080388    15A     -0.992125
      16A     -0.937713    17A     -0.900862    18A     -0.841533
      19A     -0.821327    20A     -0.789141    21A     -0.761848
      22A     -0.759788    23A     -0.737090    24A     -0.711411
      25A     -0.703248    26A     -0.693116    27A     -0.675828
      28A     -0.660379    29A     -0.648157    30A     -0.629595
      31A     -0.624006    32A     -0.603681

  @DF-RHF Final Energy:  -328.74295661640576

   => Energetics <=

    Nuclear Repulsion Energy =            423.2210401469156977
    One-Electron Energy =               -1271.0624969746754687
    Two-Electron Energy =                 519.0985002113540077
    Total Energy =                       -328.7429566164057633
  Basis Set: (AUG-CC-PVTZ AUX)
    Blend: AUG-CC-PVTZ-RI
    Molecular point group: c1

    Geometry (in Angstrom), charge = 1, multiplicity = 1:

       Center              X                  Y                   Z               Mass
    ------------   -----------------  -----------------  -----------------  -----------------
         N           -1.491712476531     0.042884143480    -0.449241175269    14.003074004430
         C            0.784403123469    -0.688989656520     0.347018624731    12.000000000000
         C            0.853119123469     0.685914343480    -0.331306375269    12.000000000000
         C           -0.562921876531    -1.242413656520    -0.116002375269    12.000000000000
         C           -0.562831876531     1.203006343480    -0.133833375269    12.000000000000
         C            1.938647123469    -1.630950656520     0.027501624731    12.000000000000
         C            1.907785123469     1.629194343480     0.232517624731    12.000000000000
         C           -2.714371876531     0.004609343480     0.409401624731    12.000000000000
         H            0.743071123469    -0.524466656520     1.432912624731     1.007825032230
         H            1.033866123469     0.538413343480    -1.406551375269     1.007825032230
         H           -1.694494876531    -0.015730656520    -1.370076375269     1.007825032230
         H           -0.475238876531    -1.785172656520    -1.061111375269     1.007825032230
         H           -1.066272876531    -1.880649656520     0.613014624731     1.007825032230
         H           -0.725755876531     1.514400343480     0.902457624731     1.007825032230
         H           -0.877566876531     2.006095343480    -0.804895375269     1.007825032230
         H            2.882046123469    -1.220192656520     0.393629624731     1.007825032230
         H            1.797293123469    -2.605353656520     0.503200624731     1.007825032230
         H            2.026045123469    -1.784027656520    -1.052793375269     1.007825032230
         H            2.909013123469     1.221824343480     0.076853624731     1.007825032230
         H            1.868326123469     2.605250343480    -0.258515375269     1.007825032230
         H            1.760728123469     1.776451343480     1.307097624731     1.007825032230
         H           -2.460494876531    -0.044266656520     1.467955624731     1.007825032230
         H           -3.248242876531     0.930040343480     0.191392624731     1.007825032230
         H           -3.318734876531    -0.856599656520     0.124331624731     1.007825032230

  Basis Set: AUG-CC-PVTZ
    Blend: AUG-CC-PVTZ
  Basis Set: (AUG-CC-PVTZ AUX)
    Blend: AUG-CC-PVTZ-JKFIT
	 Reference Energy          =    -328.7429566164057633 [Eh]
	 Singles Energy            =      -0.0000000000000000 [Eh]
	 Same-Spin Energy          =      -0.3472521114551740 [Eh]
	 Opposite-Spin Energy      =      -1.2494226505156780 [Eh]
	 Correlation Energy        =      -1.5966747619708519 [Eh]
	 Total Energy              =    -330.3396313783766232 [Eh]

	 ================> DF-SCS-MP2 Energies <==================
	-----------------------------------------------------------
	 SCS Same-Spin Scale       =       0.3333333333333333 [-]
	 SCS Opposite-Spin Scale   =       1.2000000000000000 [-]
	 SCS Same-Spin Energy      =      -0.1157507038183913 [Eh]
	 SCS Opposite-Spin Energy  =      -1.4993071806188136 [Eh]
	 SCS Correlation Energy    =      -1.6150578844372050 [Eh]
	 SCS Total Energy          =    -330.3580145008429554 [Eh]
	-----------------------------------------------------------

  Dipole Moment: [D]
     X:    -4.2003      Y:    -0.1148      Z:    -0.7656     Total:     4.2711

*** Psi4 exiting successfully. Buy a developer a beer!
