                               Psi4 1.4a3.dev225

  ==> Input File <==

--------------------------------------------------------------------------
#psi4
#
memory 32 gb

molecule  {
1 1
  N       -1.4681267     0.0071886    -0.4099389
  C        0.7700580    -0.6819900     0.3309590
  C        0.8387740     0.6929140    -0.3473660
  C       -0.5772670    -1.2354140    -0.1320620
  C       -0.5771770     1.2100060    -0.1498930
  C        1.9243020    -1.6239510     0.0114420
  C        1.8934400     1.6361940     0.2164580
  C       -2.7287170     0.0116090     0.3933420
  H        0.7287260    -0.5174670     1.4168530
  H        1.0195210     0.5454130    -1.4226110
  H       -1.7088400    -0.0087310    -1.3861360
  H       -0.4895840    -1.7781730    -1.0771710
  H       -1.0806180    -1.8736500     0.5969550
  H       -0.7401010     1.5214000     0.8863980
  H       -0.8919120     2.0130950    -0.8209550
  H        2.8677010    -1.2131930     0.3775700
  H        1.7829480    -2.5983540     0.4871410
  H        2.0117000    -1.7770280    -1.0688530
  H        2.8946680     1.2288240     0.0607940
  H        1.8539810     2.6122500    -0.2745750
  H        1.7463830     1.7834510     1.2910380
  H       -2.4748400    -0.0372670     1.4518960
  H       -3.2625880     0.9370400     0.1753330
  H       -3.3330800    -0.8496000     0.1082720
units angstrom
no_reorient  #important for SAPT in psi4, default
symmetry c1  #important for SAPT in psi4, default
}

set PROPERTIES_ORIGIN ["COM"]
properties('MP2/aug-cc-pvtz', properties = ['dipole'])
--------------------------------------------------------------------------

    Molecular point group: c1
  Charge       = 1
  Multiplicity = 1
  Basis Set: AUG-CC-PVTZ
    Blend: AUG-CC-PVTZ
  Basis Set: (AUG-CC-PVTZ AUX)
    Blend: AUG-CC-PVTZ-JKFIT

    Orbital Energies [Eh]
    ---------------------

    Doubly Occupied:

       1A    -15.850092     2A    -11.448488     3A    -11.448043
       4A    -11.445487     5A    -11.391203     6A    -11.390557
       7A    -11.352953     8A    -11.352936     9A     -1.488054
      10A     -1.272711    11A     -1.192032    12A     -1.141885
      13A     -1.093864    14A     -1.069120    15A     -0.988514
      16A     -0.939010    17A     -0.902914    18A     -0.843762
      19A     -0.821842    20A     -0.786914    21A     -0.762905
      22A     -0.756255    23A     -0.735628    24A     -0.712527
      25A     -0.701237    26A     -0.698697    27A     -0.676298
      28A     -0.663014    29A     -0.647686    30A     -0.628669
      31A     -0.623235    32A     -0.603155

  @DF-RHF Final Energy:  -328.75398325860021

   => Energetics <=

    Nuclear Repulsion Energy =            424.1690227832193614
    One-Electron Energy =               -1272.9866334474695577
    Two-Electron Energy =                 520.0636274056499815
    Total Energy =                       -328.7539832586002149
  Basis Set: (AUG-CC-PVTZ AUX)
    Blend: AUG-CC-PVTZ-RI
    Molecular point group: c1

    Geometry (in Angstrom), charge = 1, multiplicity = 1:

       Center              X                  Y                   Z               Mass
    ------------   -----------------  -----------------  -----------------  -----------------
         N           -1.458435543324     0.005427470460    -0.400671954699    14.003074004430
         C            0.779749156676    -0.683751129540     0.340225945301    12.000000000000
         C            0.848465156676     0.691152870460    -0.338099054699    12.000000000000
         C           -0.567575843324    -1.237175129540    -0.122795054699    12.000000000000
         C           -0.567485843324     1.208244870460    -0.140626054699    12.000000000000
         C            1.933993156676    -1.625712129540     0.020708945301    12.000000000000
         C            1.903131156676     1.634432870460     0.225724945301    12.000000000000
         C           -2.719025843324     0.009847870460     0.402608945301    12.000000000000
         H            0.738417156676    -0.519228129540     1.426119945301     1.007825032230
         H            1.029212156676     0.543651870460    -1.413344054699     1.007825032230
         H           -1.699148843324    -0.010492129540    -1.376869054699     1.007825032230
         H           -0.479892843324    -1.779934129540    -1.067904054699     1.007825032230
         H           -1.070926843324    -1.875411129540     0.606221945301     1.007825032230
         H           -0.730409843324     1.519638870460     0.895664945301     1.007825032230
         H           -0.882220843324     2.011333870460    -0.811688054699     1.007825032230
         H            2.877392156676    -1.214954129540     0.386836945301     1.007825032230
         H            1.792639156676    -2.600115129540     0.496407945301     1.007825032230
         H            2.021391156676    -1.778789129540    -1.059586054699     1.007825032230
         H            2.904359156676     1.227062870460     0.070060945301     1.007825032230
         H            1.863672156676     2.610488870460    -0.265308054699     1.007825032230
         H            1.756074156676     1.781689870460     1.300304945301     1.007825032230
         H           -2.465148843324    -0.039028129540     1.461162945301     1.007825032230
         H           -3.252896843324     0.935278870460     0.184599945301     1.007825032230
         H           -3.323388843324    -0.851361129540     0.117538945301     1.007825032230

  Basis Set: AUG-CC-PVTZ
    Blend: AUG-CC-PVTZ
  Basis Set: (AUG-CC-PVTZ AUX)
    Blend: AUG-CC-PVTZ-JKFIT
	 Reference Energy          =    -328.7539832586002149 [Eh]
	 Singles Energy            =      -0.0000000000000000 [Eh]
	 Same-Spin Energy          =      -0.3475896375445293 [Eh]
	 Opposite-Spin Energy      =      -1.2495787047582392 [Eh]
	 Correlation Energy        =      -1.5971683423027685 [Eh]
	 Total Energy              =    -330.3511516009029947 [Eh]

	 ================> DF-SCS-MP2 Energies <==================
	-----------------------------------------------------------
	 SCS Same-Spin Scale       =       0.3333333333333333 [-]
	 SCS Opposite-Spin Scale   =       1.2000000000000000 [-]
	 SCS Same-Spin Energy      =      -0.1158632125148431 [Eh]
	 SCS Opposite-Spin Energy  =      -1.4994944457098869 [Eh]
	 SCS Correlation Energy    =      -1.6153576582247300 [Eh]
	 SCS Total Energy          =    -330.3693409168249673 [Eh]
	-----------------------------------------------------------

  Dipole Moment: [D]
     X:    -4.3183      Y:    -0.0267      Z:    -0.8427     Total:     4.3999

*** Psi4 exiting successfully. Buy a developer a beer!
