                               Psi4 1.4a3.dev225

  ==> Input File <==

--------------------------------------------------------------------------
#psi4
#
memory 32 gb

molecule  {
1 1
  N       -1.4549350    -0.0063160    -0.3913190
  C        0.7700580    -0.6819900     0.3309590
  C        0.8387740     0.6929140    -0.3473660
  C       -0.6213438    -1.2535189    -0.1472094
  C       -0.5771770     1.2100060    -0.1498930
  C        1.9243020    -1.6239510     0.0114420
  C        1.8934400     1.6361940     0.2164580
  C       -2.7287170     0.0116090     0.3933420
  H        0.7287260    -0.5174670     1.4168530
  H        1.0195210     0.5454130    -1.4226110
  H       -1.7088400    -0.0087310    -1.3861360
  H       -0.4895840    -1.7781730    -1.0771710
  H       -1.0806180    -1.8736500     0.5969550
  H       -0.7401010     1.5214000     0.8863980
  H       -0.8919120     2.0130950    -0.8209550
  H        2.8677010    -1.2131930     0.3775700
  H        1.7829480    -2.5983540     0.4871410
  H        2.0117000    -1.7770280    -1.0688530
  H        2.8946680     1.2288240     0.0607940
  H        1.8539810     2.6122500    -0.2745750
  H        1.7463830     1.7834510     1.2910380
  H       -2.4748400    -0.0372670     1.4518960
  H       -3.2625880     0.9370400     0.1753330
  H       -3.3330800    -0.8496000     0.1082720
units angstrom
no_reorient  #important for SAPT in psi4, default
symmetry c1  #important for SAPT in psi4, default
}

set PROPERTIES_ORIGIN ["COM"]
properties('MP2/aug-cc-pvtz', properties = ['dipole'])
--------------------------------------------------------------------------

    Molecular point group: c1
  Charge       = 1
  Multiplicity = 1
  Basis Set: AUG-CC-PVTZ
    Blend: AUG-CC-PVTZ
  Basis Set: (AUG-CC-PVTZ AUX)
    Blend: AUG-CC-PVTZ-JKFIT

    Orbital Energies [Eh]
    ---------------------

    Doubly Occupied:

       1A    -15.853374     2A    -11.449289     3A    -11.446219
       4A    -11.443397     5A    -11.392811     6A    -11.390328
       7A    -11.352818     8A    -11.351592     9A     -1.491360
      10A     -1.267979    11A     -1.191218    12A     -1.143106
      13A     -1.096393    14A     -1.064606    15A     -0.987857
      16A     -0.939269    17A     -0.903056    18A     -0.844955
      19A     -0.823476    20A     -0.788101    21A     -0.764148
      22A     -0.751955    23A     -0.734804    24A     -0.719784
      25A     -0.701400    26A     -0.699585    27A     -0.676026
      28A     -0.661572    29A     -0.648212    30A     -0.624475
      31A     -0.620240    32A     -0.601280

  @DF-RHF Final Energy:  -328.75259584105351

   => Energetics <=

    Nuclear Repulsion Energy =            423.9533368725874993
    One-Electron Energy =               -1272.5624991917356965
    Two-Electron Energy =                 519.8565664780946918
    Total Energy =                       -328.7525958410535623
  Basis Set: (AUG-CC-PVTZ AUX)
    Blend: AUG-CC-PVTZ-RI
    Molecular point group: c1

    Geometry (in Angstrom), charge = 1, multiplicity = 1:

       Center              X                  Y                   Z               Mass
    ------------   -----------------  -----------------  -----------------  -----------------
         N           -1.442227962727    -0.004516533230    -0.382743969459    14.003074004430
         C            0.782765037273    -0.680190533230     0.339534030541    12.000000000000
         C            0.851481037273     0.694713466770    -0.338790969459    12.000000000000
         C           -0.608636762727    -1.251719433230    -0.138634369459    12.000000000000
         C           -0.564469962727     1.211805466770    -0.141317969459    12.000000000000
         C            1.937009037273    -1.622151533230     0.020017030541    12.000000000000
         C            1.906147037273     1.637993466770     0.225033030541    12.000000000000
         C           -2.716009962727     0.013408466770     0.401917030541    12.000000000000
         H            0.741433037273    -0.515667533230     1.425428030541     1.007825032230
         H            1.032228037273     0.547212466770    -1.414035969459     1.007825032230
         H           -1.696132962727    -0.006931533230    -1.377560969459     1.007825032230
         H           -0.476876962727    -1.776373533230    -1.068595969459     1.007825032230
         H           -1.067910962727    -1.871850533230     0.605530030541     1.007825032230
         H           -0.727393962727     1.523199466770     0.894973030541     1.007825032230
         H           -0.879204962727     2.014894466770    -0.812379969459     1.007825032230
         H            2.880408037273    -1.211393533230     0.386145030541     1.007825032230
         H            1.795655037273    -2.596554533230     0.495716030541     1.007825032230
         H            2.024407037273    -1.775228533230    -1.060277969459     1.007825032230
         H            2.907375037273     1.230623466770     0.069369030541     1.007825032230
         H            1.866688037273     2.614049466770    -0.265999969459     1.007825032230
         H            1.759090037273     1.785250466770     1.299613030541     1.007825032230
         H           -2.462132962727    -0.035467533230     1.460471030541     1.007825032230
         H           -3.249880962727     0.938839466770     0.183908030541     1.007825032230
         H           -3.320372962727    -0.847800533230     0.116847030541     1.007825032230

  Basis Set: AUG-CC-PVTZ
    Blend: AUG-CC-PVTZ
  Basis Set: (AUG-CC-PVTZ AUX)
    Blend: AUG-CC-PVTZ-JKFIT
	 Reference Energy          =    -328.7525958410535054 [Eh]
	 Singles Energy            =      -0.0000000000000000 [Eh]
	 Same-Spin Energy          =      -0.3475435112960084 [Eh]
	 Opposite-Spin Energy      =      -1.2497069245496208 [Eh]
	 Correlation Energy        =      -1.5972504358456292 [Eh]
	 Total Energy              =    -330.3498462768991430 [Eh]

	 ================> DF-SCS-MP2 Energies <==================
	-----------------------------------------------------------
	 SCS Same-Spin Scale       =       0.3333333333333333 [-]
	 SCS Opposite-Spin Scale   =       1.2000000000000000 [-]
	 SCS Same-Spin Energy      =      -0.1158478370986695 [Eh]
	 SCS Opposite-Spin Energy  =      -1.4996483094595450 [Eh]
	 SCS Correlation Energy    =      -1.6154961465582145 [Eh]
	 SCS Total Energy          =    -330.3680919876117059 [Eh]
	-----------------------------------------------------------

  Dipole Moment: [D]
     X:    -4.3667      Y:     0.0238      Z:    -0.8670     Total:     4.4520

*** Psi4 exiting successfully. Buy a developer a beer!
