                               Psi4 1.4a3.dev225

  ==> Input File <==

--------------------------------------------------------------------------
#psi4
#
memory 32 gb

molecule  {
1 1
  N       -1.4549350    -0.0063160    -0.3913190
  C        0.7700580    -0.6819900     0.3309590
  C        0.8387740     0.6929140    -0.3473660
  C       -0.5772670    -1.2354140    -0.1320620
  C       -0.5771770     1.2100060    -0.1498930
  C        1.9243020    -1.6239510     0.0114420
  C        1.8934400     1.6361940     0.2164580
  C       -2.7287170     0.0116090     0.3933420
  H        0.7287260    -0.5174670     1.4168530
  H        1.0195210     0.5454130    -1.4226110
  H       -1.7088400    -0.0087310    -1.3861360
  H       -0.4895840    -1.7781730    -1.0771710
  H       -1.0806180    -1.8736500     0.5969550
  H       -0.7401010     1.5214000     0.8863980
  H       -0.8919120     2.0130950    -0.8209550
  H        2.8677010    -1.2131930     0.3775700
  H        1.7829480    -2.5983540     0.4871410
  H        2.0117000    -1.7770280    -1.0688530
  H        2.8879223     1.2283630     0.0232796
  H        1.8539810     2.6122500    -0.2745750
  H        1.7463830     1.7834510     1.2910380
  H       -2.4748400    -0.0372670     1.4518960
  H       -3.2625880     0.9370400     0.1753330
  H       -3.3330800    -0.8496000     0.1082720
units angstrom
no_reorient  #important for SAPT in psi4, default
symmetry c1  #important for SAPT in psi4, default
}

set PROPERTIES_ORIGIN ["COM"]
properties('MP2/aug-cc-pvtz', properties = ['dipole'])
--------------------------------------------------------------------------

    Molecular point group: c1
  Charge       = 1
  Multiplicity = 1
  Basis Set: AUG-CC-PVTZ
    Blend: AUG-CC-PVTZ
  Basis Set: (AUG-CC-PVTZ AUX)
    Blend: AUG-CC-PVTZ-JKFIT

    Orbital Energies [Eh]
    ---------------------

    Doubly Occupied:

       1A    -15.852033     2A    -11.448944     3A    -11.446156
       4A    -11.445494     5A    -11.390741     6A    -11.390076
       7A    -11.352910     8A    -11.352472     9A     -1.489342
      10A     -1.272079    11A     -1.193132    12A     -1.142618
      13A     -1.094880    14A     -1.065468    15A     -0.987064
      16A     -0.939304    17A     -0.903224    18A     -0.844649
      19A     -0.822110    20A     -0.786385    21A     -0.763167
      22A     -0.754859    23A     -0.735086    24A     -0.715377
      25A     -0.702180    26A     -0.697351    27A     -0.675716
      28A     -0.662482    29A     -0.647987    30A     -0.627920
      31A     -0.623382    32A     -0.602626

  @DF-RHF Final Energy:  -328.75404853603249

   => Energetics <=

    Nuclear Repulsion Energy =            424.5052551534373038
    One-Electron Energy =               -1273.6641770398821336
    Two-Electron Energy =                 520.4048733504124584
    Total Energy =                       -328.7540485360324283
  Basis Set: (AUG-CC-PVTZ AUX)
    Blend: AUG-CC-PVTZ-RI
    Molecular point group: c1

    Geometry (in Angstrom), charge = 1, multiplicity = 1:

       Center              X                  Y                   Z               Mass
    ------------   -----------------  -----------------  -----------------  -----------------
         N           -1.446802842325    -0.006416099254    -0.384005364580    14.003074004430
         C            0.778190157675    -0.682090099254     0.338272635420    12.000000000000
         C            0.846906157675     0.692813900746    -0.340052364580    12.000000000000
         C           -0.569134842325    -1.235514099254    -0.124748364580    12.000000000000
         C           -0.569044842325     1.209905900746    -0.142579364580    12.000000000000
         C            1.932434157675    -1.624051099254     0.018755635420    12.000000000000
         C            1.901572157675     1.636093900746     0.223771635420    12.000000000000
         C           -2.720584842325     0.011508900746     0.400655635420    12.000000000000
         H            0.736858157675    -0.517567099254     1.424166635420     1.007825032230
         H            1.027653157675     0.545312900746    -1.415297364580     1.007825032230
         H           -1.700707842325    -0.008831099254    -1.378822364580     1.007825032230
         H           -0.481451842325    -1.778273099254    -1.069857364580     1.007825032230
         H           -1.072485842325    -1.873750099254     0.604268635420     1.007825032230
         H           -0.731968842325     1.521299900746     0.893711635420     1.007825032230
         H           -0.883779842325     2.012994900746    -0.813641364580     1.007825032230
         H            2.875833157675    -1.213293099254     0.384883635420     1.007825032230
         H            1.791080157675    -2.598454099254     0.494454635420     1.007825032230
         H            2.019832157675    -1.777128099254    -1.061539364580     1.007825032230
         H            2.896054457675     1.228262900746     0.030593235420     1.007825032230
         H            1.862113157675     2.612149900746    -0.267261364580     1.007825032230
         H            1.754515157675     1.783350900746     1.298351635420     1.007825032230
         H           -2.466707842325    -0.037367099254     1.459209635420     1.007825032230
         H           -3.254455842325     0.936939900746     0.182646635420     1.007825032230
         H           -3.324947842325    -0.849700099254     0.115585635420     1.007825032230

  Basis Set: AUG-CC-PVTZ
    Blend: AUG-CC-PVTZ
  Basis Set: (AUG-CC-PVTZ AUX)
    Blend: AUG-CC-PVTZ-JKFIT
	 Reference Energy          =    -328.7540485360324851 [Eh]
	 Singles Energy            =      -0.0000000000000000 [Eh]
	 Same-Spin Energy          =      -0.3478184379615078 [Eh]
	 Opposite-Spin Energy      =      -1.2498980532648383 [Eh]
	 Correlation Energy        =      -1.5977164912263460 [Eh]
	 Total Energy              =    -330.3517650272588071 [Eh]

	 ================> DF-SCS-MP2 Energies <==================
	-----------------------------------------------------------
	 SCS Same-Spin Scale       =       0.3333333333333333 [-]
	 SCS Opposite-Spin Scale   =       1.2000000000000000 [-]
	 SCS Same-Spin Energy      =      -0.1159394793205026 [Eh]
	 SCS Opposite-Spin Energy  =      -1.4998776639178060 [Eh]
	 SCS Correlation Energy    =      -1.6158171432383086 [Eh]
	 SCS Total Energy          =    -330.3698656792707880 [Eh]
	-----------------------------------------------------------

  Dipole Moment: [D]
     X:    -4.3550      Y:     0.0060      Z:    -0.8765     Total:     4.4424

*** Psi4 exiting successfully. Buy a developer a beer!
