                               Psi4 1.4a3.dev225

  ==> Input File <==

--------------------------------------------------------------------------
#psi4
#
memory 32 gb

molecule  {
1 1
  N       -1.4549350    -0.0063160    -0.3913190
  C        0.7700580    -0.6819900     0.3309590
  C        0.8387740     0.6929140    -0.3473660
  C       -0.5772670    -1.2354140    -0.1320620
  C       -0.6349519     1.1299464    -0.1657839
  C        1.9243020    -1.6239510     0.0114420
  C        1.8934400     1.6361940     0.2164580
  C       -2.7287170     0.0116090     0.3933420
  H        0.7287260    -0.5174670     1.4168530
  H        1.0195210     0.5454130    -1.4226110
  H       -1.7088400    -0.0087310    -1.3861360
  H       -0.4895840    -1.7781730    -1.0771710
  H       -1.0806180    -1.8736500     0.5969550
  H       -0.7401010     1.5214000     0.8863980
  H       -0.8919120     2.0130950    -0.8209550
  H        2.8677010    -1.2131930     0.3775700
  H        1.7829480    -2.5983540     0.4871410
  H        2.0117000    -1.7770280    -1.0688530
  H        2.8946680     1.2288240     0.0607940
  H        1.8539810     2.6122500    -0.2745750
  H        1.7463830     1.7834510     1.2910380
  H       -2.4748400    -0.0372670     1.4518960
  H       -3.2625880     0.9370400     0.1753330
  H       -3.3330800    -0.8496000     0.1082720
units angstrom
no_reorient  #important for SAPT in psi4, default
symmetry c1  #important for SAPT in psi4, default
}

set PROPERTIES_ORIGIN ["COM"]
properties('MP2/aug-cc-pvtz', properties = ['dipole'])
--------------------------------------------------------------------------

    Molecular point group: c1
  Charge       = 1
  Multiplicity = 1
  Basis Set: AUG-CC-PVTZ
    Blend: AUG-CC-PVTZ
  Basis Set: (AUG-CC-PVTZ AUX)
    Blend: AUG-CC-PVTZ-JKFIT

    Orbital Energies [Eh]
    ---------------------

    Doubly Occupied:

       1A    -15.858237     2A    -11.452541     3A    -11.448915
       4A    -11.442215     5A    -11.390885     6A    -11.389467
       7A    -11.352456     8A    -11.352037     9A     -1.513855
      10A     -1.270980    11A     -1.191643    12A     -1.149730
      13A     -1.098018    14A     -1.067184    15A     -0.985306
      16A     -0.943170    17A     -0.908769    18A     -0.856343
      19A     -0.828333    20A     -0.782182    21A     -0.759942
      22A     -0.756485    23A     -0.737355    24A     -0.718439
      25A     -0.702926    26A     -0.686395    27A     -0.675132
      28A     -0.665698    29A     -0.644651    30A     -0.627985
      31A     -0.617678    32A     -0.597389

  @DF-RHF Final Energy:  -328.74530287953206

   => Energetics <=

    Nuclear Repulsion Energy =            425.6662232102684129
    One-Electron Energy =               -1275.8783651402341093
    Two-Electron Energy =                 521.4668390504335775
    Total Energy =                       -328.7453028795321188
  Basis Set: (AUG-CC-PVTZ AUX)
    Blend: AUG-CC-PVTZ-RI
    Molecular point group: c1

    Geometry (in Angstrom), charge = 1, multiplicity = 1:

       Center              X                  Y                   Z               Mass
    ------------   -----------------  -----------------  -----------------  -----------------
         N           -1.440787678094     0.001997684243    -0.382665794265    14.003074004430
         C            0.784205321906    -0.673676315757     0.339612205735    12.000000000000
         C            0.852921321906     0.701227684243    -0.338712794265    12.000000000000
         C           -0.563119678094    -1.227100315757    -0.123408794265    12.000000000000
         C           -0.620804578094     1.138260084243    -0.157130694265    12.000000000000
         C            1.938449321906    -1.615637315757     0.020095205735    12.000000000000
         C            1.907587321906     1.644507684243     0.225111205735    12.000000000000
         C           -2.714569678094     0.019922684243     0.401995205735    12.000000000000
         H            0.742873321906    -0.509153315757     1.425506205735     1.007825032230
         H            1.033668321906     0.553726684243    -1.413957794265     1.007825032230
         H           -1.694692678094    -0.000417315757    -1.377482794265     1.007825032230
         H           -0.475436678094    -1.769859315757    -1.068517794265     1.007825032230
         H           -1.066470678094    -1.865336315757     0.605608205735     1.007825032230
         H           -0.725953678094     1.529713684243     0.895051205735     1.007825032230
         H           -0.877764678094     2.021408684243    -0.812301794265     1.007825032230
         H            2.881848321906    -1.204879315757     0.386223205735     1.007825032230
         H            1.797095321906    -2.590040315757     0.495794205735     1.007825032230
         H            2.025847321906    -1.768714315757    -1.060199794265     1.007825032230
         H            2.908815321906     1.237137684243     0.069447205735     1.007825032230
         H            1.868128321906     2.620563684243    -0.265921794265     1.007825032230
         H            1.760530321906     1.791764684243     1.299691205735     1.007825032230
         H           -2.460692678094    -0.028953315757     1.460549205735     1.007825032230
         H           -3.248440678094     0.945353684243     0.183986205735     1.007825032230
         H           -3.318932678094    -0.841286315757     0.116925205735     1.007825032230

  Basis Set: AUG-CC-PVTZ
    Blend: AUG-CC-PVTZ
  Basis Set: (AUG-CC-PVTZ AUX)
    Blend: AUG-CC-PVTZ-JKFIT
	 Reference Energy          =    -328.7453028795320620 [Eh]
	 Singles Energy            =      -0.0000000000000000 [Eh]
	 Same-Spin Energy          =      -0.3485197601591806 [Eh]
	 Opposite-Spin Energy      =      -1.2501163702105615 [Eh]
	 Correlation Energy        =      -1.5986361303697421 [Eh]
	 Total Energy              =    -330.3439390099018169 [Eh]

	 ================> DF-SCS-MP2 Energies <==================
	-----------------------------------------------------------
	 SCS Same-Spin Scale       =       0.3333333333333333 [-]
	 SCS Opposite-Spin Scale   =       1.2000000000000000 [-]
	 SCS Same-Spin Energy      =      -0.1161732533863935 [Eh]
	 SCS Opposite-Spin Energy  =      -1.5001396442526738 [Eh]
	 SCS Correlation Energy    =      -1.6163128976390673 [Eh]
	 SCS Total Energy          =    -330.3616157771711528 [Eh]
	-----------------------------------------------------------

  Dipole Moment: [D]
     X:    -4.4448      Y:    -0.0945      Z:    -0.8704     Total:     4.5302

*** Psi4 exiting successfully. Buy a developer a beer!
