                               Psi4 1.4a3.dev225

  ==> Input File <==

--------------------------------------------------------------------------
#psi4
#
memory 32 gb

molecule  {
1 1
  N       -1.4549350    -0.0063160    -0.3913190
  C        0.7700580    -0.6819900     0.3309590
  C        0.8387740     0.6929140    -0.3473660
  C       -0.5772670    -1.2354140    -0.1320620
  C       -0.5771770     1.2100060    -0.1498930
  C        1.9243020    -1.6239510     0.0114420
  C        1.8934400     1.6361940     0.2164580
  C       -2.7287170     0.0116090     0.3933420
  H        0.7287260    -0.5174670     1.4168530
  H        1.0195210     0.5454130    -1.4226110
  H       -1.7088400    -0.0087310    -1.3861360
  H       -0.4895840    -1.7781730    -1.0771710
  H       -1.0806180    -1.8736500     0.5969550
  H       -0.7401010     1.5214000     0.8863980
  H       -0.8919120     2.0130950    -0.8209550
  H        2.8677010    -1.2131930     0.3775700
  H        1.7829480    -2.5983540     0.4871410
  H        2.0117000    -1.7770280    -1.0688530
  H        2.8946680     1.2288240     0.0607940
  H        1.8539810     2.6122500    -0.2745750
  H        1.7490701     1.7807603     1.2714028
  H       -2.4748400    -0.0372670     1.4518960
  H       -3.2625880     0.9370400     0.1753330
  H       -3.3330800    -0.8496000     0.1082720
units angstrom
no_reorient  #important for SAPT in psi4, default
symmetry c1  #important for SAPT in psi4, default
}

set PROPERTIES_ORIGIN ["COM"]
properties('MP2/aug-cc-pvtz', properties = ['dipole'])
--------------------------------------------------------------------------

    Molecular point group: c1
  Charge       = 1
  Multiplicity = 1
  Basis Set: AUG-CC-PVTZ
    Blend: AUG-CC-PVTZ
  Basis Set: (AUG-CC-PVTZ AUX)
    Blend: AUG-CC-PVTZ-JKFIT

    Orbital Energies [Eh]
    ---------------------

    Doubly Occupied:

       1A    -15.852135     2A    -11.449006     3A    -11.446189
       4A    -11.445665     5A    -11.390767     6A    -11.390107
       7A    -11.352474     8A    -11.350386     9A     -1.489421
      10A     -1.272144    11A     -1.193268    12A     -1.142788
      13A     -1.095480    14A     -1.065813    15A     -0.987702
      16A     -0.939896    17A     -0.903377    18A     -0.844804
      19A     -0.822248    20A     -0.786396    21A     -0.763180
      22A     -0.754888    23A     -0.735248    24A     -0.715831
      25A     -0.702669    26A     -0.697333    27A     -0.676243
      28A     -0.662882    29A     -0.648841    30A     -0.628328
      31A     -0.623268    32A     -0.602972

  @DF-RHF Final Energy:  -328.75422696735512

   => Energetics <=

    Nuclear Repulsion Energy =            424.5724095787962256
    One-Electron Energy =               -1273.7897737554053492
    Two-Electron Energy =                 520.4631372092540005
    Total Energy =                       -328.7542269673551800
  Basis Set: (AUG-CC-PVTZ AUX)
    Blend: AUG-CC-PVTZ-RI
    Molecular point group: c1

    Geometry (in Angstrom), charge = 1, multiplicity = 1:

       Center              X                  Y                   Z               Mass
    ------------   -----------------  -----------------  -----------------  -----------------
         N           -1.446886139931    -0.006396409589    -0.384163249253    14.003074004430
         C            0.778106860069    -0.682070409589     0.338114750747    12.000000000000
         C            0.846822860069     0.692833590411    -0.340210249253    12.000000000000
         C           -0.569218139931    -1.235494409589    -0.124906249253    12.000000000000
         C           -0.569128139931     1.209925590411    -0.142737249253    12.000000000000
         C            1.932350860069    -1.624031409589     0.018597750747    12.000000000000
         C            1.901488860069     1.636113590411     0.223613750747    12.000000000000
         C           -2.720668139931     0.011528590411     0.400497750747    12.000000000000
         H            0.736774860069    -0.517547409589     1.424008750747     1.007825032230
         H            1.027569860069     0.545332590411    -1.415455249253     1.007825032230
         H           -1.700791139931    -0.008811409589    -1.378980249253     1.007825032230
         H           -0.481535139931    -1.778253409589    -1.070015249253     1.007825032230
         H           -1.072569139931    -1.873730409589     0.604110750747     1.007825032230
         H           -0.732052139931     1.521319590411     0.893553750747     1.007825032230
         H           -0.883863139931     2.013014590411    -0.813799249253     1.007825032230
         H            2.875749860069    -1.213273409589     0.384725750747     1.007825032230
         H            1.790996860069    -2.598434409589     0.494296750747     1.007825032230
         H            2.019748860069    -1.777108409589    -1.061697249253     1.007825032230
         H            2.902716860069     1.228743590411     0.067949750747     1.007825032230
         H            1.862029860069     2.612169590411    -0.267419249253     1.007825032230
         H            1.757118960069     1.780679890411     1.278558550747     1.007825032230
         H           -2.466791139931    -0.037347409589     1.459051750747     1.007825032230
         H           -3.254539139931     0.936959590411     0.182488750747     1.007825032230
         H           -3.325031139931    -0.849680409589     0.115427750747     1.007825032230

  Basis Set: AUG-CC-PVTZ
    Blend: AUG-CC-PVTZ
  Basis Set: (AUG-CC-PVTZ AUX)
    Blend: AUG-CC-PVTZ-JKFIT
	 Reference Energy          =    -328.7542269673551232 [Eh]
	 Singles Energy            =      -0.0000000000000000 [Eh]
	 Same-Spin Energy          =      -0.3478014182626871 [Eh]
	 Opposite-Spin Energy      =      -1.2497453147032154 [Eh]
	 Correlation Energy        =      -1.5975467329659025 [Eh]
	 Total Energy              =    -330.3517737003210186 [Eh]

	 ================> DF-SCS-MP2 Energies <==================
	-----------------------------------------------------------
	 SCS Same-Spin Scale       =       0.3333333333333333 [-]
	 SCS Opposite-Spin Scale   =       1.2000000000000000 [-]
	 SCS Same-Spin Energy      =      -0.1159338060875623 [Eh]
	 SCS Opposite-Spin Energy  =      -1.4996943776438585 [Eh]
	 SCS Correlation Energy    =      -1.6156281837314208 [Eh]
	 SCS Total Energy          =    -330.3698551510865400 [Eh]
	-----------------------------------------------------------

  Dipole Moment: [D]
     X:    -4.3572      Y:     0.0028      Z:    -0.8588     Total:     4.4411

*** Psi4 exiting successfully. Buy a developer a beer!
