                               Psi4 1.4a3.dev225

  ==> Input File <==

--------------------------------------------------------------------------
#psi4
#
memory 32 gb

molecule  {
1 1
  N       -1.4549350    -0.0063160    -0.3913190
  C        0.7700580    -0.6819900     0.3309590
  C        0.8387740     0.6929140    -0.3473660
  C       -0.5772670    -1.2354140    -0.1320620
  C       -0.5771770     1.2100060    -0.1498930
  C        1.9243020    -1.6239510     0.0114420
  C        1.8934400     1.6361940     0.2164580
  C       -2.7287170     0.0116090     0.3933420
  H        0.7287260    -0.5174670     1.4168530
  H        1.0195210     0.5454130    -1.4226110
  H       -1.7088400    -0.0087310    -1.3861360
  H       -0.4895840    -1.7781730    -1.0771710
  H       -1.0806180    -1.8736500     0.5969550
  H       -0.7401010     1.5214000     0.8863980
  H       -0.8919120     2.0130950    -0.8209550
  H        2.8677010    -1.2131930     0.3775700
  H        1.7829480    -2.5983540     0.4871410
  H        2.0117000    -1.7770280    -1.0688530
  H        2.8946680     1.2288240     0.0607940
  H        1.8539810     2.6122500    -0.2745750
  H        1.7436959     1.7861417     1.3106732
  H       -2.4748400    -0.0372670     1.4518960
  H       -3.2625880     0.9370400     0.1753330
  H       -3.3330800    -0.8496000     0.1082720
units angstrom
no_reorient  #important for SAPT in psi4, default
symmetry c1  #important for SAPT in psi4, default
}

set PROPERTIES_ORIGIN ["COM"]
properties('MP2/aug-cc-pvtz', properties = ['dipole'])
--------------------------------------------------------------------------

    Molecular point group: c1
  Charge       = 1
  Multiplicity = 1
  Basis Set: AUG-CC-PVTZ
    Blend: AUG-CC-PVTZ
  Basis Set: (AUG-CC-PVTZ AUX)
    Blend: AUG-CC-PVTZ-JKFIT

    Orbital Energies [Eh]
    ---------------------

    Doubly Occupied:

       1A    -15.852152     2A    -11.449009     3A    -11.446206
       4A    -11.445672     5A    -11.391083     6A    -11.390199
       7A    -11.355187     8A    -11.352510     9A     -1.489444
      10A     -1.272029    11A     -1.193057    12A     -1.142485
      13A     -1.094183    14A     -1.065165    15A     -0.986757
      16A     -0.939237    17A     -0.903266    18A     -0.844717
      19A     -0.821817    20A     -0.786286    21A     -0.763227
      22A     -0.754905    23A     -0.735373    24A     -0.715091
      25A     -0.699681    26A     -0.697078    27A     -0.676431
      28A     -0.663074    29A     -0.645895    30A     -0.628437
      31A     -0.622598    32A     -0.602961

  @DF-RHF Final Energy:  -328.75370515826097

   => Energetics <=

    Nuclear Repulsion Energy =            424.4042648930615087
    One-Electron Energy =               -1273.4655130947107864
    Two-Electron Energy =                 520.3075430433882502
    Total Energy =                       -328.7537051582610275
  Basis Set: (AUG-CC-PVTZ AUX)
    Blend: AUG-CC-PVTZ-RI
    Molecular point group: c1

    Geometry (in Angstrom), charge = 1, multiplicity = 1:

       Center              X                  Y                   Z               Mass
    ------------   -----------------  -----------------  -----------------  -----------------
         N           -1.446838682337    -0.006443930763    -0.384510031786    14.003074004430
         C            0.778154317663    -0.682117930763     0.337767968214    12.000000000000
         C            0.846870317663     0.692786069237    -0.340557031786    12.000000000000
         C           -0.569170682337    -1.235541930763    -0.125253031786    12.000000000000
         C           -0.569080682337     1.209878069237    -0.143084031786    12.000000000000
         C            1.932398317663    -1.624078930763     0.018250968214    12.000000000000
         C            1.901536317663     1.636066069237     0.223266968214    12.000000000000
         C           -2.720620682337     0.011481069237     0.400150968214    12.000000000000
         H            0.736822317663    -0.517594930763     1.423661968214     1.007825032230
         H            1.027617317663     0.545285069237    -1.415802031786     1.007825032230
         H           -1.700743682337    -0.008858930763    -1.379327031786     1.007825032230
         H           -0.481487682337    -1.778300930763    -1.070362031786     1.007825032230
         H           -1.072521682337    -1.873777930763     0.603763968214     1.007825032230
         H           -0.732004682337     1.521272069237     0.893206968214     1.007825032230
         H           -0.883815682337     2.012967069237    -0.814146031786     1.007825032230
         H            2.875797317663    -1.213320930763     0.384378968214     1.007825032230
         H            1.791044317663    -2.598481930763     0.493949968214     1.007825032230
         H            2.019796317663    -1.777155930763    -1.062044031786     1.007825032230
         H            2.902764317663     1.228696069237     0.067602968214     1.007825032230
         H            1.862077317663     2.612122069237    -0.267766031786     1.007825032230
         H            1.751792217663     1.786013769237     1.317482168214     1.007825032230
         H           -2.466743682337    -0.037394930763     1.458704968214     1.007825032230
         H           -3.254491682337     0.936912069237     0.182141968214     1.007825032230
         H           -3.324983682337    -0.849727930763     0.115080968214     1.007825032230

  Basis Set: AUG-CC-PVTZ
    Blend: AUG-CC-PVTZ
  Basis Set: (AUG-CC-PVTZ AUX)
    Blend: AUG-CC-PVTZ-JKFIT
	 Reference Energy          =    -328.7537051582609706 [Eh]
	 Singles Energy            =      -0.0000000000000000 [Eh]
	 Same-Spin Energy          =      -0.3478065212943017 [Eh]
	 Opposite-Spin Energy      =      -1.2499921361337580 [Eh]
	 Correlation Energy        =      -1.5977986574280596 [Eh]
	 Total Energy              =    -330.3515038156890569 [Eh]

	 ================> DF-SCS-MP2 Energies <==================
	-----------------------------------------------------------
	 SCS Same-Spin Scale       =       0.3333333333333333 [-]
	 SCS Opposite-Spin Scale   =       1.2000000000000000 [-]
	 SCS Same-Spin Energy      =      -0.1159355070981005 [Eh]
	 SCS Opposite-Spin Energy  =      -1.4999905633605095 [Eh]
	 SCS Correlation Energy    =      -1.6159260704586100 [Eh]
	 SCS Total Energy          =    -330.3696312287195838 [Eh]
	-----------------------------------------------------------

  Dipole Moment: [D]
     X:    -4.3553      Y:    -0.0007      Z:    -0.8748     Total:     4.4423

*** Psi4 exiting successfully. Buy a developer a beer!
