                               Psi4 1.4a3.dev225

  ==> Input File <==

--------------------------------------------------------------------------
#psi4
#
memory 32 gb

molecule  {
1 1
  N       -1.4549350    -0.0063160    -0.3913190
  C        0.7700580    -0.6819900     0.3309590
  C        0.8410128     0.7377088    -0.3694660
  C       -0.5772670    -1.2354140    -0.1320620
  C       -0.5771770     1.2100060    -0.1498930
  C        1.9243020    -1.6239510     0.0114420
  C        1.8934400     1.6361940     0.2164580
  C       -2.7287170     0.0116090     0.3933420
  H        0.7287260    -0.5174670     1.4168530
  H        1.0195210     0.5454130    -1.4226110
  H       -1.7088400    -0.0087310    -1.3861360
  H       -0.4895840    -1.7781730    -1.0771710
  H       -1.0806180    -1.8736500     0.5969550
  H       -0.7401010     1.5214000     0.8863980
  H       -0.8919120     2.0130950    -0.8209550
  H        2.8677010    -1.2131930     0.3775700
  H        1.7829480    -2.5983540     0.4871410
  H        2.0117000    -1.7770280    -1.0688530
  H        2.8946680     1.2288240     0.0607940
  H        1.8539810     2.6122500    -0.2745750
  H        1.7463830     1.7834510     1.2910380
  H       -2.4748400    -0.0372670     1.4518960
  H       -3.2625880     0.9370400     0.1753330
  H       -3.3330800    -0.8496000     0.1082720
units angstrom
no_reorient  #important for SAPT in psi4, default
symmetry c1  #important for SAPT in psi4, default
}

set PROPERTIES_ORIGIN ["COM"]
properties('MP2/aug-cc-pvtz', properties = ['dipole'])
--------------------------------------------------------------------------

    Molecular point group: c1
  Charge       = 1
  Multiplicity = 1
  Basis Set: AUG-CC-PVTZ
    Blend: AUG-CC-PVTZ
  Basis Set: (AUG-CC-PVTZ AUX)
    Blend: AUG-CC-PVTZ-JKFIT

    Orbital Energies [Eh]
    ---------------------

    Doubly Occupied:

       1A    -15.852696     2A    -11.449324     3A    -11.445901
       4A    -11.445738     5A    -11.391617     6A    -11.390636
       7A    -11.351980     8A    -11.351962     9A     -1.489198
      10A     -1.268137    11A     -1.195152    12A     -1.142731
      13A     -1.096669    14A     -1.065448    15A     -0.982449
      16A     -0.941039    17A     -0.903314    18A     -0.844719
      19A     -0.823329    20A     -0.786265    21A     -0.761925
      22A     -0.753865    23A     -0.735624    24A     -0.715640
      25A     -0.702684    26A     -0.696778    27A     -0.676205
      28A     -0.665449    29A     -0.649441    30A     -0.631531
      31A     -0.627270    32A     -0.588999

  @DF-RHF Final Energy:  -328.75211164079178

   => Energetics <=

    Nuclear Repulsion Energy =            424.0129907514751721
    One-Electron Energy =               -1272.6827722050572902
    Two-Electron Energy =                 519.9176698127903364
    Total Energy =                       -328.7521116407917816
  Basis Set: (AUG-CC-PVTZ AUX)
    Blend: AUG-CC-PVTZ-RI
    Molecular point group: c1

    Geometry (in Angstrom), charge = 1, multiplicity = 1:

       Center              X                  Y                   Z               Mass
    ------------   -----------------  -----------------  -----------------  -----------------
         N           -1.447097809418    -0.011130112583    -0.382012939394    14.003074004430
         C            0.777895190582    -0.686804112583     0.340265060606    12.000000000000
         C            0.848849990582     0.732894687417    -0.360159939394    12.000000000000
         C           -0.569429809418    -1.240228112583    -0.122755939394    12.000000000000
         C           -0.569339809418     1.205191887417    -0.140586939394    12.000000000000
         C            1.932139190582    -1.628765112583     0.020748060606    12.000000000000
         C            1.901277190582     1.631379887417     0.225764060606    12.000000000000
         C           -2.720879809418     0.006794887417     0.402648060606    12.000000000000
         H            0.736563190582    -0.522281112583     1.426159060606     1.007825032230
         H            1.027358190582     0.540598887417    -1.413304939394     1.007825032230
         H           -1.701002809418    -0.013545112583    -1.376829939394     1.007825032230
         H           -0.481746809418    -1.782987112583    -1.067864939394     1.007825032230
         H           -1.072780809418    -1.878464112583     0.606261060606     1.007825032230
         H           -0.732263809418     1.516585887417     0.895704060606     1.007825032230
         H           -0.884074809418     2.008280887417    -0.811648939394     1.007825032230
         H            2.875538190582    -1.218007112583     0.386876060606     1.007825032230
         H            1.790785190582    -2.603168112583     0.496447060606     1.007825032230
         H            2.019537190582    -1.781842112583    -1.059546939394     1.007825032230
         H            2.902505190582     1.224009887417     0.070100060606     1.007825032230
         H            1.861818190582     2.607435887417    -0.265268939394     1.007825032230
         H            1.754220190582     1.778636887417     1.300344060606     1.007825032230
         H           -2.467002809418    -0.042081112583     1.461202060606     1.007825032230
         H           -3.254750809418     0.932225887417     0.184639060606     1.007825032230
         H           -3.325242809418    -0.854414112583     0.117578060606     1.007825032230

  Basis Set: AUG-CC-PVTZ
    Blend: AUG-CC-PVTZ
  Basis Set: (AUG-CC-PVTZ AUX)
    Blend: AUG-CC-PVTZ-JKFIT
	 Reference Energy          =    -328.7521116407917816 [Eh]
	 Singles Energy            =      -0.0000000000000000 [Eh]
	 Same-Spin Energy          =      -0.3478188222561276 [Eh]
	 Opposite-Spin Energy      =      -1.2499696037558747 [Eh]
	 Correlation Energy        =      -1.5977884260120023 [Eh]
	 Total Energy              =    -330.3499000668037979 [Eh]

	 ================> DF-SCS-MP2 Energies <==================
	-----------------------------------------------------------
	 SCS Same-Spin Scale       =       0.3333333333333333 [-]
	 SCS Opposite-Spin Scale   =       1.2000000000000000 [-]
	 SCS Same-Spin Energy      =      -0.1159396074187092 [Eh]
	 SCS Opposite-Spin Energy  =      -1.4999635245070497 [Eh]
	 SCS Correlation Energy    =      -1.6159031319257589 [Eh]
	 SCS Total Energy          =    -330.3680147727175154 [Eh]
	-----------------------------------------------------------

  Dipole Moment: [D]
     X:    -4.3540      Y:    -0.0135      Z:    -0.8590     Total:     4.4380

*** Psi4 exiting successfully. Buy a developer a beer!
