                               Psi4 1.4a3.dev225

  ==> Input File <==

--------------------------------------------------------------------------
#psi4
#
memory 32 gb

molecule  {
1 1
  N       -1.4549350    -0.0063160    -0.3913190
  C        0.7700580    -0.6819900     0.3309590
  C        0.8934758     0.5838724    -0.2447210
  C       -0.5772670    -1.2354140    -0.1320620
  C       -0.5771770     1.2100060    -0.1498930
  C        1.9243020    -1.6239510     0.0114420
  C        1.8934400     1.6361940     0.2164580
  C       -2.7287170     0.0116090     0.3933420
  H        0.7287260    -0.5174670     1.4168530
  H        1.0195210     0.5454130    -1.4226110
  H       -1.7088400    -0.0087310    -1.3861360
  H       -0.4895840    -1.7781730    -1.0771710
  H       -1.0806180    -1.8736500     0.5969550
  H       -0.7401010     1.5214000     0.8863980
  H       -0.8919120     2.0130950    -0.8209550
  H        2.8677010    -1.2131930     0.3775700
  H        1.7829480    -2.5983540     0.4871410
  H        2.0117000    -1.7770280    -1.0688530
  H        2.8946680     1.2288240     0.0607940
  H        1.8539810     2.6122500    -0.2745750
  H        1.7463830     1.7834510     1.2910380
  H       -2.4748400    -0.0372670     1.4518960
  H       -3.2625880     0.9370400     0.1753330
  H       -3.3330800    -0.8496000     0.1082720
units angstrom
no_reorient  #important for SAPT in psi4, default
symmetry c1  #important for SAPT in psi4, default
}

set PROPERTIES_ORIGIN ["COM"]
properties('MP2/aug-cc-pvtz', properties = ['dipole'])
--------------------------------------------------------------------------

    Molecular point group: c1
  Charge       = 1
  Multiplicity = 1
  Basis Set: AUG-CC-PVTZ
    Blend: AUG-CC-PVTZ
  Basis Set: (AUG-CC-PVTZ AUX)
    Blend: AUG-CC-PVTZ-JKFIT

    Orbital Energies [Eh]
    ---------------------

    Doubly Occupied:

       1A    -15.851448     2A    -11.449022     3A    -11.448359
       4A    -11.445786     5A    -11.398019     6A    -11.385774
       7A    -11.354784     8A    -11.354156     9A     -1.488618
      10A     -1.289079    11A     -1.185672    12A     -1.144957
      13A     -1.095321    14A     -1.066798    15A     -1.004890
      16A     -0.929015    17A     -0.902259    18A     -0.845445
      19A     -0.817224    20A     -0.783795    21A     -0.767336
      22A     -0.761277    23A     -0.737264    24A     -0.714613
      25A     -0.703841    26A     -0.696259    27A     -0.681801
      28A     -0.668349    29A     -0.647072    30A     -0.637267
      31A     -0.608488    32A     -0.590218

  @DF-RHF Final Energy:  -328.72711903415262

   => Energetics <=

    Nuclear Repulsion Energy =            425.5073752570776264
    One-Electron Energy =               -1275.5605790175845868
    Two-Electron Energy =                 521.3260847263542246
    Total Energy =                       -328.7271190341526790
  Basis Set: (AUG-CC-PVTZ AUX)
    Blend: AUG-CC-PVTZ-RI
    Molecular point group: c1

    Geometry (in Angstrom), charge = 1, multiplicity = 1:

       Center              X                  Y                   Z               Mass
    ------------   -----------------  -----------------  -----------------  -----------------
         N           -1.452614023543     0.005044992208    -0.395129233373    14.003074004430
         C            0.772378976457    -0.670629007792     0.327148766627    12.000000000000
         C            0.895796776457     0.595233392208    -0.248531233373    12.000000000000
         C           -0.574946023543    -1.224053007792    -0.135872233373    12.000000000000
         C           -0.574856023543     1.221366992208    -0.153703233373    12.000000000000
         C            1.926622976457    -1.612590007792     0.007631766627    12.000000000000
         C            1.895760976457     1.647554992208     0.212647766627    12.000000000000
         C           -2.726396023543     0.022969992208     0.389531766627    12.000000000000
         H            0.731046976457    -0.506106007792     1.413042766627     1.007825032230
         H            1.021841976457     0.556773992208    -1.426421233373     1.007825032230
         H           -1.706519023543     0.002629992208    -1.389946233373     1.007825032230
         H           -0.487263023543    -1.766812007792    -1.080981233373     1.007825032230
         H           -1.078297023543    -1.862289007792     0.593144766627     1.007825032230
         H           -0.737780023543     1.532760992208     0.882587766627     1.007825032230
         H           -0.889591023543     2.024455992208    -0.824765233373     1.007825032230
         H            2.870021976457    -1.201832007792     0.373759766627     1.007825032230
         H            1.785268976457    -2.586993007792     0.483330766627     1.007825032230
         H            2.014020976457    -1.765667007792    -1.072663233373     1.007825032230
         H            2.896988976457     1.240184992208     0.056983766627     1.007825032230
         H            1.856301976457     2.623610992208    -0.278385233373     1.007825032230
         H            1.748703976457     1.794811992208     1.287227766627     1.007825032230
         H           -2.472519023543    -0.025906007792     1.448085766627     1.007825032230
         H           -3.260267023543     0.948400992208     0.171522766627     1.007825032230
         H           -3.330759023543    -0.838239007792     0.104461766627     1.007825032230

  Basis Set: AUG-CC-PVTZ
    Blend: AUG-CC-PVTZ
  Basis Set: (AUG-CC-PVTZ AUX)
    Blend: AUG-CC-PVTZ-JKFIT
	 Reference Energy          =    -328.7271190341526221 [Eh]
	 Singles Energy            =      -0.0000000000000000 [Eh]
	 Same-Spin Energy          =      -0.3492516121226804 [Eh]
	 Opposite-Spin Energy      =      -1.2523102276296529 [Eh]
	 Correlation Energy        =      -1.6015618397523332 [Eh]
	 Total Energy              =    -330.3286808739049434 [Eh]

	 ================> DF-SCS-MP2 Energies <==================
	-----------------------------------------------------------
	 SCS Same-Spin Scale       =       0.3333333333333333 [-]
	 SCS Opposite-Spin Scale   =       1.2000000000000000 [-]
	 SCS Same-Spin Energy      =      -0.1164172040408935 [Eh]
	 SCS Opposite-Spin Energy  =      -1.5027722731555835 [Eh]
	 SCS Correlation Energy    =      -1.6191894771964770 [Eh]
	 SCS Total Energy          =    -330.3463085113490934 [Eh]
	-----------------------------------------------------------

  Dipole Moment: [D]
     X:    -4.3654      Y:     0.0183      Z:    -0.8633     Total:     4.4500

*** Psi4 exiting successfully. Buy a developer a beer!
