                               Psi4 1.4a3.dev225

  ==> Input File <==

--------------------------------------------------------------------------
#psi4
#
memory 32 gb

molecule  {
1 1
  N       -1.4549350    -0.0063160    -0.3913190
  C        0.7700580    -0.6819900     0.3309590
  C        0.8387740     0.6929140    -0.3473660
  C       -0.5772670    -1.2354140    -0.1320620
  C       -0.5771770     1.2100060    -0.1498930
  C        1.9243020    -1.6239510     0.0114420
  C        1.9149639     1.6396158     0.1679650
  C       -2.7287170     0.0116090     0.3933420
  H        0.7287260    -0.5174670     1.4168530
  H        1.0195210     0.5454130    -1.4226110
  H       -1.7088400    -0.0087310    -1.3861360
  H       -0.4895840    -1.7781730    -1.0771710
  H       -1.0806180    -1.8736500     0.5969550
  H       -0.7401010     1.5214000     0.8863980
  H       -0.8919120     2.0130950    -0.8209550
  H        2.8677010    -1.2131930     0.3775700
  H        1.7829480    -2.5983540     0.4871410
  H        2.0117000    -1.7770280    -1.0688530
  H        2.8946680     1.2288240     0.0607940
  H        1.8539810     2.6122500    -0.2745750
  H        1.7463830     1.7834510     1.2910380
  H       -2.4748400    -0.0372670     1.4518960
  H       -3.2625880     0.9370400     0.1753330
  H       -3.3330800    -0.8496000     0.1082720
units angstrom
no_reorient  #important for SAPT in psi4, default
symmetry c1  #important for SAPT in psi4, default
}

set PROPERTIES_ORIGIN ["COM"]
properties('MP2/aug-cc-pvtz', properties = ['dipole'])
--------------------------------------------------------------------------

    Molecular point group: c1
  Charge       = 1
  Multiplicity = 1
  Basis Set: AUG-CC-PVTZ
    Blend: AUG-CC-PVTZ
  Basis Set: (AUG-CC-PVTZ AUX)
    Blend: AUG-CC-PVTZ-JKFIT

    Orbital Energies [Eh]
    ---------------------

    Doubly Occupied:

       1A    -15.852545     2A    -11.449184     3A    -11.446536
       4A    -11.446162     5A    -11.391141     6A    -11.390515
       7A    -11.353518     8A    -11.352718     9A     -1.489691
      10A     -1.271923    11A     -1.193236    12A     -1.142850
      13A     -1.095511    14A     -1.066128    15A     -0.987302
      16A     -0.939170    17A     -0.903472    18A     -0.845392
      19A     -0.821637    20A     -0.786293    21A     -0.763690
      22A     -0.756098    23A     -0.738351    24A     -0.715037
      25A     -0.698174    26A     -0.695531    27A     -0.683006
      28A     -0.666091    29A     -0.639912    30A     -0.631005
      31A     -0.618436    32A     -0.604286

  @DF-RHF Final Energy:  -328.75138875519929

   => Energetics <=

    Nuclear Repulsion Energy =            424.3237603270246154
    One-Electron Energy =               -1273.2812158809556422
    Two-Electron Energy =                 520.2060667987317402
    Total Energy =                       -328.7513887551992866
  Basis Set: (AUG-CC-PVTZ AUX)
    Blend: AUG-CC-PVTZ-RI
    Molecular point group: c1

    Geometry (in Angstrom), charge = 1, multiplicity = 1:

       Center              X                  Y                   Z               Mass
    ------------   -----------------  -----------------  -----------------  -----------------
         N           -1.449125538313    -0.006779954815    -0.379237851438    14.003074004430
         C            0.775867461687    -0.682453954815     0.343040148562    12.000000000000
         C            0.844583461687     0.692450045185    -0.335284851438    12.000000000000
         C           -0.571457538313    -1.235877954815    -0.119980851438    12.000000000000
         C           -0.571367538313     1.209542045185    -0.137811851438    12.000000000000
         C            1.930111461687    -1.624414954815     0.023523148562    12.000000000000
         C            1.920773361687     1.639151845185     0.180046148562    12.000000000000
         C           -2.722907538313     0.011145045185     0.405423148562    12.000000000000
         H            0.734535461687    -0.517930954815     1.428934148562     1.007825032230
         H            1.025330461687     0.544949045185    -1.410529851438     1.007825032230
         H           -1.703030538313    -0.009194954815    -1.374054851438     1.007825032230
         H           -0.483774538313    -1.778636954815    -1.065089851438     1.007825032230
         H           -1.074808538313    -1.874113954815     0.609036148562     1.007825032230
         H           -0.734291538313     1.520936045185     0.898479148562     1.007825032230
         H           -0.886102538313     2.012631045185    -0.808873851438     1.007825032230
         H            2.873510461687    -1.213656954815     0.389651148562     1.007825032230
         H            1.788757461687    -2.598817954815     0.499222148562     1.007825032230
         H            2.017509461687    -1.777491954815    -1.056771851438     1.007825032230
         H            2.900477461687     1.228360045185     0.072875148562     1.007825032230
         H            1.859790461687     2.611786045185    -0.262493851438     1.007825032230
         H            1.752192461687     1.782987045185     1.303119148562     1.007825032230
         H           -2.469030538313    -0.037730954815     1.463977148562     1.007825032230
         H           -3.256778538313     0.936576045185     0.187414148562     1.007825032230
         H           -3.327270538313    -0.850063954815     0.120353148562     1.007825032230

  Basis Set: AUG-CC-PVTZ
    Blend: AUG-CC-PVTZ
  Basis Set: (AUG-CC-PVTZ AUX)
    Blend: AUG-CC-PVTZ-JKFIT
	 Reference Energy          =    -328.7513887551992866 [Eh]
	 Singles Energy            =      -0.0000000000000000 [Eh]
	 Same-Spin Energy          =      -0.3477915788261002 [Eh]
	 Opposite-Spin Energy      =      -1.2498941946327820 [Eh]
	 Correlation Energy        =      -1.5976857734588821 [Eh]
	 Total Energy              =    -330.3490745286581500 [Eh]

	 ================> DF-SCS-MP2 Energies <==================
	-----------------------------------------------------------
	 SCS Same-Spin Scale       =       0.3333333333333333 [-]
	 SCS Opposite-Spin Scale   =       1.2000000000000000 [-]
	 SCS Same-Spin Energy      =      -0.1159305262753667 [Eh]
	 SCS Opposite-Spin Energy  =      -1.4998730335593382 [Eh]
	 SCS Correlation Energy    =      -1.6158035598347049 [Eh]
	 SCS Total Energy          =    -330.3671923150340035 [Eh]
	-----------------------------------------------------------

  Dipole Moment: [D]
     X:    -4.3725      Y:    -0.0068      Z:    -0.8631     Total:     4.4569

*** Psi4 exiting successfully. Buy a developer a beer!
