                               Psi4 1.4a3.dev225

  ==> Input File <==

--------------------------------------------------------------------------
#psi4
#
memory 32 gb

molecule  {
1 1
  N       -1.4549350    -0.0063160    -0.3913190
  C        0.7700580    -0.6819900     0.3309590
  C        0.8497133     0.6954594    -0.3714605
  C       -0.5772670    -1.2354140    -0.1320620
  C       -0.5771770     1.2100060    -0.1498930
  C        1.9243020    -1.6239510     0.0114420
  C        1.8934400     1.6361940     0.2164580
  C       -2.7287170     0.0116090     0.3933420
  H        0.7287260    -0.5174670     1.4168530
  H        1.0195210     0.5454130    -1.4226110
  H       -1.7088400    -0.0087310    -1.3861360
  H       -0.4895840    -1.7781730    -1.0771710
  H       -1.0806180    -1.8736500     0.5969550
  H       -0.7401010     1.5214000     0.8863980
  H       -0.8919120     2.0130950    -0.8209550
  H        2.8677010    -1.2131930     0.3775700
  H        1.7829480    -2.5983540     0.4871410
  H        2.0117000    -1.7770280    -1.0688530
  H        2.8946680     1.2288240     0.0607940
  H        1.8539810     2.6122500    -0.2745750
  H        1.7463830     1.7834510     1.2910380
  H       -2.4748400    -0.0372670     1.4518960
  H       -3.2625880     0.9370400     0.1753330
  H       -3.3330800    -0.8496000     0.1082720
units angstrom
no_reorient  #important for SAPT in psi4, default
symmetry c1  #important for SAPT in psi4, default
}

set PROPERTIES_ORIGIN ["COM"]
properties('MP2/aug-cc-pvtz', properties = ['dipole'])
--------------------------------------------------------------------------

    Molecular point group: c1
  Charge       = 1
  Multiplicity = 1
  Basis Set: AUG-CC-PVTZ
    Blend: AUG-CC-PVTZ
  Basis Set: (AUG-CC-PVTZ AUX)
    Blend: AUG-CC-PVTZ-JKFIT

    Orbital Energies [Eh]
    ---------------------

    Doubly Occupied:

       1A    -15.851890     2A    -11.448855     3A    -11.445959
       4A    -11.445722     5A    -11.390819     6A    -11.390105
       7A    -11.352622     8A    -11.352088     9A     -1.488789
      10A     -1.269917    11A     -1.192157    12A     -1.142313
      13A     -1.094695    14A     -1.064608    15A     -0.986626
      16A     -0.940845    17A     -0.903341    18A     -0.843718
      19A     -0.823201    20A     -0.786064    21A     -0.762114
      22A     -0.754115    23A     -0.734595    24A     -0.715188
      25A     -0.702236    26A     -0.697080    27A     -0.675868
      28A     -0.661312    29A     -0.650747    30A     -0.627549
      31A     -0.625878    32A     -0.599175

  @DF-RHF Final Energy:  -328.75365841363390

   => Energetics <=

    Nuclear Repulsion Energy =            424.1968849145923173
    One-Electron Energy =               -1273.0607027126961839
    Two-Electron Energy =                 520.1101593844698527
    Total Energy =                       -328.7536584136339570
  Basis Set: (AUG-CC-PVTZ AUX)
    Blend: AUG-CC-PVTZ-RI
    Molecular point group: c1

    Geometry (in Angstrom), charge = 1, multiplicity = 1:

       Center              X                  Y                   Z               Mass
    ------------   -----------------  -----------------  -----------------  -----------------
         N           -1.448012622162    -0.006687805870    -0.381803227996    14.003074004430
         C            0.776980377838    -0.682361805870     0.340474772004    12.000000000000
         C            0.856635677838     0.695087594130    -0.361944727996    12.000000000000
         C           -0.570344622162    -1.235785805870    -0.122546227996    12.000000000000
         C           -0.570254622162     1.209634194130    -0.140377227996    12.000000000000
         C            1.931224377838    -1.624322805870     0.020957772004    12.000000000000
         C            1.900362377838     1.635822194130     0.225973772004    12.000000000000
         C           -2.721794622162     0.011237194130     0.402857772004    12.000000000000
         H            0.735648377838    -0.517838805870     1.426368772004     1.007825032230
         H            1.026443377838     0.545041194130    -1.413095227996     1.007825032230
         H           -1.701917622162    -0.009102805870    -1.376620227996     1.007825032230
         H           -0.482661622162    -1.778544805870    -1.067655227996     1.007825032230
         H           -1.073695622162    -1.874021805870     0.606470772004     1.007825032230
         H           -0.733178622162     1.521028194130     0.895913772004     1.007825032230
         H           -0.884989622162     2.012723194130    -0.811439227996     1.007825032230
         H            2.874623377838    -1.213564805870     0.387085772004     1.007825032230
         H            1.789870377838    -2.598725805870     0.496656772004     1.007825032230
         H            2.018622377838    -1.777399805870    -1.059337227996     1.007825032230
         H            2.901590377838     1.228452194130     0.070309772004     1.007825032230
         H            1.860903377838     2.611878194130    -0.265059227996     1.007825032230
         H            1.753305377838     1.783079194130     1.300553772004     1.007825032230
         H           -2.467917622162    -0.037638805870     1.461411772004     1.007825032230
         H           -3.255665622162     0.936668194130     0.184848772004     1.007825032230
         H           -3.326157622162    -0.849971805870     0.117787772004     1.007825032230

  Basis Set: AUG-CC-PVTZ
    Blend: AUG-CC-PVTZ
  Basis Set: (AUG-CC-PVTZ AUX)
    Blend: AUG-CC-PVTZ-JKFIT
	 Reference Energy          =    -328.7536584136339002 [Eh]
	 Singles Energy            =      -0.0000000000000000 [Eh]
	 Same-Spin Energy          =      -0.3476685654062425 [Eh]
	 Opposite-Spin Energy      =      -1.2497860072578484 [Eh]
	 Correlation Energy        =      -1.5974545726640910 [Eh]
	 Total Energy              =    -330.3511129862980056 [Eh]

	 ================> DF-SCS-MP2 Energies <==================
	-----------------------------------------------------------
	 SCS Same-Spin Scale       =       0.3333333333333333 [-]
	 SCS Opposite-Spin Scale   =       1.2000000000000000 [-]
	 SCS Same-Spin Energy      =      -0.1158895218020808 [Eh]
	 SCS Opposite-Spin Energy  =      -1.4997432087094180 [Eh]
	 SCS Correlation Energy    =      -1.6156327305114988 [Eh]
	 SCS Total Energy          =    -330.3692911441453930 [Eh]
	-----------------------------------------------------------

  Dipole Moment: [D]
     X:    -4.3561      Y:     0.0019      Z:    -0.8641     Total:     4.4410

*** Psi4 exiting successfully. Buy a developer a beer!
