                               Psi4 1.4a3.dev225

  ==> Input File <==

--------------------------------------------------------------------------
#psi4
#
memory 32 gb

molecule  {
1 1
  N       -1.4549350    -0.0063160    -0.3913190
  C        0.7700580    -0.6819900     0.3309590
  C        0.8387740     0.6929140    -0.3473660
  C       -0.5887219    -1.2193723    -0.1354457
  C       -0.5771770     1.2100060    -0.1498930
  C        1.9243020    -1.6239510     0.0114420
  C        1.8934400     1.6361940     0.2164580
  C       -2.7287170     0.0116090     0.3933420
  H        0.7287260    -0.5174670     1.4168530
  H        1.0195210     0.5454130    -1.4226110
  H       -1.7088400    -0.0087310    -1.3861360
  H       -0.4895840    -1.7781730    -1.0771710
  H       -1.0806180    -1.8736500     0.5969550
  H       -0.7401010     1.5214000     0.8863980
  H       -0.8919120     2.0130950    -0.8209550
  H        2.8677010    -1.2131930     0.3775700
  H        1.7829480    -2.5983540     0.4871410
  H        2.0117000    -1.7770280    -1.0688530
  H        2.8946680     1.2288240     0.0607940
  H        1.8539810     2.6122500    -0.2745750
  H        1.7463830     1.7834510     1.2910380
  H       -2.4748400    -0.0372670     1.4518960
  H       -3.2625880     0.9370400     0.1753330
  H       -3.3330800    -0.8496000     0.1082720
units angstrom
no_reorient  #important for SAPT in psi4, default
symmetry c1  #important for SAPT in psi4, default
}

set PROPERTIES_ORIGIN ["COM"]
properties('MP2/aug-cc-pvtz', properties = ['dipole'])
--------------------------------------------------------------------------

    Molecular point group: c1
  Charge       = 1
  Multiplicity = 1
  Basis Set: AUG-CC-PVTZ
    Blend: AUG-CC-PVTZ
  Basis Set: (AUG-CC-PVTZ AUX)
    Blend: AUG-CC-PVTZ-JKFIT

    Orbital Energies [Eh]
    ---------------------

    Doubly Occupied:

       1A    -15.853672     2A    -11.449804     3A    -11.446269
       4A    -11.445229     5A    -11.390739     6A    -11.390057
       7A    -11.352699     8A    -11.352299     9A     -1.493754
      10A     -1.271842    11A     -1.192599    12A     -1.144033
      13A     -1.095368    14A     -1.065821    15A     -0.986728
      16A     -0.939407    17A     -0.905654    18A     -0.845772
      19A     -0.823644    20A     -0.785317    21A     -0.762604
      22A     -0.754556    23A     -0.734978    24A     -0.717916
      25A     -0.701408    26A     -0.695193    27A     -0.676102
      28A     -0.663733    29A     -0.646944    30A     -0.627962
      31A     -0.622270    32A     -0.601898

  @DF-RHF Final Energy:  -328.75392126810743

   => Energetics <=

    Nuclear Repulsion Energy =            424.7134048121069441
    One-Electron Energy =               -1274.0621111374596239
    Two-Electron Energy =                 520.5947850572451898
    Total Energy =                       -328.7539212681074332
  Basis Set: (AUG-CC-PVTZ AUX)
    Blend: AUG-CC-PVTZ-RI
    Molecular point group: c1

    Geometry (in Angstrom), charge = 1, multiplicity = 1:

       Center              X                  Y                   Z               Mass
    ------------   -----------------  -----------------  -----------------  -----------------
         N           -1.445657987422    -0.008106872273    -0.383980861900    14.003074004430
         C            0.779335012578    -0.683780872273     0.338297138100    12.000000000000
         C            0.848051012578     0.691123127727    -0.340027861900    12.000000000000
         C           -0.579444887422    -1.221163172273    -0.128107561900    12.000000000000
         C           -0.567899987422     1.208215127727    -0.142554861900    12.000000000000
         C            1.933579012578    -1.625741872273     0.018780138100    12.000000000000
         C            1.902717012578     1.634403127727     0.223796138100    12.000000000000
         C           -2.719439987422     0.009818127727     0.400680138100    12.000000000000
         H            0.738003012578    -0.519257872273     1.424191138100     1.007825032230
         H            1.028798012578     0.543622127727    -1.415272861900     1.007825032230
         H           -1.699562987422    -0.010521872273    -1.378797861900     1.007825032230
         H           -0.480306987422    -1.779963872273    -1.069832861900     1.007825032230
         H           -1.071340987422    -1.875440872273     0.604293138100     1.007825032230
         H           -0.730823987422     1.519609127727     0.893736138100     1.007825032230
         H           -0.882634987422     2.011304127727    -0.813616861900     1.007825032230
         H            2.876978012578    -1.214983872273     0.384908138100     1.007825032230
         H            1.792225012578    -2.600144872273     0.494479138100     1.007825032230
         H            2.020977012578    -1.778818872273    -1.061514861900     1.007825032230
         H            2.903945012578     1.227033127727     0.068132138100     1.007825032230
         H            1.863258012578     2.610459127727    -0.267236861900     1.007825032230
         H            1.755660012578     1.781660127727     1.298376138100     1.007825032230
         H           -2.465562987422    -0.039057872273     1.459234138100     1.007825032230
         H           -3.253310987422     0.935249127727     0.182671138100     1.007825032230
         H           -3.323802987422    -0.851390872273     0.115610138100     1.007825032230

  Basis Set: AUG-CC-PVTZ
    Blend: AUG-CC-PVTZ
  Basis Set: (AUG-CC-PVTZ AUX)
    Blend: AUG-CC-PVTZ-JKFIT
	 Reference Energy          =    -328.7539212681074332 [Eh]
	 Singles Energy            =      -0.0000000000000000 [Eh]
	 Same-Spin Energy          =      -0.3478861816422962 [Eh]
	 Opposite-Spin Energy      =      -1.2498636598127848 [Eh]
	 Correlation Energy        =      -1.5977498414550810 [Eh]
	 Total Energy              =    -330.3516711095625169 [Eh]

	 ================> DF-SCS-MP2 Energies <==================
	-----------------------------------------------------------
	 SCS Same-Spin Scale       =       0.3333333333333333 [-]
	 SCS Opposite-Spin Scale   =       1.2000000000000000 [-]
	 SCS Same-Spin Energy      =      -0.1159620605474320 [Eh]
	 SCS Opposite-Spin Energy  =      -1.4998363917753417 [Eh]
	 SCS Correlation Energy    =      -1.6157984523227737 [Eh]
	 SCS Total Energy          =    -330.3697197204302256 [Eh]
	-----------------------------------------------------------

  Dipole Moment: [D]
     X:    -4.3790      Y:     0.0227      Z:    -0.8680     Total:     4.4643

*** Psi4 exiting successfully. Buy a developer a beer!
