                               Psi4 1.4a3.dev225

  ==> Input File <==

--------------------------------------------------------------------------
#psi4
#
memory 32 gb

molecule  {
1 1
  N       -1.4549350    -0.0063160    -0.3913190
  C        0.7700580    -0.6819900     0.3309590
  C        0.8387740     0.6929140    -0.3473660
  C       -0.5199923    -1.3156223    -0.1151434
  C       -0.5771770     1.2100060    -0.1498930
  C        1.9243020    -1.6239510     0.0114420
  C        1.8934400     1.6361940     0.2164580
  C       -2.7287170     0.0116090     0.3933420
  H        0.7287260    -0.5174670     1.4168530
  H        1.0195210     0.5454130    -1.4226110
  H       -1.7088400    -0.0087310    -1.3861360
  H       -0.4895840    -1.7781730    -1.0771710
  H       -1.0806180    -1.8736500     0.5969550
  H       -0.7401010     1.5214000     0.8863980
  H       -0.8919120     2.0130950    -0.8209550
  H        2.8677010    -1.2131930     0.3775700
  H        1.7829480    -2.5983540     0.4871410
  H        2.0117000    -1.7770280    -1.0688530
  H        2.8946680     1.2288240     0.0607940
  H        1.8539810     2.6122500    -0.2745750
  H        1.7463830     1.7834510     1.2910380
  H       -2.4748400    -0.0372670     1.4518960
  H       -3.2625880     0.9370400     0.1753330
  H       -3.3330800    -0.8496000     0.1082720
units angstrom
no_reorient  #important for SAPT in psi4, default
symmetry c1  #important for SAPT in psi4, default
}

set PROPERTIES_ORIGIN ["COM"]
properties('MP2/aug-cc-pvtz', properties = ['dipole'])
--------------------------------------------------------------------------

    Molecular point group: c1
  Charge       = 1
  Multiplicity = 1
  Basis Set: AUG-CC-PVTZ
    Blend: AUG-CC-PVTZ
  Basis Set: (AUG-CC-PVTZ AUX)
    Blend: AUG-CC-PVTZ-JKFIT

    Orbital Energies [Eh]
    ---------------------

    Doubly Occupied:

       1A    -15.842327     2A    -11.452862     3A    -11.444491
       4A    -11.442338     5A    -11.392090     6A    -11.391363
       7A    -11.354092     8A    -11.353380     9A     -1.469828
      10A     -1.273764    11A     -1.196351    12A     -1.136032
      13A     -1.092852    14A     -1.063204    15A     -0.990081
      16A     -0.940565    17A     -0.892160    18A     -0.841458
      19A     -0.814160    20A     -0.792847    21A     -0.766676
      22A     -0.756450    23A     -0.735760    24A     -0.708553
      25A     -0.701333    26A     -0.697938    27A     -0.677643
      28A     -0.656662    29A     -0.649398    30A     -0.631309
      31A     -0.624475    32A     -0.607273

  @DF-RHF Final Energy:  -328.74728825395539

   => Energetics <=

    Nuclear Repulsion Energy =            423.3931547339738586
    One-Electron Energy =               -1271.5014567808445918
    Two-Electron Energy =                 519.3610137929152870
    Total Energy =                       -328.7472882539553893
  Basis Set: (AUG-CC-PVTZ AUX)
    Blend: AUG-CC-PVTZ-RI
    Molecular point group: c1

    Geometry (in Angstrom), charge = 1, multiplicity = 1:

       Center              X                  Y                   Z               Mass
    ------------   -----------------  -----------------  -----------------  -----------------
         N           -1.452884550721     0.002013319282    -0.386115544134    14.003074004430
         C            0.772108449279    -0.673660680718     0.336162455866    12.000000000000
         C            0.840824449279     0.701243319282    -0.342162544134    12.000000000000
         C           -0.517941850721    -1.307292980718    -0.109939944134    12.000000000000
         C           -0.575126550721     1.218335319282    -0.144689544134    12.000000000000
         C            1.926352449279    -1.615621680718     0.016645455866    12.000000000000
         C            1.895490449279     1.644523319282     0.221661455866    12.000000000000
         C           -2.726666550721     0.019938319282     0.398545455866    12.000000000000
         H            0.730776449279    -0.509137680718     1.422056455866     1.007825032230
         H            1.021571449279     0.553742319282    -1.417407544134     1.007825032230
         H           -1.706789550721    -0.000401680718    -1.380932544134     1.007825032230
         H           -0.487533550721    -1.769843680718    -1.071967544134     1.007825032230
         H           -1.078567550721    -1.865320680718     0.602158455866     1.007825032230
         H           -0.738050550721     1.529729319282     0.891601455866     1.007825032230
         H           -0.889861550721     2.021424319282    -0.815751544134     1.007825032230
         H            2.869751449279    -1.204863680718     0.382773455866     1.007825032230
         H            1.784998449279    -2.590024680718     0.492344455866     1.007825032230
         H            2.013750449279    -1.768698680718    -1.063649544134     1.007825032230
         H            2.896718449279     1.237153319282     0.065997455866     1.007825032230
         H            1.856031449279     2.620579319282    -0.269371544134     1.007825032230
         H            1.748433449279     1.791780319282     1.296241455866     1.007825032230
         H           -2.472789550721    -0.028937680718     1.457099455866     1.007825032230
         H           -3.260537550721     0.945369319282     0.180536455866     1.007825032230
         H           -3.331029550721    -0.841270680718     0.113475455866     1.007825032230

  Basis Set: AUG-CC-PVTZ
    Blend: AUG-CC-PVTZ
  Basis Set: (AUG-CC-PVTZ AUX)
    Blend: AUG-CC-PVTZ-JKFIT
	 Reference Energy          =    -328.7472882539553893 [Eh]
	 Singles Energy            =      -0.0000000000000000 [Eh]
	 Same-Spin Energy          =      -0.3477387092188045 [Eh]
	 Opposite-Spin Energy      =      -1.2503583583248192 [Eh]
	 Correlation Energy        =      -1.5980970675436237 [Eh]
	 Total Energy              =    -330.3453853214990090 [Eh]

	 ================> DF-SCS-MP2 Energies <==================
	-----------------------------------------------------------
	 SCS Same-Spin Scale       =       0.3333333333333333 [-]
	 SCS Opposite-Spin Scale   =       1.2000000000000000 [-]
	 SCS Same-Spin Energy      =      -0.1159129030729348 [Eh]
	 SCS Opposite-Spin Energy  =      -1.5004300299897830 [Eh]
	 SCS Correlation Energy    =      -1.6163429330627179 [Eh]
	 SCS Total Energy          =    -330.3636311870180862 [Eh]
	-----------------------------------------------------------

  Dipole Moment: [D]
     X:    -4.2097      Y:    -0.1199      Z:    -0.8551     Total:     4.2973

*** Psi4 exiting successfully. Buy a developer a beer!
