                               Psi4 1.4a3.dev225

  ==> Input File <==

--------------------------------------------------------------------------
#psi4
#
memory 32 gb

molecule  {
1 1
  N       -1.4549350    -0.0063160    -0.3913190
  C        0.7700580    -0.6819900     0.3309590
  C        0.8387740     0.6929140    -0.3473660
  C       -0.5772670    -1.2354140    -0.1320620
  C       -0.6060645     1.1699762    -0.1578385
  C        1.9243020    -1.6239510     0.0114420
  C        1.8934400     1.6361940     0.2164580
  C       -2.7287170     0.0116090     0.3933420
  H        0.7287260    -0.5174670     1.4168530
  H        1.0195210     0.5454130    -1.4226110
  H       -1.7088400    -0.0087310    -1.3861360
  H       -0.4895840    -1.7781730    -1.0771710
  H       -1.0806180    -1.8736500     0.5969550
  H       -0.7401010     1.5214000     0.8863980
  H       -0.8919120     2.0130950    -0.8209550
  H        2.8677010    -1.2131930     0.3775700
  H        1.7829480    -2.5983540     0.4871410
  H        2.0117000    -1.7770280    -1.0688530
  H        2.8946680     1.2288240     0.0607940
  H        1.8539810     2.6122500    -0.2745750
  H        1.7463830     1.7834510     1.2910380
  H       -2.4748400    -0.0372670     1.4518960
  H       -3.2625880     0.9370400     0.1753330
  H       -3.3330800    -0.8496000     0.1082720
units angstrom
no_reorient  #important for SAPT in psi4, default
symmetry c1  #important for SAPT in psi4, default
}

set PROPERTIES_ORIGIN ["COM"]
properties('MP2/aug-cc-pvtz', properties = ['dipole'])
--------------------------------------------------------------------------

    Molecular point group: c1
  Charge       = 1
  Multiplicity = 1
  Basis Set: AUG-CC-PVTZ
    Blend: AUG-CC-PVTZ
  Basis Set: (AUG-CC-PVTZ AUX)
    Blend: AUG-CC-PVTZ-JKFIT

    Orbital Energies [Eh]
    ---------------------

    Doubly Occupied:

       1A    -15.855639     2A    -11.450870     3A    -11.447609
       4A    -11.443565     5A    -11.390729     6A    -11.389785
       7A    -11.352509     8A    -11.352244     9A     -1.501014
      10A     -1.271428    11A     -1.192208    12A     -1.146116
      13A     -1.096251    14A     -1.066397    15A     -0.985923
      16A     -0.941290    17A     -0.906158    18A     -0.850450
      19A     -0.825019    20A     -0.783716    21A     -0.761242
      22A     -0.755825    23A     -0.735955    24A     -0.717635
      25A     -0.701120    26A     -0.693211    27A     -0.675671
      28A     -0.664876    29A     -0.646174    30A     -0.628155
      31A     -0.620476    32A     -0.600523

  @DF-RHF Final Energy:  -328.75219612063478

   => Energetics <=

    Nuclear Repulsion Energy =            425.0650868309294879
    One-Electron Energy =               -1274.7349976924597286
    Two-Electron Energy =                 520.9177147408955761
    Total Energy =                       -328.7521961206347214
  Basis Set: (AUG-CC-PVTZ AUX)
    Blend: AUG-CC-PVTZ-RI
    Molecular point group: c1

    Geometry (in Angstrom), charge = 1, multiplicity = 1:

       Center              X                  Y                   Z               Mass
    ------------   -----------------  -----------------  -----------------  -----------------
         N           -1.443825039357    -0.002211242967    -0.383501212135    14.003074004430
         C            0.781167960643    -0.677885242967     0.338776787865    12.000000000000
         C            0.849883960643     0.697018757033    -0.339548212135    12.000000000000
         C           -0.566157039357    -1.231309242967    -0.124244212135    12.000000000000
         C           -0.594954539357     1.174080957033    -0.150020712135    12.000000000000
         C            1.935411960643    -1.619846242967     0.019259787865    12.000000000000
         C            1.904549960643     1.640298757033     0.224275787865    12.000000000000
         C           -2.717607039357     0.015713757033     0.401159787865    12.000000000000
         H            0.739835960643    -0.513362242967     1.424670787865     1.007825032230
         H            1.030630960643     0.549517757033    -1.414793212135     1.007825032230
         H           -1.697730039357    -0.004626242967    -1.378318212135     1.007825032230
         H           -0.478474039357    -1.774068242967    -1.069353212135     1.007825032230
         H           -1.069508039357    -1.869545242967     0.604772787865     1.007825032230
         H           -0.728991039357     1.525504757033     0.894215787865     1.007825032230
         H           -0.880802039357     2.017199757033    -0.813137212135     1.007825032230
         H            2.878810960643    -1.209088242967     0.385387787865     1.007825032230
         H            1.794057960643    -2.594249242967     0.494958787865     1.007825032230
         H            2.022809960643    -1.772923242967    -1.061035212135     1.007825032230
         H            2.905777960643     1.232928757033     0.068611787865     1.007825032230
         H            1.865090960643     2.616354757033    -0.266757212135     1.007825032230
         H            1.757492960643     1.787555757033     1.298855787865     1.007825032230
         H           -2.463730039357    -0.033162242967     1.459713787865     1.007825032230
         H           -3.251478039357     0.941144757033     0.183150787865     1.007825032230
         H           -3.321970039357    -0.845495242967     0.116089787865     1.007825032230

  Basis Set: AUG-CC-PVTZ
    Blend: AUG-CC-PVTZ
  Basis Set: (AUG-CC-PVTZ AUX)
    Blend: AUG-CC-PVTZ-JKFIT
	 Reference Energy          =    -328.7521961206347783 [Eh]
	 Singles Energy            =      -0.0000000000000000 [Eh]
	 Same-Spin Energy          =      -0.3480663892441548 [Eh]
	 Opposite-Spin Energy      =      -1.2498465229581373 [Eh]
	 Correlation Energy        =      -1.5979129122022919 [Eh]
	 Total Energy              =    -330.3501090328370537 [Eh]

	 ================> DF-SCS-MP2 Energies <==================
	-----------------------------------------------------------
	 SCS Same-Spin Scale       =       0.3333333333333333 [-]
	 SCS Opposite-Spin Scale   =       1.2000000000000000 [-]
	 SCS Same-Spin Energy      =      -0.1160221297480516 [Eh]
	 SCS Opposite-Spin Energy  =      -1.4998158275497646 [Eh]
	 SCS Correlation Energy    =      -1.6158379572978161 [Eh]
	 SCS Total Energy          =    -330.3680340779325775 [Eh]
	-----------------------------------------------------------

  Dipole Moment: [D]
     X:    -4.4073      Y:    -0.0496      Z:    -0.8691     Total:     4.4925

*** Psi4 exiting successfully. Buy a developer a beer!
