                               Psi4 1.4a3.dev225

  ==> Input File <==

--------------------------------------------------------------------------
#psi4
#
memory 32 gb

molecule  {
1 1
  N       -1.4549350    -0.0063160    -0.3913190
  C        0.7700580    -0.6819900     0.3309590
  C        0.8387740     0.6929140    -0.3473660
  C       -0.5772670    -1.2354140    -0.1320620
  C       -0.7634502     1.2780312    -0.1239148
  C        1.9243020    -1.6239510     0.0114420
  C        1.8934400     1.6361940     0.2164580
  C       -2.7287170     0.0116090     0.3933420
  H        0.7287260    -0.5174670     1.4168530
  H        1.0195210     0.5454130    -1.4226110
  H       -1.7088400    -0.0087310    -1.3861360
  H       -0.4895840    -1.7781730    -1.0771710
  H       -1.0806180    -1.8736500     0.5969550
  H       -0.7401010     1.5214000     0.8863980
  H       -0.8919120     2.0130950    -0.8209550
  H        2.8677010    -1.2131930     0.3775700
  H        1.7829480    -2.5983540     0.4871410
  H        2.0117000    -1.7770280    -1.0688530
  H        2.8946680     1.2288240     0.0607940
  H        1.8539810     2.6122500    -0.2745750
  H        1.7463830     1.7834510     1.2910380
  H       -2.4748400    -0.0372670     1.4518960
  H       -3.2625880     0.9370400     0.1753330
  H       -3.3330800    -0.8496000     0.1082720
units angstrom
no_reorient  #important for SAPT in psi4, default
symmetry c1  #important for SAPT in psi4, default
}

set PROPERTIES_ORIGIN ["COM"]
properties('MP2/aug-cc-pvtz', properties = ['dipole'])
--------------------------------------------------------------------------

    Molecular point group: c1
  Charge       = 1
  Multiplicity = 1
  Basis Set: AUG-CC-PVTZ
    Blend: AUG-CC-PVTZ
  Basis Set: (AUG-CC-PVTZ AUX)
    Blend: AUG-CC-PVTZ-JKFIT

    Orbital Energies [Eh]
    ---------------------

    Doubly Occupied:

       1A    -15.856390     2A    -11.448844     3A    -11.447899
       4A    -11.438116     5A    -11.399889     6A    -11.390307
       7A    -11.353330     8A    -11.350235     9A     -1.495600
      10A     -1.259926    11A     -1.186635    12A     -1.141816
      13A     -1.100696    14A     -1.065303    15A     -0.989890
      16A     -0.935098    17A     -0.909350    18A     -0.845270
      19A     -0.823047    20A     -0.797650    21A     -0.763612
      22A     -0.752184    23A     -0.733016    24A     -0.725088
      25A     -0.711177    26A     -0.701544    27A     -0.675960
      28A     -0.657230    29A     -0.649304    30A     -0.623942
      31A     -0.607952    32A     -0.578601

  @DF-RHF Final Energy:  -328.72358594203854

   => Energetics <=

    Nuclear Repulsion Energy =            422.4707739536638087
    One-Electron Energy =               -1269.5589155937029773
    Two-Electron Energy =                 518.3645556980005722
    Total Energy =                       -328.7235859420385395
  Basis Set: (AUG-CC-PVTZ AUX)
    Blend: AUG-CC-PVTZ-RI
    Molecular point group: c1

    Geometry (in Angstrom), charge = 1, multiplicity = 1:

       Center              X                  Y                   Z               Mass
    ------------   -----------------  -----------------  -----------------  -----------------
         N           -1.427276743959    -0.013572669444    -0.387068114392    14.003074004430
         C            0.797716256041    -0.689246669444     0.335209885608    12.000000000000
         C            0.866432256041     0.685657330556    -0.343115114392    12.000000000000
         C           -0.549608743959    -1.242670669444    -0.127811114392    12.000000000000
         C           -0.735791943959     1.270774530556    -0.119663914392    12.000000000000
         C            1.951960256041    -1.631207669444     0.015692885608    12.000000000000
         C            1.921098256041     1.628937330556     0.220708885608    12.000000000000
         C           -2.701058743959     0.004352330556     0.397592885608    12.000000000000
         H            0.756384256041    -0.524723669444     1.421103885608     1.007825032230
         H            1.047179256041     0.538156330556    -1.418360114392     1.007825032230
         H           -1.681181743959    -0.015987669444    -1.381885114392     1.007825032230
         H           -0.461925743959    -1.785429669444    -1.072920114392     1.007825032230
         H           -1.052959743959    -1.880906669444     0.601205885608     1.007825032230
         H           -0.712442743959     1.514143330556     0.890648885608     1.007825032230
         H           -0.864253743959     2.005838330556    -0.816704114392     1.007825032230
         H            2.895359256041    -1.220449669444     0.381820885608     1.007825032230
         H            1.810606256041    -2.605610669444     0.491391885608     1.007825032230
         H            2.039358256041    -1.784284669444    -1.064602114392     1.007825032230
         H            2.922326256041     1.221567330556     0.065044885608     1.007825032230
         H            1.881639256041     2.604993330556    -0.270324114392     1.007825032230
         H            1.774041256041     1.776194330556     1.295288885608     1.007825032230
         H           -2.447181743959    -0.044523669444     1.456146885608     1.007825032230
         H           -3.234929743959     0.929783330556     0.179583885608     1.007825032230
         H           -3.305421743959    -0.856856669444     0.112522885608     1.007825032230

  Basis Set: AUG-CC-PVTZ
    Blend: AUG-CC-PVTZ
  Basis Set: (AUG-CC-PVTZ AUX)
    Blend: AUG-CC-PVTZ-JKFIT
	 Reference Energy          =    -328.7235859420385395 [Eh]
	 Singles Energy            =      -0.0000000000000000 [Eh]
	 Same-Spin Energy          =      -0.3481034306724381 [Eh]
	 Opposite-Spin Energy      =      -1.2516383371127267 [Eh]
	 Correlation Energy        =      -1.5997417677851646 [Eh]
	 Total Energy              =    -330.3233277098237295 [Eh]

	 ================> DF-SCS-MP2 Energies <==================
	-----------------------------------------------------------
	 SCS Same-Spin Scale       =       0.3333333333333333 [-]
	 SCS Opposite-Spin Scale   =       1.2000000000000000 [-]
	 SCS Same-Spin Energy      =      -0.1160344768908127 [Eh]
	 SCS Opposite-Spin Energy  =      -1.5019660045352718 [Eh]
	 SCS Correlation Energy    =      -1.6180004814260844 [Eh]
	 SCS Total Energy          =    -330.3415864234646051 [Eh]
	-----------------------------------------------------------

  Dipole Moment: [D]
     X:    -4.2832      Y:    -0.1105      Z:    -0.9021     Total:     4.3786

*** Psi4 exiting successfully. Buy a developer a beer!
