                               Psi4 1.4a3.dev225

  ==> Input File <==

--------------------------------------------------------------------------
#psi4
#
memory 32 gb

molecule  {
1 1
  N       -1.4549350    -0.0063160    -0.3913190
  C        0.7700580    -0.6819900     0.3309590
  C        0.8387740     0.6929140    -0.3473660
  C       -0.5772670    -1.2354140    -0.1320620
  C       -0.5771770     1.2100060    -0.1498930
  C        1.9243020    -1.6239510     0.0114420
  C        1.8934400     1.6361940     0.2164580
  C       -2.7287170     0.0116090     0.3933420
  H        0.7287260    -0.5174670     1.4168530
  H        1.0195210     0.5454130    -1.4226110
  H       -1.7088400    -0.0087310    -1.3861360
  H       -0.4895840    -1.7781730    -1.0771710
  H       -1.0806180    -1.8736500     0.5969550
  H       -0.7401010     1.5214000     0.8863980
  H       -0.8919120     2.0130950    -0.8209550
  H        2.8677010    -1.2131930     0.3775700
  H        1.7829480    -2.5983540     0.4871410
  H        2.0077077    -1.7700355    -1.0195056
  H        2.8946680     1.2288240     0.0607940
  H        1.8539810     2.6122500    -0.2745750
  H        1.7463830     1.7834510     1.2910380
  H       -2.4748400    -0.0372670     1.4518960
  H       -3.2625880     0.9370400     0.1753330
  H       -3.3330800    -0.8496000     0.1082720
units angstrom
no_reorient  #important for SAPT in psi4, default
symmetry c1  #important for SAPT in psi4, default
}

set PROPERTIES_ORIGIN ["COM"]
properties('MP2/aug-cc-pvtz', properties = ['dipole'])
--------------------------------------------------------------------------

    Molecular point group: c1
  Charge       = 1
  Multiplicity = 1
  Basis Set: AUG-CC-PVTZ
    Blend: AUG-CC-PVTZ
  Basis Set: (AUG-CC-PVTZ AUX)
    Blend: AUG-CC-PVTZ-JKFIT

    Orbital Energies [Eh]
    ---------------------

    Doubly Occupied:

       1A    -15.852129     2A    -11.448987     3A    -11.446204
       4A    -11.445644     5A    -11.390838     6A    -11.389744
       7A    -11.352755     8A    -11.346395     9A     -1.489414
      10A     -1.272245    11A     -1.193514    12A     -1.142992
      13A     -1.096458    14A     -1.066747    15A     -0.987991
      16A     -0.940475    17A     -0.904003    18A     -0.844856
      19A     -0.821995    20A     -0.786657    21A     -0.763096
      22A     -0.755338    23A     -0.735149    24A     -0.716364
      25A     -0.703623    26A     -0.699233    27A     -0.676023
      28A     -0.663133    29A     -0.649794    30A     -0.628714
      31A     -0.623533    32A     -0.602993

  @DF-RHF Final Energy:  -328.75320389230075

   => Energetics <=

    Nuclear Repulsion Energy =            424.7058608761417418
    One-Electron Energy =               -1274.0440548557376133
    Two-Electron Energy =                 520.5849900872951821
    Total Energy =                       -328.7532038923006894
  Basis Set: (AUG-CC-PVTZ AUX)
    Blend: AUG-CC-PVTZ-RI
    Molecular point group: c1

    Geometry (in Angstrom), charge = 1, multiplicity = 1:

       Center              X                  Y                   Z               Mass
    ------------   -----------------  -----------------  -----------------  -----------------
         N           -1.446827156593    -0.006481918385    -0.384772409353    14.003074004430
         C            0.778165843407    -0.682155918385     0.337505590647    12.000000000000
         C            0.846881843407     0.692748081615    -0.340819409353    12.000000000000
         C           -0.569159156593    -1.235579918385    -0.125515409353    12.000000000000
         C           -0.569069156593     1.209840081615    -0.143346409353    12.000000000000
         C            1.932409843407    -1.624116918385     0.017988590647    12.000000000000
         C            1.901547843407     1.636028081615     0.223004590647    12.000000000000
         C           -2.720609156593     0.011443081615     0.399888590647    12.000000000000
         H            0.736833843407    -0.517632918385     1.423399590647     1.007825032230
         H            1.027628843407     0.545247081615    -1.416064409353     1.007825032230
         H           -1.700732156593    -0.008896918385    -1.379589409353     1.007825032230
         H           -0.481476156593    -1.778338918385    -1.070624409353     1.007825032230
         H           -1.072510156593    -1.873815918385     0.603501590647     1.007825032230
         H           -0.731993156593     1.521234081615     0.892944590647     1.007825032230
         H           -0.883804156593     2.012929081615    -0.814408409353     1.007825032230
         H            2.875808843407    -1.213358918385     0.384116590647     1.007825032230
         H            1.791055843407    -2.598519918385     0.493687590647     1.007825032230
         H            2.015815543407    -1.770201418385    -1.012959009353     1.007825032230
         H            2.902775843407     1.228658081615     0.067340590647     1.007825032230
         H            1.862088843407     2.612084081615    -0.268028409353     1.007825032230
         H            1.754490843407     1.783285081615     1.297584590647     1.007825032230
         H           -2.466732156593    -0.037432918385     1.458442590647     1.007825032230
         H           -3.254480156593     0.936874081615     0.181879590647     1.007825032230
         H           -3.324972156593    -0.849765918385     0.114818590647     1.007825032230

  Basis Set: AUG-CC-PVTZ
    Blend: AUG-CC-PVTZ
  Basis Set: (AUG-CC-PVTZ AUX)
    Blend: AUG-CC-PVTZ-JKFIT
	 Reference Energy          =    -328.7532038923007462 [Eh]
	 Singles Energy            =      -0.0000000000000000 [Eh]
	 Same-Spin Energy          =      -0.3478028924969672 [Eh]
	 Opposite-Spin Energy      =      -1.2495854160761444 [Eh]
	 Correlation Energy        =      -1.5973883085731115 [Eh]
	 Total Energy              =    -330.3505922008738480 [Eh]

	 ================> DF-SCS-MP2 Energies <==================
	-----------------------------------------------------------
	 SCS Same-Spin Scale       =       0.3333333333333333 [-]
	 SCS Opposite-Spin Scale   =       1.2000000000000000 [-]
	 SCS Same-Spin Energy      =      -0.1159342974989891 [Eh]
	 SCS Opposite-Spin Energy  =      -1.4995024992913732 [Eh]
	 SCS Correlation Energy    =      -1.6154367967903622 [Eh]
	 SCS Total Energy          =    -330.3686406890910803 [Eh]
	-----------------------------------------------------------

  Dipole Moment: [D]
     X:    -4.3548      Y:    -0.0033      Z:    -0.8859     Total:     4.4440

*** Psi4 exiting successfully. Buy a developer a beer!
