                               Psi4 1.4a3.dev225

  ==> Input File <==

--------------------------------------------------------------------------
#psi4
#
memory 32 gb

molecule  {
1 1
  N       -1.4549350    -0.0063160    -0.3913190
  C        0.7700580    -0.6819900     0.3309590
  C        0.8387740     0.6929140    -0.3473660
  C       -0.5772670    -1.2354140    -0.1320620
  C       -0.5771770     1.2100060    -0.1498930
  C        1.9243020    -1.6239510     0.0114420
  C        1.8934400     1.6361940     0.2164580
  C       -2.7287170     0.0116090     0.3933420
  H        0.7279739    -0.5144731     1.4366133
  H        1.0195210     0.5454130    -1.4226110
  H       -1.7088400    -0.0087310    -1.3861360
  H       -0.4895840    -1.7781730    -1.0771710
  H       -1.0806180    -1.8736500     0.5969550
  H       -0.7401010     1.5214000     0.8863980
  H       -0.8919120     2.0130950    -0.8209550
  H        2.8677010    -1.2131930     0.3775700
  H        1.7829480    -2.5983540     0.4871410
  H        2.0117000    -1.7770280    -1.0688530
  H        2.8946680     1.2288240     0.0607940
  H        1.8539810     2.6122500    -0.2745750
  H        1.7463830     1.7834510     1.2910380
  H       -2.4748400    -0.0372670     1.4518960
  H       -3.2625880     0.9370400     0.1753330
  H       -3.3330800    -0.8496000     0.1082720
units angstrom
no_reorient  #important for SAPT in psi4, default
symmetry c1  #important for SAPT in psi4, default
}

set PROPERTIES_ORIGIN ["COM"]
properties('MP2/aug-cc-pvtz', properties = ['dipole'])
--------------------------------------------------------------------------

    Molecular point group: c1
  Charge       = 1
  Multiplicity = 1
  Basis Set: AUG-CC-PVTZ
    Blend: AUG-CC-PVTZ
  Basis Set: (AUG-CC-PVTZ AUX)
    Blend: AUG-CC-PVTZ-JKFIT

    Orbital Energies [Eh]
    ---------------------

    Doubly Occupied:

       1A    -15.852176     2A    -11.448997     3A    -11.446363
       4A    -11.445663     5A    -11.392738     6A    -11.390883
       7A    -11.352785     8A    -11.352683     9A     -1.489449
      10A     -1.271677    11A     -1.193024    12A     -1.142568
      13A     -1.094780    14A     -1.065500    15A     -0.987052
      16A     -0.938036    17A     -0.902893    18A     -0.844280
      19A     -0.821942    20A     -0.785964    21A     -0.763181
      22A     -0.754730    23A     -0.735340    24A     -0.715250
      25A     -0.701065    26A     -0.697184    27A     -0.676376
      28A     -0.663086    29A     -0.646896    30A     -0.628270
      31A     -0.621707    32A     -0.602933

  @DF-RHF Final Energy:  -328.75365987939756

   => Energetics <=

    Nuclear Repulsion Energy =            424.3851626024195411
    One-Electron Energy =               -1273.4267085120304728
    Two-Electron Energy =                 520.2878860302133717
    Total Energy =                       -328.7536598793975600
  Basis Set: (AUG-CC-PVTZ AUX)
    Blend: AUG-CC-PVTZ-RI
    Molecular point group: c1

    Geometry (in Angstrom), charge = 1, multiplicity = 1:

       Center              X                  Y                   Z               Mass
    ------------   -----------------  -----------------  -----------------  -----------------
         N           -1.446855769614    -0.006446608211    -0.384511136499    14.003074004430
         C            0.778137230386    -0.682120608211     0.337766863501    12.000000000000
         C            0.846853230386     0.692783391789    -0.340558136499    12.000000000000
         C           -0.569187769614    -1.235544608211    -0.125254136499    12.000000000000
         C           -0.569097769614     1.209875391789    -0.143085136499    12.000000000000
         C            1.932381230386    -1.624081608211     0.018249863501    12.000000000000
         C            1.901519230386     1.636063391789     0.223265863501    12.000000000000
         C           -2.720637769614     0.011478391789     0.400149863501    12.000000000000
         H            0.736053130386    -0.514603708211     1.443421163501     1.007825032230
         H            1.027600230386     0.545282391789    -1.415803136499     1.007825032230
         H           -1.700760769614    -0.008861608211    -1.379328136499     1.007825032230
         H           -0.481504769614    -1.778303608211    -1.070363136499     1.007825032230
         H           -1.072538769614    -1.873780608211     0.603762863501     1.007825032230
         H           -0.732021769614     1.521269391789     0.893205863501     1.007825032230
         H           -0.883832769614     2.012964391789    -0.814147136499     1.007825032230
         H            2.875780230386    -1.213323608211     0.384377863501     1.007825032230
         H            1.791027230386    -2.598484608211     0.493948863501     1.007825032230
         H            2.019779230386    -1.777158608211    -1.062045136499     1.007825032230
         H            2.902747230386     1.228693391789     0.067601863501     1.007825032230
         H            1.862060230386     2.612119391789    -0.267767136499     1.007825032230
         H            1.754462230386     1.783320391789     1.297845863501     1.007825032230
         H           -2.466760769614    -0.037397608211     1.458703863501     1.007825032230
         H           -3.254508769614     0.936909391789     0.182140863501     1.007825032230
         H           -3.325000769614    -0.849730608211     0.115079863501     1.007825032230

  Basis Set: AUG-CC-PVTZ
    Blend: AUG-CC-PVTZ
  Basis Set: (AUG-CC-PVTZ AUX)
    Blend: AUG-CC-PVTZ-JKFIT
	 Reference Energy          =    -328.7536598793975600 [Eh]
	 Singles Energy            =      -0.0000000000000000 [Eh]
	 Same-Spin Energy          =      -0.3478305250754566 [Eh]
	 Opposite-Spin Energy      =      -1.2500219375624528 [Eh]
	 Correlation Energy        =      -1.5978524626379094 [Eh]
	 Total Energy              =    -330.3515123420354485 [Eh]

	 ================> DF-SCS-MP2 Energies <==================
	-----------------------------------------------------------
	 SCS Same-Spin Scale       =       0.3333333333333333 [-]
	 SCS Opposite-Spin Scale   =       1.2000000000000000 [-]
	 SCS Same-Spin Energy      =      -0.1159435083584855 [Eh]
	 SCS Opposite-Spin Energy  =      -1.5000263250749433 [Eh]
	 SCS Correlation Energy    =      -1.6159698334334287 [Eh]
	 SCS Total Energy          =    -330.3696297128309993 [Eh]
	-----------------------------------------------------------

  Dipole Moment: [D]
     X:    -4.3537      Y:    -0.0020      Z:    -0.8751     Total:     4.4407

*** Psi4 exiting successfully. Buy a developer a beer!
