                               Psi4 1.4a3.dev225

  ==> Input File <==

--------------------------------------------------------------------------
#psi4
#
memory 32 gb

molecule  {
1 1
  N       -1.4729377    -0.0158014    -0.3739635
  C        0.7700580    -0.6819900     0.3309590
  C        0.8387740     0.6929140    -0.3473660
  C       -0.5772670    -1.2354140    -0.1320620
  C       -0.5771770     1.2100060    -0.1498930
  C        1.9243020    -1.6239510     0.0114420
  C        1.8934400     1.6361940     0.2164580
  C       -2.7287170     0.0116090     0.3933420
  H        0.7287260    -0.5174670     1.4168530
  H        1.0195210     0.5454130    -1.4226110
  H       -1.7088400    -0.0087310    -1.3861360
  H       -0.4895840    -1.7781730    -1.0771710
  H       -1.0806180    -1.8736500     0.5969550
  H       -0.7401010     1.5214000     0.8863980
  H       -0.8919120     2.0130950    -0.8209550
  H        2.8677010    -1.2131930     0.3775700
  H        1.7829480    -2.5983540     0.4871410
  H        2.0117000    -1.7770280    -1.0688530
  H        2.8946680     1.2288240     0.0607940
  H        1.8539810     2.6122500    -0.2745750
  H        1.7463830     1.7834510     1.2910380
  H       -2.4748400    -0.0372670     1.4518960
  H       -3.2625880     0.9370400     0.1753330
  H       -3.3330800    -0.8496000     0.1082720
units angstrom
no_reorient  #important for SAPT in psi4, default
symmetry c1  #important for SAPT in psi4, default
}

set PROPERTIES_ORIGIN ["COM"]
properties('MP2/aug-cc-pvtz', properties = ['dipole'])
--------------------------------------------------------------------------

    Molecular point group: c1
  Charge       = 1
  Multiplicity = 1
  Basis Set: AUG-CC-PVTZ
    Blend: AUG-CC-PVTZ
  Basis Set: (AUG-CC-PVTZ AUX)
    Blend: AUG-CC-PVTZ-JKFIT

    Orbital Energies [Eh]
    ---------------------

    Doubly Occupied:

       1A    -15.852631     2A    -11.447253     3A    -11.446529
       4A    -11.446410     5A    -11.391606     6A    -11.390684
       7A    -11.353464     8A    -11.352824     9A     -1.489440
      10A     -1.273857    11A     -1.192685    12A     -1.143982
      13A     -1.094595    14A     -1.063346    15A     -0.986982
      16A     -0.939842    17A     -0.903251    18A     -0.845109
      19A     -0.824088    20A     -0.786266    21A     -0.763895
      22A     -0.755470    23A     -0.734393    24A     -0.712296
      25A     -0.702074    26A     -0.696131    27A     -0.676597
      28A     -0.664092    29A     -0.647732    30A     -0.628824
      31A     -0.623370    32A     -0.603387

  @DF-RHF Final Energy:  -328.75312531879649

   => Energetics <=

    Nuclear Repulsion Energy =            424.4041818270773661
    One-Electron Energy =               -1273.4484076006328905
    Two-Electron Energy =                 520.2911004547590892
    Total Energy =                       -328.7531253187964921
  Basis Set: (AUG-CC-PVTZ AUX)
    Blend: AUG-CC-PVTZ-RI
    Molecular point group: c1

    Geometry (in Angstrom), charge = 1, multiplicity = 1:

       Center              X                  Y                   Z               Mass
    ------------   -----------------  -----------------  -----------------  -----------------
         N           -1.462656253237    -0.014741750266    -0.369110589615    14.003074004430
         C            0.780339446763    -0.680930350266     0.335811910385    12.000000000000
         C            0.849055446763     0.693973649734    -0.342513089615    12.000000000000
         C           -0.566985553237    -1.234354350266    -0.127209089615    12.000000000000
         C           -0.566895553237     1.211065649734    -0.145040089615    12.000000000000
         C            1.934583446763    -1.622891350266     0.016294910385    12.000000000000
         C            1.903721446763     1.637253649734     0.221310910385    12.000000000000
         C           -2.718435553237     0.012668649734     0.398194910385    12.000000000000
         H            0.739007446763    -0.516407350266     1.421705910385     1.007825032230
         H            1.029802446763     0.546472649734    -1.417758089615     1.007825032230
         H           -1.698558553237    -0.007671350266    -1.381283089615     1.007825032230
         H           -0.479302553237    -1.777113350266    -1.072318089615     1.007825032230
         H           -1.070336553237    -1.872590350266     0.601807910385     1.007825032230
         H           -0.729819553237     1.522459649734     0.891250910385     1.007825032230
         H           -0.881630553237     2.014154649734    -0.816102089615     1.007825032230
         H            2.877982446763    -1.212133350266     0.382422910385     1.007825032230
         H            1.793229446763    -2.597294350266     0.491993910385     1.007825032230
         H            2.021981446763    -1.775968350266    -1.064000089615     1.007825032230
         H            2.904949446763     1.229883649734     0.065646910385     1.007825032230
         H            1.864262446763     2.613309649734    -0.269722089615     1.007825032230
         H            1.756664446763     1.784510649734     1.295890910385     1.007825032230
         H           -2.464558553237    -0.036207350266     1.456748910385     1.007825032230
         H           -3.252306553237     0.938099649734     0.180185910385     1.007825032230
         H           -3.322798553237    -0.848540350266     0.113124910385     1.007825032230

  Basis Set: AUG-CC-PVTZ
    Blend: AUG-CC-PVTZ
  Basis Set: (AUG-CC-PVTZ AUX)
    Blend: AUG-CC-PVTZ-JKFIT
	 Reference Energy          =    -328.7531253187964921 [Eh]
	 Singles Energy            =      -0.0000000000000000 [Eh]
	 Same-Spin Energy          =      -0.3479698130433701 [Eh]
	 Opposite-Spin Energy      =      -1.2500870611755848 [Eh]
	 Correlation Energy        =      -1.5980568742189549 [Eh]
	 Total Energy              =    -330.3511821930154611 [Eh]

	 ================> DF-SCS-MP2 Energies <==================
	-----------------------------------------------------------
	 SCS Same-Spin Scale       =       0.3333333333333333 [-]
	 SCS Opposite-Spin Scale   =       1.2000000000000000 [-]
	 SCS Same-Spin Energy      =      -0.1159899376811234 [Eh]
	 SCS Opposite-Spin Energy  =      -1.5001044734107016 [Eh]
	 SCS Correlation Energy    =      -1.6160944110918249 [Eh]
	 SCS Total Energy          =    -330.3692197298883002 [Eh]
	-----------------------------------------------------------

  Dipole Moment: [D]
     X:    -4.2991      Y:     0.0196      Z:    -0.8889     Total:     4.3901

*** Psi4 exiting successfully. Buy a developer a beer!
