                               Psi4 1.4a3.dev225

  ==> Input File <==

--------------------------------------------------------------------------
#psi4
#
memory 32 gb

molecule  {
1 1
  N       -1.4549350    -0.0063160    -0.3913190
  C        0.7700580    -0.6819900     0.3309590
  C        0.8387740     0.6929140    -0.3473660
  C       -0.5772670    -1.2354140    -0.1320620
  C       -0.6703136     1.2440186    -0.1369039
  C        1.9243020    -1.6239510     0.0114420
  C        1.8934400     1.6361940     0.2164580
  C       -2.7287170     0.0116090     0.3933420
  H        0.7287260    -0.5174670     1.4168530
  H        1.0195210     0.5454130    -1.4226110
  H       -1.7088400    -0.0087310    -1.3861360
  H       -0.4895840    -1.7781730    -1.0771710
  H       -1.0806180    -1.8736500     0.5969550
  H       -0.7401010     1.5214000     0.8863980
  H       -0.8919120     2.0130950    -0.8209550
  H        2.8677010    -1.2131930     0.3775700
  H        1.7829480    -2.5983540     0.4871410
  H        2.0117000    -1.7770280    -1.0688530
  H        2.8946680     1.2288240     0.0607940
  H        1.8539810     2.6122500    -0.2745750
  H        1.7463830     1.7834510     1.2910380
  H       -2.4748400    -0.0372670     1.4518960
  H       -3.2625880     0.9370400     0.1753330
  H       -3.3330800    -0.8496000     0.1082720
units angstrom
no_reorient  #important for SAPT in psi4, default
symmetry c1  #important for SAPT in psi4, default
}

set PROPERTIES_ORIGIN ["COM"]
properties('MP2/aug-cc-pvtz', properties = ['dipole'])
--------------------------------------------------------------------------

    Molecular point group: c1
  Charge       = 1
  Multiplicity = 1
  Basis Set: AUG-CC-PVTZ
    Blend: AUG-CC-PVTZ
  Basis Set: (AUG-CC-PVTZ AUX)
    Blend: AUG-CC-PVTZ-JKFIT

    Orbital Energies [Eh]
    ---------------------

    Doubly Occupied:

       1A    -15.854476     2A    -11.448610     3A    -11.447500
       4A    -11.440858     5A    -11.395418     6A    -11.389915
       7A    -11.352670     8A    -11.351041     9A     -1.492956
      10A     -1.264227    11A     -1.189678    12A     -1.142420
      13A     -1.097870    14A     -1.065126    15A     -0.988729
      16A     -0.936093    17A     -0.907036    18A     -0.844886
      19A     -0.822042    20A     -0.791526    21A     -0.762984
      22A     -0.753371    23A     -0.732873    24A     -0.720570
      25A     -0.708266    26A     -0.699930    27A     -0.676028
      28A     -0.659254    29A     -0.648617    30A     -0.624705
      31A     -0.612706    32A     -0.597496

  @DF-RHF Final Energy:  -328.74633089600502

   => Energetics <=

    Nuclear Repulsion Energy =            423.4683084882308890
    One-Electron Energy =               -1271.5895254802308045
    Two-Electron Energy =                 519.3748860959949525
    Total Energy =                       -328.7463308960050199
  Basis Set: (AUG-CC-PVTZ AUX)
    Blend: AUG-CC-PVTZ-RI
    Molecular point group: c1

    Geometry (in Angstrom), charge = 1, multiplicity = 1:

       Center              X                  Y                   Z               Mass
    ------------   -----------------  -----------------  -----------------  -----------------
         N           -1.437069577546    -0.009996419810    -0.385702377456    14.003074004430
         C            0.787923422454    -0.685670419810     0.336575622544    12.000000000000
         C            0.856639422454     0.689233580190    -0.341749377456    12.000000000000
         C           -0.559401577546    -1.239094419810    -0.126445377456    12.000000000000
         C           -0.652448177546     1.240338180190    -0.131287277456    12.000000000000
         C            1.942167422454    -1.627631419810     0.017058622544    12.000000000000
         C            1.911305422454     1.632513580190     0.222074622544    12.000000000000
         C           -2.710851577546     0.007928580190     0.398958622544    12.000000000000
         H            0.746591422454    -0.521147419810     1.422469622544     1.007825032230
         H            1.037386422454     0.541732580190    -1.416994377456     1.007825032230
         H           -1.690974577546    -0.012411419810    -1.380519377456     1.007825032230
         H           -0.471718577546    -1.781853419810    -1.071554377456     1.007825032230
         H           -1.062752577546    -1.877330419810     0.602571622544     1.007825032230
         H           -0.722235577546     1.517719580190     0.892014622544     1.007825032230
         H           -0.874046577546     2.009414580190    -0.815338377456     1.007825032230
         H            2.885566422454    -1.216873419810     0.383186622544     1.007825032230
         H            1.800813422454    -2.602034419810     0.492757622544     1.007825032230
         H            2.029565422454    -1.780708419810    -1.063236377456     1.007825032230
         H            2.912533422454     1.225143580190     0.066410622544     1.007825032230
         H            1.871846422454     2.608569580190    -0.268958377456     1.007825032230
         H            1.764248422454     1.779770580190     1.296654622544     1.007825032230
         H           -2.456974577546    -0.040947419810     1.457512622544     1.007825032230
         H           -3.244722577546     0.933359580190     0.180949622544     1.007825032230
         H           -3.315214577546    -0.853280419810     0.113888622544     1.007825032230

  Basis Set: AUG-CC-PVTZ
    Blend: AUG-CC-PVTZ
  Basis Set: (AUG-CC-PVTZ AUX)
    Blend: AUG-CC-PVTZ-JKFIT
	 Reference Energy          =    -328.7463308960050199 [Eh]
	 Singles Energy            =      -0.0000000000000000 [Eh]
	 Same-Spin Energy          =      -0.3475005213334768 [Eh]
	 Opposite-Spin Energy      =      -1.2499630013010141 [Eh]
	 Correlation Energy        =      -1.5974635226344909 [Eh]
	 Total Energy              =    -330.3437944186395043 [Eh]

	 ================> DF-SCS-MP2 Energies <==================
	-----------------------------------------------------------
	 SCS Same-Spin Scale       =       0.3333333333333333 [-]
	 SCS Opposite-Spin Scale   =       1.2000000000000000 [-]
	 SCS Same-Spin Energy      =      -0.1158335071111589 [Eh]
	 SCS Opposite-Spin Energy  =      -1.4999556015612170 [Eh]
	 SCS Correlation Energy    =      -1.6157891086723759 [Eh]
	 SCS Total Energy          =    -330.3621200046774220 [Eh]
	-----------------------------------------------------------

  Dipole Moment: [D]
     X:    -4.3555      Y:    -0.0437      Z:    -0.8852     Total:     4.4447

*** Psi4 exiting successfully. Buy a developer a beer!
