                               Psi4 1.4a3.dev225

  ==> Input File <==

--------------------------------------------------------------------------
#psi4
#
memory 32 gb

molecule  {
1 1
  N       -1.4459911    -0.0075326    -0.4162513
  C        0.7700580    -0.6819900     0.3309590
  C        0.8387740     0.6929140    -0.3473660
  C       -0.5772670    -1.2354140    -0.1320620
  C       -0.5771770     1.2100060    -0.1498930
  C        1.9243020    -1.6239510     0.0114420
  C        1.8934400     1.6361940     0.2164580
  C       -2.7287170     0.0116090     0.3933420
  H        0.7287260    -0.5174670     1.4168530
  H        1.0195210     0.5454130    -1.4226110
  H       -1.7088400    -0.0087310    -1.3861360
  H       -0.4895840    -1.7781730    -1.0771710
  H       -1.0806180    -1.8736500     0.5969550
  H       -0.7401010     1.5214000     0.8863980
  H       -0.8919120     2.0130950    -0.8209550
  H        2.8677010    -1.2131930     0.3775700
  H        1.7829480    -2.5983540     0.4871410
  H        2.0117000    -1.7770280    -1.0688530
  H        2.8946680     1.2288240     0.0607940
  H        1.8539810     2.6122500    -0.2745750
  H        1.7463830     1.7834510     1.2910380
  H       -2.4748400    -0.0372670     1.4518960
  H       -3.2625880     0.9370400     0.1753330
  H       -3.3330800    -0.8496000     0.1082720
units angstrom
no_reorient  #important for SAPT in psi4, default
symmetry c1  #important for SAPT in psi4, default
}

set PROPERTIES_ORIGIN ["COM"]
properties('MP2/aug-cc-pvtz', properties = ['dipole'])
--------------------------------------------------------------------------

    Molecular point group: c1
  Charge       = 1
  Multiplicity = 1
  Basis Set: AUG-CC-PVTZ
    Blend: AUG-CC-PVTZ
  Basis Set: (AUG-CC-PVTZ AUX)
    Blend: AUG-CC-PVTZ-JKFIT

    Orbital Energies [Eh]
    ---------------------

    Doubly Occupied:

       1A    -15.850544     2A    -11.450920     3A    -11.445758
       4A    -11.445543     5A    -11.390499     6A    -11.389834
       7A    -11.352458     8A    -11.352273     9A     -1.488729
      10A     -1.270988    11A     -1.192925    12A     -1.141118
      13A     -1.094462    14A     -1.069282    15A     -0.987963
      16A     -0.938567    17A     -0.904118    18A     -0.843952
      19A     -0.819660    20A     -0.786245    21A     -0.762769
      22A     -0.755554    23A     -0.735761    24A     -0.717548
      25A     -0.700211    26A     -0.698347    27A     -0.676100
      28A     -0.661708    29A     -0.647190    30A     -0.628170
      31A     -0.622651    32A     -0.602670

  @DF-RHF Final Energy:  -328.75389935330941

   => Energetics <=

    Nuclear Repulsion Energy =            424.3880556331367870
    One-Electron Energy =               -1273.4348773224544402
    Two-Electron Energy =                 520.2929223360082460
    Total Energy =                       -328.7538993533094072
  Basis Set: (AUG-CC-PVTZ AUX)
    Blend: AUG-CC-PVTZ-RI
    Molecular point group: c1

    Geometry (in Angstrom), charge = 1, multiplicity = 1:

       Center              X                  Y                   Z               Mass
    ------------   -----------------  -----------------  -----------------  -----------------
         N           -1.439015891201    -0.007487498316    -0.406209848954    14.003074004430
         C            0.777033208799    -0.681944898316     0.341000451046    12.000000000000
         C            0.845749208799     0.692959101684    -0.337324548954    12.000000000000
         C           -0.570291791201    -1.235368898316    -0.122020548954    12.000000000000
         C           -0.570201791201     1.210051101684    -0.139851548954    12.000000000000
         C            1.931277208799    -1.623905898316     0.021483451046    12.000000000000
         C            1.900415208799     1.636239101684     0.226499451046    12.000000000000
         C           -2.721741791201     0.011654101684     0.403383451046    12.000000000000
         H            0.735701208799    -0.517421898316     1.426894451046     1.007825032230
         H            1.026496208799     0.545458101684    -1.412569548954     1.007825032230
         H           -1.701864791201    -0.008685898316    -1.376094548954     1.007825032230
         H           -0.482608791201    -1.778127898316    -1.067129548954     1.007825032230
         H           -1.073642791201    -1.873604898316     0.606996451046     1.007825032230
         H           -0.733125791201     1.521445101684     0.896439451046     1.007825032230
         H           -0.884936791201     2.013140101684    -0.810913548954     1.007825032230
         H            2.874676208799    -1.213147898316     0.387611451046     1.007825032230
         H            1.789923208799    -2.598308898316     0.497182451046     1.007825032230
         H            2.018675208799    -1.776982898316    -1.058811548954     1.007825032230
         H            2.901643208799     1.228869101684     0.070835451046     1.007825032230
         H            1.860956208799     2.612295101684    -0.264533548954     1.007825032230
         H            1.753358208799     1.783496101684     1.301079451046     1.007825032230
         H           -2.467864791201    -0.037221898316     1.461937451046     1.007825032230
         H           -3.255612791201     0.937085101684     0.185374451046     1.007825032230
         H           -3.326104791201    -0.849554898316     0.118313451046     1.007825032230

  Basis Set: AUG-CC-PVTZ
    Blend: AUG-CC-PVTZ
  Basis Set: (AUG-CC-PVTZ AUX)
    Blend: AUG-CC-PVTZ-JKFIT
	 Reference Energy          =    -328.7538993533094072 [Eh]
	 Singles Energy            =      -0.0000000000000000 [Eh]
	 Same-Spin Energy          =      -0.3475789967306514 [Eh]
	 Opposite-Spin Energy      =      -1.2495957270918552 [Eh]
	 Correlation Energy        =      -1.5971747238225067 [Eh]
	 Total Energy              =    -330.3510740771318979 [Eh]

	 ================> DF-SCS-MP2 Energies <==================
	-----------------------------------------------------------
	 SCS Same-Spin Scale       =       0.3333333333333333 [-]
	 SCS Opposite-Spin Scale   =       1.2000000000000000 [-]
	 SCS Same-Spin Energy      =      -0.1158596655768838 [Eh]
	 SCS Opposite-Spin Energy  =      -1.4995148725102261 [Eh]
	 SCS Correlation Energy    =      -1.6153745380871098 [Eh]
	 SCS Total Energy          =    -330.3692738913965172 [Eh]
	-----------------------------------------------------------

  Dipole Moment: [D]
     X:    -4.3870      Y:     0.0048      Z:    -0.8337     Total:     4.4655

*** Psi4 exiting successfully. Buy a developer a beer!
