                               Psi4 1.4a3.dev225

  ==> Input File <==

--------------------------------------------------------------------------
#psi4
#
memory 32 gb

molecule  {
1 1
  N       -1.4549350    -0.0063160    -0.3913190
  C        0.7700580    -0.6819900     0.3309590
  C        0.8387740     0.6929140    -0.3473660
  C       -0.5772670    -1.2354140    -0.1320620
  C       -0.5771770     1.2100060    -0.1498930
  C        1.9243020    -1.6239510     0.0114420
  C        1.8934400     1.6361940     0.2164580
  C       -2.7287170     0.0116090     0.3933420
  H        0.7287260    -0.5174670     1.4168530
  H        1.0195210     0.5454130    -1.4226110
  H       -1.7088400    -0.0087310    -1.3861360
  H       -0.4895840    -1.7781730    -1.0771710
  H       -1.0806180    -1.8736500     0.5969550
  H       -0.7103231     1.4644860     0.6969935
  H       -0.8919120     2.0130950    -0.8209550
  H        2.8677010    -1.2131930     0.3775700
  H        1.7829480    -2.5983540     0.4871410
  H        2.0117000    -1.7770280    -1.0688530
  H        2.8946680     1.2288240     0.0607940
  H        1.8539810     2.6122500    -0.2745750
  H        1.7463830     1.7834510     1.2910380
  H       -2.4748400    -0.0372670     1.4518960
  H       -3.2625880     0.9370400     0.1753330
  H       -3.3330800    -0.8496000     0.1082720
units angstrom
no_reorient  #important for SAPT in psi4, default
symmetry c1  #important for SAPT in psi4, default
}

set PROPERTIES_ORIGIN ["COM"]
properties('MP2/aug-cc-pvtz', properties = ['dipole'])
--------------------------------------------------------------------------

    Molecular point group: c1
  Charge       = 1
  Multiplicity = 1
  Basis Set: AUG-CC-PVTZ
    Blend: AUG-CC-PVTZ
  Basis Set: (AUG-CC-PVTZ AUX)
    Blend: AUG-CC-PVTZ-JKFIT

    Orbital Energies [Eh]
    ---------------------

    Doubly Occupied:

       1A    -15.851203     2A    -11.449425     3A    -11.446078
       4A    -11.423109     5A    -11.390539     6A    -11.389665
       7A    -11.352884     8A    -11.352548     9A     -1.490509
      10A     -1.273892    11A     -1.203344    12A     -1.143225
      13A     -1.101596    14A     -1.070780    15A     -0.998854
      16A     -0.939758    17A     -0.903606    18A     -0.853014
      19A     -0.823306    20A     -0.802437    21A     -0.764451
      22A     -0.754967    23A     -0.735450    24A     -0.717282
      25A     -0.713313    26A     -0.698260    27A     -0.676351
      28A     -0.662808    29A     -0.649070    30A     -0.628136
      31A     -0.623005    32A     -0.602785

  @DF-RHF Final Energy:  -328.72101154892880

   => Energetics <=

    Nuclear Repulsion Energy =            425.5941784253240598
    One-Electron Energy =               -1275.6590759445900858
    Two-Electron Energy =                 521.3438859703371691
    Total Energy =                       -328.7210115489288000
  Basis Set: (AUG-CC-PVTZ AUX)
    Blend: AUG-CC-PVTZ-RI
    Molecular point group: c1

    Geometry (in Angstrom), charge = 1, multiplicity = 1:

       Center              X                  Y                   Z               Mass
    ------------   -----------------  -----------------  -----------------  -----------------
         N           -1.447125368873    -0.005917583467    -0.382664078684    14.003074004430
         C            0.777867631127    -0.681591583467     0.339613921316    12.000000000000
         C            0.846583631127     0.693312416533    -0.338711078684    12.000000000000
         C           -0.569457368873    -1.235015583467    -0.123407078684    12.000000000000
         C           -0.569367368873     1.210404416533    -0.141238078684    12.000000000000
         C            1.932111631127    -1.623552583467     0.020096921316    12.000000000000
         C            1.901249631127     1.636592416533     0.225112921316    12.000000000000
         C           -2.720907368873     0.012007416533     0.401996921316    12.000000000000
         H            0.736535631127    -0.517068583467     1.425507921316     1.007825032230
         H            1.027330631127     0.545811416533    -1.413956078684     1.007825032230
         H           -1.701030368873    -0.008332583467    -1.377481078684     1.007825032230
         H           -0.481774368873    -1.777774583467    -1.068516078684     1.007825032230
         H           -1.072808368873    -1.873251583467     0.605609921316     1.007825032230
         H           -0.702513468873     1.464884416533     0.705648421316     1.007825032230
         H           -0.884102368873     2.013493416533    -0.812300078684     1.007825032230
         H            2.875510631127    -1.212794583467     0.386224921316     1.007825032230
         H            1.790757631127    -2.597955583467     0.495795921316     1.007825032230
         H            2.019509631127    -1.776629583467    -1.060198078684     1.007825032230
         H            2.902477631127     1.229222416533     0.069448921316     1.007825032230
         H            1.861790631127     2.612648416533    -0.265920078684     1.007825032230
         H            1.754192631127     1.783849416533     1.299692921316     1.007825032230
         H           -2.467030368873    -0.036868583467     1.460550921316     1.007825032230
         H           -3.254778368873     0.937438416533     0.183987921316     1.007825032230
         H           -3.325270368873    -0.849201583467     0.116926921316     1.007825032230

  Basis Set: AUG-CC-PVTZ
    Blend: AUG-CC-PVTZ
  Basis Set: (AUG-CC-PVTZ AUX)
    Blend: AUG-CC-PVTZ-JKFIT
	 Reference Energy          =    -328.7210115489288000 [Eh]
	 Singles Energy            =      -0.0000000000000000 [Eh]
	 Same-Spin Energy          =      -0.3474611546855699 [Eh]
	 Opposite-Spin Energy      =      -1.2487798485529327 [Eh]
	 Correlation Energy        =      -1.5962410032385026 [Eh]
	 Total Energy              =    -330.3172525521673037 [Eh]

	 ================> DF-SCS-MP2 Energies <==================
	-----------------------------------------------------------
	 SCS Same-Spin Scale       =       0.3333333333333333 [-]
	 SCS Opposite-Spin Scale   =       1.2000000000000000 [-]
	 SCS Same-Spin Energy      =      -0.1158203848951900 [Eh]
	 SCS Opposite-Spin Energy  =      -1.4985358182635191 [Eh]
	 SCS Correlation Energy    =      -1.6143562031587091 [Eh]
	 SCS Total Energy          =    -330.3353677520875067 [Eh]
	-----------------------------------------------------------

  Dipole Moment: [D]
     X:    -4.3761      Y:    -0.0039      Z:    -0.8575     Total:     4.4594

*** Psi4 exiting successfully. Buy a developer a beer!
