                               Psi4 1.4a3.dev225

  ==> Input File <==

--------------------------------------------------------------------------
#psi4
#
memory 32 gb

molecule  {
1 1
  N       -1.4549350    -0.0063160    -0.3913190
  C        0.7700580    -0.6819900     0.3309590
  C        0.8432516     0.7825036    -0.3915661
  C       -0.5772670    -1.2354140    -0.1320620
  C       -0.5771770     1.2100060    -0.1498930
  C        1.9243020    -1.6239510     0.0114420
  C        1.8934400     1.6361940     0.2164580
  C       -2.7287170     0.0116090     0.3933420
  H        0.7287260    -0.5174670     1.4168530
  H        1.0195210     0.5454130    -1.4226110
  H       -1.7088400    -0.0087310    -1.3861360
  H       -0.4895840    -1.7781730    -1.0771710
  H       -1.0806180    -1.8736500     0.5969550
  H       -0.7401010     1.5214000     0.8863980
  H       -0.8919120     2.0130950    -0.8209550
  H        2.8677010    -1.2131930     0.3775700
  H        1.7829480    -2.5983540     0.4871410
  H        2.0117000    -1.7770280    -1.0688530
  H        2.8946680     1.2288240     0.0607940
  H        1.8539810     2.6122500    -0.2745750
  H        1.7463830     1.7834510     1.2910380
  H       -2.4748400    -0.0372670     1.4518960
  H       -3.2625880     0.9370400     0.1753330
  H       -3.3330800    -0.8496000     0.1082720
units angstrom
no_reorient  #important for SAPT in psi4, default
symmetry c1  #important for SAPT in psi4, default
}

set PROPERTIES_ORIGIN ["COM"]
properties('MP2/aug-cc-pvtz', properties = ['dipole'])
--------------------------------------------------------------------------

    Molecular point group: c1
  Charge       = 1
  Multiplicity = 1
  Basis Set: AUG-CC-PVTZ
    Blend: AUG-CC-PVTZ
  Basis Set: (AUG-CC-PVTZ AUX)
    Blend: AUG-CC-PVTZ-JKFIT

    Orbital Energies [Eh]
    ---------------------

    Doubly Occupied:

       1A    -15.853230     2A    -11.449618     3A    -11.446037
       4A    -11.445612     5A    -11.392412     6A    -11.391226
       7A    -11.351479     8A    -11.351410     9A     -1.488982
      10A     -1.265101    11A     -1.196910    12A     -1.142974
      13A     -1.098533    14A     -1.065407    15A     -0.978553
      16A     -0.942119    17A     -0.903312    18A     -0.844792
      19A     -0.824585    20A     -0.786179    21A     -0.760803
      22A     -0.752948    23A     -0.736211    24A     -0.715885
      25A     -0.704861    26A     -0.696131    27A     -0.676143
      28A     -0.670174    29A     -0.650850    30A     -0.633483
      31A     -0.629662    32A     -0.574153

  @DF-RHF Final Energy:  -328.74584888755419

   => Energetics <=

    Nuclear Repulsion Energy =            423.5400946804228397
    One-Electron Energy =               -1271.7323398785974859
    Two-Electron Energy =                 519.4463963106204574
    Total Energy =                       -328.7458488875541889
  Basis Set: (AUG-CC-PVTZ AUX)
    Blend: AUG-CC-PVTZ-RI
    Molecular point group: c1

    Geometry (in Angstrom), charge = 1, multiplicity = 1:

       Center              X                  Y                   Z               Mass
    ------------   -----------------  -----------------  -----------------  -----------------
         N           -1.447333207702    -0.015840054990    -0.379689227753    14.003074004430
         C            0.777659792298    -0.691514054990     0.342588772247    12.000000000000
         C            0.850853392298     0.772979545010    -0.379936327753    12.000000000000
         C           -0.569665207702    -1.244938054990    -0.120432227753    12.000000000000
         C           -0.569575207702     1.200481945010    -0.138263227753    12.000000000000
         C            1.931903792298    -1.633475054990     0.023071772247    12.000000000000
         C            1.901041792298     1.626669945010     0.228087772247    12.000000000000
         C           -2.721115207702     0.002084945010     0.404971772247    12.000000000000
         H            0.736327792298    -0.526991054990     1.428482772247     1.007825032230
         H            1.027122792298     0.535888945010    -1.410981227753     1.007825032230
         H           -1.701238207702    -0.018255054990    -1.374506227753     1.007825032230
         H           -0.481982207702    -1.787697054990    -1.065541227753     1.007825032230
         H           -1.073016207702    -1.883174054990     0.608584772247     1.007825032230
         H           -0.732499207702     1.511875945010     0.898027772247     1.007825032230
         H           -0.884310207702     2.003570945010    -0.809325227753     1.007825032230
         H            2.875302792298    -1.222717054990     0.389199772247     1.007825032230
         H            1.790549792298    -2.607878054990     0.498770772247     1.007825032230
         H            2.019301792298    -1.786552054990    -1.057223227753     1.007825032230
         H            2.902269792298     1.219299945010     0.072423772247     1.007825032230
         H            1.861582792298     2.602725945010    -0.262945227753     1.007825032230
         H            1.753984792298     1.773926945010     1.302667772247     1.007825032230
         H           -2.467238207702    -0.046791054990     1.463525772247     1.007825032230
         H           -3.254986207702     0.927515945010     0.186962772247     1.007825032230
         H           -3.325478207702    -0.859124054990     0.119901772247     1.007825032230

  Basis Set: AUG-CC-PVTZ
    Blend: AUG-CC-PVTZ
  Basis Set: (AUG-CC-PVTZ AUX)
    Blend: AUG-CC-PVTZ-JKFIT
	 Reference Energy          =    -328.7458488875541889 [Eh]
	 Singles Energy            =      -0.0000000000000000 [Eh]
	 Same-Spin Energy          =      -0.3480570754837871 [Eh]
	 Opposite-Spin Energy      =      -1.2504712683618449 [Eh]
	 Correlation Energy        =      -1.5985283438456319 [Eh]
	 Total Energy              =    -330.3443772313998466 [Eh]

	 ================> DF-SCS-MP2 Energies <==================
	-----------------------------------------------------------
	 SCS Same-Spin Scale       =       0.3333333333333333 [-]
	 SCS Opposite-Spin Scale   =       1.2000000000000000 [-]
	 SCS Same-Spin Energy      =      -0.1160190251612623 [Eh]
	 SCS Opposite-Spin Energy  =      -1.5005655220342138 [Eh]
	 SCS Correlation Energy    =      -1.6165845471954761 [Eh]
	 SCS Total Energy          =    -330.3624334347496756 [Eh]
	-----------------------------------------------------------

  Dipole Moment: [D]
     X:    -4.3484      Y:    -0.0278      Z:    -0.8500     Total:     4.4308

*** Psi4 exiting successfully. Buy a developer a beer!
