                               Psi4 1.4a3.dev225

  ==> Input File <==

--------------------------------------------------------------------------
#psi4
#
memory 32 gb

molecule  {
1 1
  N       -1.4549350    -0.0063160    -0.3913190
  C        0.7700580    -0.6819900     0.3309590
  C        0.8387740     0.6929140    -0.3473660
  C       -0.5772670    -1.2354140    -0.1320620
  C       -0.5771770     1.2100060    -0.1498930
  C        1.9243020    -1.6239510     0.0114420
  C        1.8934400     1.6361940     0.2164580
  C       -2.7287170     0.0116090     0.3933420
  H        0.7287260    -0.5174670     1.4168530
  H        1.0195210     0.5454130    -1.4226110
  H       -1.7137860    -0.0087780    -1.4055147
  H       -0.4895840    -1.7781730    -1.0771710
  H       -1.0806180    -1.8736500     0.5969550
  H       -0.7401010     1.5214000     0.8863980
  H       -0.8919120     2.0130950    -0.8209550
  H        2.8677010    -1.2131930     0.3775700
  H        1.7829480    -2.5983540     0.4871410
  H        2.0117000    -1.7770280    -1.0688530
  H        2.8946680     1.2288240     0.0607940
  H        1.8539810     2.6122500    -0.2745750
  H        1.7463830     1.7834510     1.2910380
  H       -2.4748400    -0.0372670     1.4518960
  H       -3.2625880     0.9370400     0.1753330
  H       -3.3330800    -0.8496000     0.1082720
units angstrom
no_reorient  #important for SAPT in psi4, default
symmetry c1  #important for SAPT in psi4, default
}

set PROPERTIES_ORIGIN ["COM"]
properties('MP2/aug-cc-pvtz', properties = ['dipole'])
--------------------------------------------------------------------------

    Molecular point group: c1
  Charge       = 1
  Multiplicity = 1
  Basis Set: AUG-CC-PVTZ
    Blend: AUG-CC-PVTZ
  Basis Set: (AUG-CC-PVTZ AUX)
    Blend: AUG-CC-PVTZ-JKFIT

    Orbital Energies [Eh]
    ---------------------

    Doubly Occupied:

       1A    -15.853720     2A    -11.448859     3A    -11.446031
       4A    -11.445514     5A    -11.390800     6A    -11.390047
       7A    -11.352716     8A    -11.352421     9A     -1.486962
      10A     -1.271553    11A     -1.192982    12A     -1.142200
      13A     -1.094647    14A     -1.062992    15A     -0.986269
      16A     -0.939276    17A     -0.901543    18A     -0.844401
      19A     -0.821581    20A     -0.786153    21A     -0.763002
      22A     -0.754489    23A     -0.734895    24A     -0.715037
      25A     -0.700927    26A     -0.696374    27A     -0.676247
      28A     -0.662791    29A     -0.647266    30A     -0.628236
      31A     -0.622839    32A     -0.602867

  @DF-RHF Final Energy:  -328.75309920509210

   => Energetics <=

    Nuclear Repulsion Energy =            424.3647791502220912
    One-Electron Energy =               -1273.4044774710509955
    Two-Electron Energy =                 520.2865991157367489
    Total Energy =                       -328.7530992050920986
  Basis Set: (AUG-CC-PVTZ AUX)
    Blend: AUG-CC-PVTZ-RI
    Molecular point group: c1

    Geometry (in Angstrom), charge = 1, multiplicity = 1:

       Center              X                  Y                   Z               Mass
    ------------   -----------------  -----------------  -----------------  -----------------
         N           -1.446818734817    -0.006419755136    -0.384165514311    14.003074004430
         C            0.778174265183    -0.682093755136     0.338112485689    12.000000000000
         C            0.846890265183     0.692810244864    -0.340212514311    12.000000000000
         C           -0.569150734817    -1.235517755136    -0.124908514311    12.000000000000
         C           -0.569060734817     1.209902244864    -0.142739514311    12.000000000000
         C            1.932418265183    -1.624054755136     0.018595485689    12.000000000000
         C            1.901556265183     1.636090244864     0.223611485689    12.000000000000
         C           -2.720600734817     0.011505244864     0.400495485689    12.000000000000
         H            0.736842265183    -0.517570755136     1.424006485689     1.007825032230
         H            1.027637265183     0.545309244864    -1.415457514311     1.007825032230
         H           -1.705669734817    -0.008881755136    -1.398361214311     1.007825032230
         H           -0.481467734817    -1.778276755136    -1.070017514311     1.007825032230
         H           -1.072501734817    -1.873753755136     0.604108485689     1.007825032230
         H           -0.731984734817     1.521296244864     0.893551485689     1.007825032230
         H           -0.883795734817     2.012991244864    -0.813801514311     1.007825032230
         H            2.875817265183    -1.213296755136     0.384723485689     1.007825032230
         H            1.791064265183    -2.598457755136     0.494294485689     1.007825032230
         H            2.019816265183    -1.777131755136    -1.061699514311     1.007825032230
         H            2.902784265183     1.228720244864     0.067947485689     1.007825032230
         H            1.862097265183     2.612146244864    -0.267421514311     1.007825032230
         H            1.754499265183     1.783347244864     1.298191485689     1.007825032230
         H           -2.466723734817    -0.037370755136     1.459049485689     1.007825032230
         H           -3.254471734817     0.936936244864     0.182486485689     1.007825032230
         H           -3.324963734817    -0.849703755136     0.115425485689     1.007825032230

  Basis Set: AUG-CC-PVTZ
    Blend: AUG-CC-PVTZ
  Basis Set: (AUG-CC-PVTZ AUX)
    Blend: AUG-CC-PVTZ-JKFIT
	 Reference Energy          =    -328.7530992050920986 [Eh]
	 Singles Energy            =      -0.0000000000000000 [Eh]
	 Same-Spin Energy          =      -0.3479508710363713 [Eh]
	 Opposite-Spin Energy      =      -1.2502918872899520 [Eh]
	 Correlation Energy        =      -1.5982427583263232 [Eh]
	 Total Energy              =    -330.3513419634184061 [Eh]

	 ================> DF-SCS-MP2 Energies <==================
	-----------------------------------------------------------
	 SCS Same-Spin Scale       =       0.3333333333333333 [-]
	 SCS Opposite-Spin Scale   =       1.2000000000000000 [-]
	 SCS Same-Spin Energy      =      -0.1159836236787904 [Eh]
	 SCS Opposite-Spin Energy  =      -1.5003502647479423 [Eh]
	 SCS Correlation Energy    =      -1.6163338884267326 [Eh]
	 SCS Total Energy          =    -330.3694330935188077 [Eh]
	-----------------------------------------------------------

  Dipole Moment: [D]
     X:    -4.3643      Y:     0.0010      Z:    -0.8878     Total:     4.4537

*** Psi4 exiting successfully. Buy a developer a beer!
