                               Psi4 1.4a3.dev225

  ==> Input File <==

--------------------------------------------------------------------------
#psi4
#
memory 32 gb

molecule  {
1 1
  N       -1.4549350    -0.0063160    -0.3913190
  C        0.7700580    -0.6819900     0.3309590
  C        0.8387740     0.6929140    -0.3473660
  C       -0.5772670    -1.2354140    -0.1320620
  C       -0.5771770     1.2100060    -0.1498930
  C        1.9243020    -1.6239510     0.0114420
  C        1.8934400     1.6361940     0.2164580
  C       -2.7287170     0.0116090     0.3933420
  H        0.7287260    -0.5174670     1.4168530
  H        1.0195210     0.5454130    -1.4226110
  H       -1.7088400    -0.0087310    -1.3861360
  H       -0.4895840    -1.7781730    -1.0771710
  H       -1.0806180    -1.8736500     0.5969550
  H       -0.7401010     1.5214000     0.8863980
  H       -0.8919120     2.0130950    -0.8209550
  H        2.8677010    -1.2131930     0.3775700
  H        1.7829480    -2.5983540     0.4871410
  H        2.0196846    -1.7910130    -1.1675478
  H        2.8946680     1.2288240     0.0607940
  H        1.8539810     2.6122500    -0.2745750
  H        1.7463830     1.7834510     1.2910380
  H       -2.4748400    -0.0372670     1.4518960
  H       -3.2625880     0.9370400     0.1753330
  H       -3.3330800    -0.8496000     0.1082720
units angstrom
no_reorient  #important for SAPT in psi4, default
symmetry c1  #important for SAPT in psi4, default
}

set PROPERTIES_ORIGIN ["COM"]
properties('MP2/aug-cc-pvtz', properties = ['dipole'])
--------------------------------------------------------------------------

    Molecular point group: c1
  Charge       = 1
  Multiplicity = 1
  Basis Set: AUG-CC-PVTZ
    Blend: AUG-CC-PVTZ
  Basis Set: (AUG-CC-PVTZ AUX)
    Blend: AUG-CC-PVTZ-JKFIT

    Orbital Energies [Eh]
    ---------------------

    Doubly Occupied:

       1A    -15.852204     2A    -11.449077     3A    -11.446227
       4A    -11.445753     5A    -11.391579     6A    -11.390702
       7A    -11.364168     8A    -11.352927     9A     -1.489505
      10A     -1.271975    11A     -1.192749    12A     -1.142206
      13A     -1.092662    14A     -1.063385    15A     -0.986071
      16A     -0.938094    17A     -0.902210    18A     -0.844632
      19A     -0.822135    20A     -0.785911    21A     -0.763500
      22A     -0.754418    23A     -0.735721    24A     -0.714672
      25A     -0.700494    26A     -0.690218    27A     -0.677129
      28A     -0.662962    29A     -0.642126    30A     -0.627796
      31A     -0.619796    32A     -0.602526

  @DF-RHF Final Energy:  -328.74777560037427

   => Energetics <=

    Nuclear Repulsion Energy =            424.0860091123444704
    One-Electron Energy =               -1272.8365052762540017
    Two-Electron Energy =                 520.0027205635351493
    Total Energy =                       -328.7477756003743252
  Basis Set: (AUG-CC-PVTZ AUX)
    Blend: AUG-CC-PVTZ-RI
    Molecular point group: c1

    Geometry (in Angstrom), charge = 1, multiplicity = 1:

       Center              X                  Y                   Z               Mass
    ------------   -----------------  -----------------  -----------------  -----------------
         N           -1.446932920215    -0.006296673758    -0.383465102854    14.003074004430
         C            0.778060079785    -0.681970673758     0.338812897146    12.000000000000
         C            0.846776079785     0.692933326242    -0.339512102854    12.000000000000
         C           -0.569264920215    -1.235394673758    -0.124208102854    12.000000000000
         C           -0.569174920215     1.210025326242    -0.142039102854    12.000000000000
         C            1.932304079785    -1.623931673758     0.019295897146    12.000000000000
         C            1.901442079785     1.636213326242     0.224311897146    12.000000000000
         C           -2.720714920215     0.011628326242     0.401195897146    12.000000000000
         H            0.736728079785    -0.517447673758     1.424706897146     1.007825032230
         H            1.027523079785     0.545432326242    -1.414757102854     1.007825032230
         H           -1.700837920215    -0.008711673758    -1.378282102854     1.007825032230
         H           -0.481581920215    -1.778153673758    -1.069317102854     1.007825032230
         H           -1.072615920215    -1.873630673758     0.604808897146     1.007825032230
         H           -0.732098920215     1.521419326242     0.894251897146     1.007825032230
         H           -0.883909920215     2.013114326242    -0.813101102854     1.007825032230
         H            2.875703079785    -1.213173673758     0.385423897146     1.007825032230
         H            1.790950079785    -2.598334673758     0.494994897146     1.007825032230
         H            2.027686679785    -1.790993673758    -1.159693902854     1.007825032230
         H            2.902670079785     1.228843326242     0.068647897146     1.007825032230
         H            1.861983079785     2.612269326242    -0.266721102854     1.007825032230
         H            1.754385079785     1.783470326242     1.298891897146     1.007825032230
         H           -2.466837920215    -0.037247673758     1.459749897146     1.007825032230
         H           -3.254585920215     0.937059326242     0.183186897146     1.007825032230
         H           -3.325077920215    -0.849580673758     0.116125897146     1.007825032230

  Basis Set: AUG-CC-PVTZ
    Blend: AUG-CC-PVTZ
  Basis Set: (AUG-CC-PVTZ AUX)
    Blend: AUG-CC-PVTZ-JKFIT
	 Reference Energy          =    -328.7477756003742684 [Eh]
	 Singles Energy            =      -0.0000000000000000 [Eh]
	 Same-Spin Energy          =      -0.3478190649952806 [Eh]
	 Opposite-Spin Energy      =      -1.2505828093366187 [Eh]
	 Correlation Energy        =      -1.5984018743318993 [Eh]
	 Total Energy              =    -330.3461774747061668 [Eh]

	 ================> DF-SCS-MP2 Energies <==================
	-----------------------------------------------------------
	 SCS Same-Spin Scale       =       0.3333333333333333 [-]
	 SCS Opposite-Spin Scale   =       1.2000000000000000 [-]
	 SCS Same-Spin Energy      =      -0.1159396883317602 [Eh]
	 SCS Opposite-Spin Energy  =      -1.5006993712039425 [Eh]
	 SCS Correlation Energy    =      -1.6166390595357027 [Eh]
	 SCS Total Energy          =    -330.3644146599099827 [Eh]
	-----------------------------------------------------------

  Dipole Moment: [D]
     X:    -4.3612      Y:     0.0124      Z:    -0.8208     Total:     4.4378

*** Psi4 exiting successfully. Buy a developer a beer!
