                               Psi4 1.4a3.dev225

  ==> Input File <==

--------------------------------------------------------------------------
#psi4
#
memory 32 gb

molecule  {
1 1
  N       -1.4175828    -0.0089560    -0.4905313
  C        0.7700580    -0.6819900     0.3309590
  C        0.8387740     0.6929140    -0.3473660
  C       -0.5772670    -1.2354140    -0.1320620
  C       -0.5771770     1.2100060    -0.1498930
  C        1.9243020    -1.6239510     0.0114420
  C        1.8934400     1.6361940     0.2164580
  C       -2.7287170     0.0116090     0.3933420
  H        0.7287260    -0.5174670     1.4168530
  H        1.0195210     0.5454130    -1.4226110
  H       -1.7088400    -0.0087310    -1.3861360
  H       -0.4895840    -1.7781730    -1.0771710
  H       -1.0806180    -1.8736500     0.5969550
  H       -0.7401010     1.5214000     0.8863980
  H       -0.8919120     2.0130950    -0.8209550
  H        2.8677010    -1.2131930     0.3775700
  H        1.7829480    -2.5983540     0.4871410
  H        2.0117000    -1.7770280    -1.0688530
  H        2.8946680     1.2288240     0.0607940
  H        1.8539810     2.6122500    -0.2745750
  H        1.7463830     1.7834510     1.2910380
  H       -2.4748400    -0.0372670     1.4518960
  H       -3.2625880     0.9370400     0.1753330
  H       -3.3330800    -0.8496000     0.1082720
units angstrom
no_reorient  #important for SAPT in psi4, default
symmetry c1  #important for SAPT in psi4, default
}

set PROPERTIES_ORIGIN ["COM"]
properties('MP2/aug-cc-pvtz', properties = ['dipole'])
--------------------------------------------------------------------------

    Molecular point group: c1
  Charge       = 1
  Multiplicity = 1
  Basis Set: AUG-CC-PVTZ
    Blend: AUG-CC-PVTZ
  Basis Set: (AUG-CC-PVTZ AUX)
    Blend: AUG-CC-PVTZ-JKFIT

    Orbital Energies [Eh]
    ---------------------

    Doubly Occupied:

       1A    -15.844937     2A    -11.456963     3A    -11.445456
       4A    -11.445083     5A    -11.389445     6A    -11.388765
       7A    -11.351665     8A    -11.351398     9A     -1.487585
      10A     -1.268865    11A     -1.192126    12A     -1.137050
      13A     -1.093334    14A     -1.081212    15A     -0.989969
      16A     -0.935529    17A     -0.906927    18A     -0.841779
      19A     -0.813429    20A     -0.785842    21A     -0.761780
      22A     -0.758826    23A     -0.736469    24A     -0.722657
      25A     -0.700039    26A     -0.696970    27A     -0.675342
      28A     -0.656443    29A     -0.646067    30A     -0.627421
      31A     -0.621622    32A     -0.601723

  @DF-RHF Final Energy:  -328.74199762678148

   => Energetics <=

    Nuclear Repulsion Energy =            424.0855003698693508
    One-Electron Energy =               -1272.8295585721555199
    Two-Electron Energy =                 520.0020605755047427
    Total Energy =                       -328.7419976267814263
  Basis Set: (AUG-CC-PVTZ AUX)
    Blend: AUG-CC-PVTZ-RI
    Molecular point group: c1

    Geometry (in Angstrom), charge = 1, multiplicity = 1:

       Center              X                  Y                   Z               Mass
    ------------   -----------------  -----------------  -----------------  -----------------
         N           -1.414093173796    -0.008736252939    -0.471375995779    14.003074004430
         C            0.773547626204    -0.681770252939     0.350114304221    12.000000000000
         C            0.842263626204     0.693133747061    -0.328210695779    12.000000000000
         C           -0.573777373796    -1.235194252939    -0.112906695779    12.000000000000
         C           -0.573687373796     1.210225747061    -0.130737695779    12.000000000000
         C            1.927791626204    -1.623731252939     0.030597304221    12.000000000000
         C            1.896929626204     1.636413747061     0.235613304221    12.000000000000
         C           -2.725227373796     0.011828747061     0.412497304221    12.000000000000
         H            0.732215626204    -0.517247252939     1.436008304221     1.007825032230
         H            1.023010626204     0.545632747061    -1.403455695779     1.007825032230
         H           -1.705350373796    -0.008511252939    -1.366980695779     1.007825032230
         H           -0.486094373796    -1.777953252939    -1.058015695779     1.007825032230
         H           -1.077128373796    -1.873430252939     0.616110304221     1.007825032230
         H           -0.736611373796     1.521619747061     0.905553304221     1.007825032230
         H           -0.888422373796     2.013314747061    -0.801799695779     1.007825032230
         H            2.871190626204    -1.212973252939     0.396725304221     1.007825032230
         H            1.786437626204    -2.598134252939     0.506296304221     1.007825032230
         H            2.015189626204    -1.776808252939    -1.049697695779     1.007825032230
         H            2.898157626204     1.229043747061     0.079949304221     1.007825032230
         H            1.857470626204     2.612469747061    -0.255419695779     1.007825032230
         H            1.749872626204     1.783670747061     1.310193304221     1.007825032230
         H           -2.471350373796    -0.037047252939     1.471051304221     1.007825032230
         H           -3.259098373796     0.937259747061     0.194488304221     1.007825032230
         H           -3.329590373796    -0.849380252939     0.127427304221     1.007825032230

  Basis Set: AUG-CC-PVTZ
    Blend: AUG-CC-PVTZ
  Basis Set: (AUG-CC-PVTZ AUX)
    Blend: AUG-CC-PVTZ-JKFIT
	 Reference Energy          =    -328.7419976267814832 [Eh]
	 Singles Energy            =      -0.0000000000000000 [Eh]
	 Same-Spin Energy          =      -0.3471857925620325 [Eh]
	 Opposite-Spin Energy      =      -1.2494411921089903 [Eh]
	 Correlation Energy        =      -1.5966269846710228 [Eh]
	 Total Energy              =    -330.3386246114525306 [Eh]

	 ================> DF-SCS-MP2 Energies <==================
	-----------------------------------------------------------
	 SCS Same-Spin Scale       =       0.3333333333333333 [-]
	 SCS Opposite-Spin Scale   =       1.2000000000000000 [-]
	 SCS Same-Spin Energy      =      -0.1157285975206775 [Eh]
	 SCS Opposite-Spin Energy  =      -1.4993294305307883 [Eh]
	 SCS Correlation Energy    =      -1.6150580280514657 [Eh]
	 SCS Total Energy          =    -330.3570556548329478 [Eh]
	-----------------------------------------------------------

  Dipole Moment: [D]
     X:    -4.4799      Y:     0.0108      Z:    -0.7289     Total:     4.5388

*** Psi4 exiting successfully. Buy a developer a beer!
