                               Psi4 1.4a3.dev225

  ==> Input File <==

--------------------------------------------------------------------------
#psi4
#
memory 32 gb

molecule  {
1 1
  N       -1.5028940     0.0087430    -0.2404478
  C        0.7700580    -0.6819900     0.3309590
  C        0.8387740     0.6929140    -0.3473660
  C       -0.5772670    -1.2354140    -0.1320620
  C       -0.5771770     1.2100060    -0.1498930
  C        1.9243020    -1.6239510     0.0114420
  C        1.8934400     1.6361940     0.2164580
  C       -2.7287170     0.0116090     0.3933420
  H        0.7287260    -0.5174670     1.4168530
  H        1.0195210     0.5454130    -1.4226110
  H       -1.7088400    -0.0087310    -1.3861360
  H       -0.4895840    -1.7781730    -1.0771710
  H       -1.0806180    -1.8736500     0.5969550
  H       -0.7401010     1.5214000     0.8863980
  H       -0.8919120     2.0130950    -0.8209550
  H        2.8677010    -1.2131930     0.3775700
  H        1.7829480    -2.5983540     0.4871410
  H        2.0117000    -1.7770280    -1.0688530
  H        2.8946680     1.2288240     0.0607940
  H        1.8539810     2.6122500    -0.2745750
  H        1.7463830     1.7834510     1.2910380
  H       -2.4748400    -0.0372670     1.4518960
  H       -3.2625880     0.9370400     0.1753330
  H       -3.3330800    -0.8496000     0.1082720
units angstrom
no_reorient  #important for SAPT in psi4, default
symmetry c1  #important for SAPT in psi4, default
}

set PROPERTIES_ORIGIN ["COM"]
properties('MP2/aug-cc-pvtz', properties = ['dipole'])
--------------------------------------------------------------------------

    Molecular point group: c1
  Charge       = 1
  Multiplicity = 1
  Basis Set: AUG-CC-PVTZ
    Blend: AUG-CC-PVTZ
  Basis Set: (AUG-CC-PVTZ AUX)
    Blend: AUG-CC-PVTZ-JKFIT

    Orbital Energies [Eh]
    ---------------------

    Doubly Occupied:

       1A    -15.858890     2A    -11.451069     3A    -11.447513
       4A    -11.438771     5A    -11.393735     6A    -11.392220
       7A    -11.354771     8A    -11.353992     9A     -1.497792
      10A     -1.281841    11A     -1.194309    12A     -1.151756
      13A     -1.096370    14A     -1.046385    15A     -0.982268
      16A     -0.945134    17A     -0.900795    18A     -0.850644
      19A     -0.837485    20A     -0.787056    21A     -0.767115
      22A     -0.755048    23A     -0.731965    24A     -0.706567
      25A     -0.700480    26A     -0.686379    27A     -0.677489
      28A     -0.660219    29A     -0.646262    30A     -0.629172
      31A     -0.624417    32A     -0.604789

  @DF-RHF Final Energy:  -328.72039788921859

   => Energetics <=

    Nuclear Repulsion Energy =            425.0523904941247793
    One-Electron Energy =               -1274.6401777726296132
    Two-Electron Energy =                 520.8673893892862452
    Total Energy =                       -328.7203978892185887
  Basis Set: (AUG-CC-PVTZ AUX)
    Blend: AUG-CC-PVTZ-RI
    Molecular point group: c1

    Geometry (in Angstrom), charge = 1, multiplicity = 1:

       Center              X                  Y                   Z               Mass
    ------------   -----------------  -----------------  -----------------  -----------------
         N           -1.488937037353     0.006791151917    -0.251976721687    14.003074004430
         C            0.784014962647    -0.683941848083     0.319430078313    12.000000000000
         C            0.852730962647     0.690962151917    -0.358894921687    12.000000000000
         C           -0.563310037353    -1.237365848083    -0.143590921687    12.000000000000
         C           -0.563220037353     1.208054151917    -0.161421921687    12.000000000000
         C            1.938258962647    -1.625902848083    -0.000086921687    12.000000000000
         C            1.907396962647     1.634242151917     0.204929078313    12.000000000000
         C           -2.714760037353     0.009657151917     0.381813078313    12.000000000000
         H            0.742682962647    -0.519418848083     1.405324078313     1.007825032230
         H            1.033477962647     0.543461151917    -1.434139921687     1.007825032230
         H           -1.694883037353    -0.010682848083    -1.397664921687     1.007825032230
         H           -0.475627037353    -1.780124848083    -1.088699921687     1.007825032230
         H           -1.066661037353    -1.875601848083     0.585426078313     1.007825032230
         H           -0.726144037353     1.519448151917     0.874869078313     1.007825032230
         H           -0.877955037353     2.011143151917    -0.832483921687     1.007825032230
         H            2.881657962647    -1.215144848083     0.366041078313     1.007825032230
         H            1.796904962647    -2.600305848083     0.475612078313     1.007825032230
         H            2.025656962647    -1.778979848083    -1.080381921687     1.007825032230
         H            2.908624962647     1.226872151917     0.049265078313     1.007825032230
         H            1.867937962647     2.610298151917    -0.286103921687     1.007825032230
         H            1.760339962647     1.781499151917     1.279509078313     1.007825032230
         H           -2.460883037353    -0.039218848083     1.440367078313     1.007825032230
         H           -3.248631037353     0.935088151917     0.163804078313     1.007825032230
         H           -3.319123037353    -0.851551848083     0.096743078313     1.007825032230

  Basis Set: AUG-CC-PVTZ
    Blend: AUG-CC-PVTZ
  Basis Set: (AUG-CC-PVTZ AUX)
    Blend: AUG-CC-PVTZ-JKFIT
	 Reference Energy          =    -328.7203978892185887 [Eh]
	 Singles Energy            =      -0.0000000000000000 [Eh]
	 Same-Spin Energy          =      -0.3501129849891654 [Eh]
	 Opposite-Spin Energy      =      -1.2536709874694802 [Eh]
	 Correlation Energy        =      -1.6037839724586456 [Eh]
	 Total Energy              =    -330.3241818616772321 [Eh]

	 ================> DF-SCS-MP2 Energies <==================
	-----------------------------------------------------------
	 SCS Same-Spin Scale       =       0.3333333333333333 [-]
	 SCS Opposite-Spin Scale   =       1.2000000000000000 [-]
	 SCS Same-Spin Energy      =      -0.1167043283297218 [Eh]
	 SCS Opposite-Spin Energy  =      -1.5044051849633762 [Eh]
	 SCS Correlation Energy    =      -1.6211095132930979 [Eh]
	 SCS Total Energy          =    -330.3415074025116951 [Eh]
	-----------------------------------------------------------

  Dipole Moment: [D]
     X:    -4.1737      Y:    -0.0368      Z:    -1.0331     Total:     4.2998

*** Psi4 exiting successfully. Buy a developer a beer!
