                               Psi4 1.4a3.dev225

  ==> Input File <==

--------------------------------------------------------------------------
#psi4
#
memory 32 gb

molecule  {
1 1
  N       -1.4549350    -0.0063160    -0.3913190
  C        0.7700580    -0.6819900     0.3309590
  C        0.8387740     0.6929140    -0.3473660
  C       -0.5772670    -1.2354140    -0.1320620
  C       -0.5771770     1.2100060    -0.1498930
  C        1.9243020    -1.6239510     0.0114420
  C        1.8934400     1.6361940     0.2164580
  C       -2.7287170     0.0116090     0.3933420
  H        0.7287260    -0.5174670     1.4168530
  H        1.0195210     0.5454130    -1.4226110
  H       -1.7088400    -0.0087310    -1.3861360
  H       -0.4895840    -1.7781730    -1.0771710
  H       -1.0806180    -1.8736500     0.5969550
  H       -0.7401010     1.5214000     0.8863980
  H       -0.8919120     2.0130950    -0.8209550
  H        2.8677010    -1.2131930     0.3775700
  H        1.7829480    -2.5983540     0.4871410
  H        2.0117000    -1.7770280    -1.0688530
  H        2.9405084     1.2101729     0.0536671
  H        1.8539810     2.6122500    -0.2745750
  H        1.7463830     1.7834510     1.2910380
  H       -2.4748400    -0.0372670     1.4518960
  H       -3.2625880     0.9370400     0.1753330
  H       -3.3330800    -0.8496000     0.1082720
units angstrom
no_reorient  #important for SAPT in psi4, default
symmetry c1  #important for SAPT in psi4, default
}

set PROPERTIES_ORIGIN ["COM"]
properties('MP2/aug-cc-pvtz', properties = ['dipole'])
--------------------------------------------------------------------------

    Molecular point group: c1
  Charge       = 1
  Multiplicity = 1
  Basis Set: AUG-CC-PVTZ
    Blend: AUG-CC-PVTZ
  Basis Set: (AUG-CC-PVTZ AUX)
    Blend: AUG-CC-PVTZ-JKFIT

    Orbital Energies [Eh]
    ---------------------

    Doubly Occupied:

       1A    -15.852343     2A    -11.449145     3A    -11.446279
       4A    -11.445981     5A    -11.391244     6A    -11.390262
       7A    -11.358456     8A    -11.352331     9A     -1.489613
      10A     -1.272018    11A     -1.193109    12A     -1.142306
      13A     -1.093197    14A     -1.064433    15A     -0.986460
      16A     -0.939092    17A     -0.903391    18A     -0.844118
      19A     -0.822122    20A     -0.786444    21A     -0.762788
      22A     -0.754958    23A     -0.733734    24A     -0.715593
      25A     -0.700811    26A     -0.697088    27A     -0.674803
      28A     -0.660473    29A     -0.647415    30A     -0.626384
      31A     -0.621761    32A     -0.602841

  @DF-RHF Final Energy:  -328.75203996842907

   => Energetics <=

    Nuclear Repulsion Energy =            424.2781983901915055
    One-Electron Energy =               -1273.2184896989515437
    Two-Electron Energy =                 520.1882513403309076
    Total Energy =                       -328.7520399684291306
  Basis Set: (AUG-CC-PVTZ AUX)
    Blend: AUG-CC-PVTZ-RI
    Molecular point group: c1

    Geometry (in Angstrom), charge = 1, multiplicity = 1:

       Center              X                  Y                   Z               Mass
    ------------   -----------------  -----------------  -----------------  -----------------
         N           -1.447267210933    -0.006255469136    -0.384273705474    14.003074004430
         C            0.777725789067    -0.681929469136     0.338004294526    12.000000000000
         C            0.846441789067     0.692974530864    -0.340320705474    12.000000000000
         C           -0.569599210933    -1.235353469136    -0.125016705474    12.000000000000
         C           -0.569509210933     1.210066530864    -0.142847705474    12.000000000000
         C            1.931969789067    -1.623890469136     0.018487294526    12.000000000000
         C            1.901107789067     1.636254530864     0.223503294526    12.000000000000
         C           -2.721049210933     0.011669530864     0.400387294526    12.000000000000
         H            0.736393789067    -0.517406469136     1.423898294526     1.007825032230
         H            1.027188789067     0.545473530864    -1.415565705474     1.007825032230
         H           -1.701172210933    -0.008670469136    -1.379090705474     1.007825032230
         H           -0.481916210933    -1.778112469136    -1.070125705474     1.007825032230
         H           -1.072950210933    -1.873589469136     0.604000294526     1.007825032230
         H           -0.732433210933     1.521460530864     0.893443294526     1.007825032230
         H           -0.884244210933     2.013155530864    -0.813909705474     1.007825032230
         H            2.875368789067    -1.213132469136     0.384615294526     1.007825032230
         H            1.790615789067    -2.598293469136     0.494186294526     1.007825032230
         H            2.019367789067    -1.776967469136    -1.061807705474     1.007825032230
         H            2.948176189067     1.210233430864     0.060712394526     1.007825032230
         H            1.861648789067     2.612310530864    -0.267529705474     1.007825032230
         H            1.754050789067     1.783511530864     1.298083294526     1.007825032230
         H           -2.467172210933    -0.037206469136     1.458941294526     1.007825032230
         H           -3.254920210933     0.937100530864     0.182378294526     1.007825032230
         H           -3.325412210933    -0.849539469136     0.115317294526     1.007825032230

  Basis Set: AUG-CC-PVTZ
    Blend: AUG-CC-PVTZ
  Basis Set: (AUG-CC-PVTZ AUX)
    Blend: AUG-CC-PVTZ-JKFIT
	 Reference Energy          =    -328.7520399684290737 [Eh]
	 Singles Energy            =      -0.0000000000000000 [Eh]
	 Same-Spin Energy          =      -0.3478349039779078 [Eh]
	 Opposite-Spin Energy      =      -1.2502418114801941 [Eh]
	 Correlation Energy        =      -1.5980767154581019 [Eh]
	 Total Energy              =    -330.3501166838871654 [Eh]

	 ================> DF-SCS-MP2 Energies <==================
	-----------------------------------------------------------
	 SCS Same-Spin Scale       =       0.3333333333333333 [-]
	 SCS Opposite-Spin Scale   =       1.2000000000000000 [-]
	 SCS Same-Spin Energy      =      -0.1159449679926359 [Eh]
	 SCS Opposite-Spin Energy  =      -1.5002901737762329 [Eh]
	 SCS Correlation Energy    =      -1.6162351417688687 [Eh]
	 SCS Total Energy          =    -330.3682751101979420 [Eh]
	-----------------------------------------------------------

  Dipole Moment: [D]
     X:    -4.3734      Y:     0.0037      Z:    -0.8659     Total:     4.4583

*** Psi4 exiting successfully. Buy a developer a beer!
