                               Psi4 1.4a3.dev225

  ==> Input File <==

--------------------------------------------------------------------------
#psi4
#
memory 32 gb

molecule  {
1 1
  N       -1.4549350    -0.0063160    -0.3913190
  C        0.7700580    -0.6819900     0.3309590
  C        0.8387740     0.6929140    -0.3473660
  C       -0.5772670    -1.2354140    -0.1320620
  C       -0.5771770     1.2100060    -0.1498930
  C        1.9243020    -1.6239510     0.0114420
  C        1.8934400     1.6361940     0.2164580
  C       -2.7287170     0.0116090     0.3933420
  H        0.7287260    -0.5174670     1.4168530
  H        1.0195210     0.5454130    -1.4226110
  H       -1.7088400    -0.0087310    -1.3861360
  H       -0.4895840    -1.7781730    -1.0771710
  H       -1.0806180    -1.8736500     0.5969550
  H       -0.7401010     1.5214000     0.8863980
  H       -0.8919120     2.0130950    -0.8209550
  H        2.8677010    -1.2131930     0.3775700
  H        1.7829480    -2.5983540     0.4871410
  H        2.0117000    -1.7770280    -1.0688530
  H        2.7113064     1.3034284     0.0893018
  H        1.8539810     2.6122500    -0.2745750
  H        1.7463830     1.7834510     1.2910380
  H       -2.4748400    -0.0372670     1.4518960
  H       -3.2625880     0.9370400     0.1753330
  H       -3.3330800    -0.8496000     0.1082720
units angstrom
no_reorient  #important for SAPT in psi4, default
symmetry c1  #important for SAPT in psi4, default
}

set PROPERTIES_ORIGIN ["COM"]
properties('MP2/aug-cc-pvtz', properties = ['dipole'])
--------------------------------------------------------------------------

    Molecular point group: c1
  Charge       = 1
  Multiplicity = 1
  Basis Set: AUG-CC-PVTZ
    Blend: AUG-CC-PVTZ
  Basis Set: (AUG-CC-PVTZ AUX)
    Blend: AUG-CC-PVTZ-JKFIT

    Orbital Energies [Eh]
    ---------------------

    Doubly Occupied:

       1A    -15.851602     2A    -11.448650     3A    -11.446023
       4A    -11.444869     5A    -11.390403     6A    -11.389600
       7A    -11.352989     8A    -11.329274     9A     -1.488961
      10A     -1.273205    11A     -1.194539    12A     -1.146041
      13A     -1.106408    14A     -1.069989    15A     -0.991683
      16A     -0.942229    17A     -0.903324    18A     -0.849036
      19A     -0.821896    20A     -0.786567    21A     -0.767507
      22A     -0.754914    23A     -0.744136    24A     -0.714976
      25A     -0.705442    26A     -0.697983    27A     -0.685925
      28A     -0.667538    29A     -0.647365    30A     -0.634398
      31A     -0.623431    32A     -0.603069

  @DF-RHF Final Energy:  -328.71986434332939

   => Energetics <=

    Nuclear Repulsion Energy =            425.4755277615144564
    One-Electron Energy =               -1275.4428424563573117
    Two-Electron Energy =                 521.2474503515134074
    Total Energy =                       -328.7198643433293910
  Basis Set: (AUG-CC-PVTZ AUX)
    Blend: AUG-CC-PVTZ-RI
    Molecular point group: c1

    Geometry (in Angstrom), charge = 1, multiplicity = 1:

       Center              X                  Y                   Z               Mass
    ------------   -----------------  -----------------  -----------------  -----------------
         N           -1.445243211937    -0.007078974334    -0.384588382470    14.003074004430
         C            0.779749788063    -0.682752974334     0.337689617530    12.000000000000
         C            0.848465788063     0.692151025666    -0.340635382470    12.000000000000
         C           -0.567575211937    -1.236176974334    -0.125331382470    12.000000000000
         C           -0.567485211937     1.209243025666    -0.143162382470    12.000000000000
         C            1.933993788063    -1.624713974334     0.018172617530    12.000000000000
         C            1.903131788063     1.635431025666     0.223188617530    12.000000000000
         C           -2.719025211937     0.010846025666     0.400072617530    12.000000000000
         H            0.738417788063    -0.518229974334     1.423583617530     1.007825032230
         H            1.029212788063     0.544650025666    -1.415880382470     1.007825032230
         H           -1.699148211937    -0.009493974334    -1.379405382470     1.007825032230
         H           -0.479892211937    -1.778935974334    -1.070440382470     1.007825032230
         H           -1.070926211937    -1.874412974334     0.603685617530     1.007825032230
         H           -0.730409211937     1.520637025666     0.893128617530     1.007825032230
         H           -0.882220211937     2.012332025666    -0.814224382470     1.007825032230
         H            2.877392788063    -1.213955974334     0.384300617530     1.007825032230
         H            1.792639788063    -2.599116974334     0.493871617530     1.007825032230
         H            2.021391788063    -1.777790974334    -1.062122382470     1.007825032230
         H            2.720998188063     1.302665425666     0.096032417530     1.007825032230
         H            1.863672788063     2.611487025666    -0.267844382470     1.007825032230
         H            1.756074788063     1.782688025666     1.297768617530     1.007825032230
         H           -2.465148211937    -0.038029974334     1.458626617530     1.007825032230
         H           -3.252896211937     0.936277025666     0.182063617530     1.007825032230
         H           -3.323388211937    -0.850362974334     0.115002617530     1.007825032230

  Basis Set: AUG-CC-PVTZ
    Blend: AUG-CC-PVTZ
  Basis Set: (AUG-CC-PVTZ AUX)
    Blend: AUG-CC-PVTZ-JKFIT
	 Reference Energy          =    -328.7198643433293910 [Eh]
	 Singles Energy            =      -0.0000000000000000 [Eh]
	 Same-Spin Energy          =      -0.3478147616701142 [Eh]
	 Opposite-Spin Energy      =      -1.2491353423928921 [Eh]
	 Correlation Energy        =      -1.5969501040630063 [Eh]
	 Total Energy              =    -330.3168144473924031 [Eh]

	 ================> DF-SCS-MP2 Energies <==================
	-----------------------------------------------------------
	 SCS Same-Spin Scale       =       0.3333333333333333 [-]
	 SCS Opposite-Spin Scale   =       1.2000000000000000 [-]
	 SCS Same-Spin Energy      =      -0.1159382538900380 [Eh]
	 SCS Opposite-Spin Energy  =      -1.4989624108714705 [Eh]
	 SCS Correlation Energy    =      -1.6149006647615085 [Eh]
	 SCS Total Energy          =    -330.3347650080909261 [Eh]
	-----------------------------------------------------------

  Dipole Moment: [D]
     X:    -4.3156      Y:    -0.0057      Z:    -0.8669     Total:     4.4018

*** Psi4 exiting successfully. Buy a developer a beer!
