                               Psi4 1.4a3.dev225

  ==> Input File <==

--------------------------------------------------------------------------
#psi4
#
memory 32 gb

molecule  {
1 1
  N       -1.4810469     0.0210596    -0.4284796
  C        0.7700580    -0.6819900     0.3309590
  C        0.8387740     0.6929140    -0.3473660
  C       -0.5772670    -1.2354140    -0.1320620
  C       -0.5771770     1.2100060    -0.1498930
  C        1.9243020    -1.6239510     0.0114420
  C        1.8934400     1.6361940     0.2164580
  C       -2.7287170     0.0116090     0.3933420
  H        0.7287260    -0.5174670     1.4168530
  H        1.0195210     0.5454130    -1.4226110
  H       -1.7088400    -0.0087310    -1.3861360
  H       -0.4895840    -1.7781730    -1.0771710
  H       -1.0806180    -1.8736500     0.5969550
  H       -0.7401010     1.5214000     0.8863980
  H       -0.8919120     2.0130950    -0.8209550
  H        2.8677010    -1.2131930     0.3775700
  H        1.7829480    -2.5983540     0.4871410
  H        2.0117000    -1.7770280    -1.0688530
  H        2.8946680     1.2288240     0.0607940
  H        1.8539810     2.6122500    -0.2745750
  H        1.7463830     1.7834510     1.2910380
  H       -2.4748400    -0.0372670     1.4518960
  H       -3.2625880     0.9370400     0.1753330
  H       -3.3330800    -0.8496000     0.1082720
units angstrom
no_reorient  #important for SAPT in psi4, default
symmetry c1  #important for SAPT in psi4, default
}

set PROPERTIES_ORIGIN ["COM"]
properties('MP2/aug-cc-pvtz', properties = ['dipole'])
--------------------------------------------------------------------------

    Molecular point group: c1
  Charge       = 1
  Multiplicity = 1
  Basis Set: AUG-CC-PVTZ
    Blend: AUG-CC-PVTZ
  Basis Set: (AUG-CC-PVTZ AUX)
    Blend: AUG-CC-PVTZ-JKFIT

    Orbital Energies [Eh]
    ---------------------

    Doubly Occupied:

       1A    -15.847900     2A    -11.449912     3A    -11.448068
       4A    -11.445342     5A    -11.391541     6A    -11.390930
       7A    -11.353431     8A    -11.353070     9A     -1.486840
      10A     -1.273326    11A     -1.191059    12A     -1.141191
      13A     -1.092962    14A     -1.072856    15A     -0.989770
      16A     -0.938519    17A     -0.902369    18A     -0.842885
      19A     -0.821680    20A     -0.787580    21A     -0.762571
      22A     -0.757554    23A     -0.736049    24A     -0.710759
      25A     -0.702566    26A     -0.697568    27A     -0.676205
      28A     -0.662654    29A     -0.647921    30A     -0.628964
      31A     -0.623495    32A     -0.603336

  @DF-RHF Final Energy:  -328.75204264133311

   => Energetics <=

    Nuclear Repulsion Energy =            423.8518876972158864
    One-Electron Energy =               -1272.3461139253638521
    Two-Electron Energy =                 519.7421835868148037
    Total Energy =                       -328.7520426413331052
  Basis Set: (AUG-CC-PVTZ AUX)
    Blend: AUG-CC-PVTZ-RI
    Molecular point group: c1

    Geometry (in Angstrom), charge = 1, multiplicity = 1:

       Center              X                  Y                   Z               Mass
    ------------   -----------------  -----------------  -----------------  -----------------
         N           -1.469770487457     0.017596555309    -0.416937786396    14.003074004430
         C            0.781334412543    -0.685453044691     0.342500813604    12.000000000000
         C            0.850050412543     0.689450955309    -0.335824186396    12.000000000000
         C           -0.565990587457    -1.238877044691    -0.120520186396    12.000000000000
         C           -0.565900587457     1.206542955309    -0.138351186396    12.000000000000
         C            1.935578412543    -1.627414044691     0.022983813604    12.000000000000
         C            1.904716412543     1.632730955309     0.227999813604    12.000000000000
         C           -2.717440587457     0.008145955309     0.404883813604    12.000000000000
         H            0.740002412543    -0.520930044691     1.428394813604     1.007825032230
         H            1.030797412543     0.541949955309    -1.411069186396     1.007825032230
         H           -1.697563587457    -0.012194044691    -1.374594186396     1.007825032230
         H           -0.478307587457    -1.781636044691    -1.065629186396     1.007825032230
         H           -1.069341587457    -1.877113044691     0.608496813604     1.007825032230
         H           -0.728824587457     1.517936955309     0.897939813604     1.007825032230
         H           -0.880635587457     2.009631955309    -0.809413186396     1.007825032230
         H            2.878977412543    -1.216656044691     0.389111813604     1.007825032230
         H            1.794224412543    -2.601817044691     0.498682813604     1.007825032230
         H            2.022976412543    -1.780491044691    -1.057311186396     1.007825032230
         H            2.905944412543     1.225360955309     0.072335813604     1.007825032230
         H            1.865257412543     2.608786955309    -0.263033186396     1.007825032230
         H            1.757659412543     1.779987955309     1.302579813604     1.007825032230
         H           -2.463563587457    -0.040730044691     1.463437813604     1.007825032230
         H           -3.251311587457     0.933576955309     0.186874813604     1.007825032230
         H           -3.321803587457    -0.853063044691     0.119813813604     1.007825032230

  Basis Set: AUG-CC-PVTZ
    Blend: AUG-CC-PVTZ
  Basis Set: (AUG-CC-PVTZ AUX)
    Blend: AUG-CC-PVTZ-JKFIT
	 Reference Energy          =    -328.7520426413331052 [Eh]
	 Singles Energy            =      -0.0000000000000000 [Eh]
	 Same-Spin Energy          =      -0.3474266605507927 [Eh]
	 Opposite-Spin Energy      =      -1.2494096749573396 [Eh]
	 Correlation Energy        =      -1.5968363355081323 [Eh]
	 Total Energy              =    -330.3488789768412630 [Eh]

	 ================> DF-SCS-MP2 Energies <==================
	-----------------------------------------------------------
	 SCS Same-Spin Scale       =       0.3333333333333333 [-]
	 SCS Opposite-Spin Scale   =       1.2000000000000000 [-]
	 SCS Same-Spin Energy      =      -0.1158088868502642 [Eh]
	 SCS Opposite-Spin Energy  =      -1.4992916099488074 [Eh]
	 SCS Correlation Energy    =      -1.6151004967990716 [Eh]
	 SCS Total Energy          =    -330.3671431381321781 [Eh]
	-----------------------------------------------------------

  Dipole Moment: [D]
     X:    -4.2797      Y:    -0.0553      Z:    -0.8179     Total:     4.3575

*** Psi4 exiting successfully. Buy a developer a beer!
