                               Psi4 1.4a3.dev225

  ==> Input File <==

--------------------------------------------------------------------------
#psi4
#
memory 32 gb

molecule  {
1 1
  N       -1.4549350    -0.0063160    -0.3913190
  C        0.7700580    -0.6819900     0.3309590
  C        0.8387740     0.6929140    -0.3473660
  C       -0.5772670    -1.2354140    -0.1320620
  C       -0.5771770     1.2100060    -0.1498930
  C        1.9243020    -1.6239510     0.0114420
  C        1.8934400     1.6361940     0.2164580
  C       -2.7287170     0.0116090     0.3933420
  H        0.7287260    -0.5174670     1.4168530
  H        1.0195210     0.5454130    -1.4226110
  H       -1.7088400    -0.0087310    -1.3861360
  H       -0.4895840    -1.7781730    -1.0771710
  H       -1.0806180    -1.8736500     0.5969550
  H       -0.7401010     1.5214000     0.8863980
  H       -0.8919120     2.0130950    -0.8209550
  H        2.8677010    -1.2131930     0.3775700
  H        1.7829480    -2.5983540     0.4871410
  H        2.0117000    -1.7770280    -1.0688530
  H        2.9044931     1.2312337     0.1363458
  H        1.8539810     2.6122500    -0.2745750
  H        1.7463830     1.7834510     1.2910380
  H       -2.4748400    -0.0372670     1.4518960
  H       -3.2625880     0.9370400     0.1753330
  H       -3.3330800    -0.8496000     0.1082720
units angstrom
no_reorient  #important for SAPT in psi4, default
symmetry c1  #important for SAPT in psi4, default
}

set PROPERTIES_ORIGIN ["COM"]
properties('MP2/aug-cc-pvtz', properties = ['dipole'])
--------------------------------------------------------------------------

    Molecular point group: c1
  Charge       = 1
  Multiplicity = 1
  Basis Set: AUG-CC-PVTZ
    Blend: AUG-CC-PVTZ
  Basis Set: (AUG-CC-PVTZ AUX)
    Blend: AUG-CC-PVTZ-JKFIT

    Orbital Energies [Eh]
    ---------------------

    Doubly Occupied:

       1A    -15.852344     2A    -11.449125     3A    -11.446277
       4A    -11.445982     5A    -11.391319     6A    -11.390302
       7A    -11.352602     8A    -11.352517     9A     -1.489599
      10A     -1.272098    11A     -1.193208    12A     -1.142654
      13A     -1.094694    14A     -1.065530    15A     -0.987544
      16A     -0.940093    17A     -0.903508    18A     -0.844980
      19A     -0.821904    20A     -0.786268    21A     -0.763276
      22A     -0.754958    23A     -0.735855    24A     -0.715553
      25A     -0.699662    26A     -0.696729    27A     -0.677650
      28A     -0.663854    29A     -0.646128    30A     -0.628859
      31A     -0.621718    32A     -0.603576

  @DF-RHF Final Energy:  -328.75369756968723

   => Energetics <=

    Nuclear Repulsion Energy =            424.4548673721369028
    One-Electron Energy =               -1273.5563948767216971
    Two-Electron Energy =                 520.3478299348975042
    Total Energy =                       -328.7536975696872332
  Basis Set: (AUG-CC-PVTZ AUX)
    Blend: AUG-CC-PVTZ-RI
    Molecular point group: c1

    Geometry (in Angstrom), charge = 1, multiplicity = 1:

       Center              X                  Y                   Z               Mass
    ------------   -----------------  -----------------  -----------------  -----------------
         N           -1.446949172997    -0.006441449355    -0.385003810821    14.003074004430
         C            0.778043827003    -0.682115449355     0.337274189179    12.000000000000
         C            0.846759827003     0.692788550645    -0.341050810821    12.000000000000
         C           -0.569281172997    -1.235539449355    -0.125746810821    12.000000000000
         C           -0.569191172997     1.209880550645    -0.143577810821    12.000000000000
         C            1.932287827003    -1.624076449355     0.017757189179    12.000000000000
         C            1.901425827003     1.636068550645     0.222773189179    12.000000000000
         C           -2.720731172997     0.011483550645     0.399657189179    12.000000000000
         H            0.736711827003    -0.517592449355     1.423168189179     1.007825032230
         H            1.027506827003     0.545287550645    -1.416295810821     1.007825032230
         H           -1.700854172997    -0.008856449355    -1.379820810821     1.007825032230
         H           -0.481598172997    -1.778298449355    -1.070855810821     1.007825032230
         H           -1.072632172997    -1.873775449355     0.603270189179     1.007825032230
         H           -0.732115172997     1.521274550645     0.892713189179     1.007825032230
         H           -0.883926172997     2.012969550645    -0.814639810821     1.007825032230
         H            2.875686827003    -1.213318449355     0.383885189179     1.007825032230
         H            1.790933827003    -2.598479449355     0.493456189179     1.007825032230
         H            2.019685827003    -1.777153449355    -1.062537810821     1.007825032230
         H            2.912478927003     1.231108250645     0.142660989179     1.007825032230
         H            1.861966827003     2.612124550645    -0.268259810821     1.007825032230
         H            1.754368827003     1.783325550645     1.297353189179     1.007825032230
         H           -2.466854172997    -0.037392449355     1.458211189179     1.007825032230
         H           -3.254602172997     0.936914550645     0.181648189179     1.007825032230
         H           -3.325094172997    -0.849725449355     0.114587189179     1.007825032230

  Basis Set: AUG-CC-PVTZ
    Blend: AUG-CC-PVTZ
  Basis Set: (AUG-CC-PVTZ AUX)
    Blend: AUG-CC-PVTZ-JKFIT
	 Reference Energy          =    -328.7536975696872332 [Eh]
	 Singles Energy            =      -0.0000000000000000 [Eh]
	 Same-Spin Energy          =      -0.3478119751975836 [Eh]
	 Opposite-Spin Energy      =      -1.2498522471671740 [Eh]
	 Correlation Energy        =      -1.5976642223647577 [Eh]
	 Total Energy              =    -330.3513617920519891 [Eh]

	 ================> DF-SCS-MP2 Energies <==================
	-----------------------------------------------------------
	 SCS Same-Spin Scale       =       0.3333333333333333 [-]
	 SCS Opposite-Spin Scale   =       1.2000000000000000 [-]
	 SCS Same-Spin Energy      =      -0.1159373250658612 [Eh]
	 SCS Opposite-Spin Energy  =      -1.4998226966006087 [Eh]
	 SCS Correlation Energy    =      -1.6157600216664698 [Eh]
	 SCS Total Energy          =    -330.3694575913536937 [Eh]
	-----------------------------------------------------------

  Dipole Moment: [D]
     X:    -4.3592      Y:    -0.0076      Z:    -0.8448     Total:     4.4403

*** Psi4 exiting successfully. Buy a developer a beer!
