                               Psi4 1.4a3.dev225

  ==> Input File <==

--------------------------------------------------------------------------
#psi4
#
memory 32 gb

molecule  {
1 1
  N       -1.4549350    -0.0063160    -0.3913190
  C        0.7700580    -0.6819900     0.3309590
  C        0.8387740     0.6929140    -0.3473660
  C       -0.5948977    -1.2426560    -0.1381210
  C       -0.5771770     1.2100060    -0.1498930
  C        1.9243020    -1.6239510     0.0114420
  C        1.8934400     1.6361940     0.2164580
  C       -2.7287170     0.0116090     0.3933420
  H        0.7287260    -0.5174670     1.4168530
  H        1.0195210     0.5454130    -1.4226110
  H       -1.7088400    -0.0087310    -1.3861360
  H       -0.4895840    -1.7781730    -1.0771710
  H       -1.0806180    -1.8736500     0.5969550
  H       -0.7401010     1.5214000     0.8863980
  H       -0.8919120     2.0130950    -0.8209550
  H        2.8677010    -1.2131930     0.3775700
  H        1.7829480    -2.5983540     0.4871410
  H        2.0117000    -1.7770280    -1.0688530
  H        2.8946680     1.2288240     0.0607940
  H        1.8539810     2.6122500    -0.2745750
  H        1.7463830     1.7834510     1.2910380
  H       -2.4748400    -0.0372670     1.4518960
  H       -3.2625880     0.9370400     0.1753330
  H       -3.3330800    -0.8496000     0.1082720
units angstrom
no_reorient  #important for SAPT in psi4, default
symmetry c1  #important for SAPT in psi4, default
}

set PROPERTIES_ORIGIN ["COM"]
properties('MP2/aug-cc-pvtz', properties = ['dipole'])
--------------------------------------------------------------------------

    Molecular point group: c1
  Charge       = 1
  Multiplicity = 1
  Basis Set: AUG-CC-PVTZ
    Blend: AUG-CC-PVTZ
  Basis Set: (AUG-CC-PVTZ AUX)
    Blend: AUG-CC-PVTZ-JKFIT

    Orbital Energies [Eh]
    ---------------------

    Doubly Occupied:

       1A    -15.852653     2A    -11.449136     3A    -11.445885
       4A    -11.445023     5A    -11.391419     6A    -11.390461
       7A    -11.352790     8A    -11.352100     9A     -1.490224
      10A     -1.270307    11A     -1.192354    12A     -1.142835
      13A     -1.095447    14A     -1.065101    15A     -0.987479
      16A     -0.939410    17A     -0.903213    18A     -0.844807
      19A     -0.822578    20A     -0.787010    21A     -0.763536
      22A     -0.753634    23A     -0.735094    24A     -0.717275
      25A     -0.701160    26A     -0.698220    27A     -0.676193
      28A     -0.662419    29A     -0.647770    30A     -0.626316
      31A     -0.622462    32A     -0.602442

  @DF-RHF Final Energy:  -328.75412225942824

   => Energetics <=

    Nuclear Repulsion Energy =            424.2723990355722208
    One-Electron Energy =               -1273.1995372688347743
    Two-Electron Energy =                 520.1730159738343673
    Total Energy =                       -328.7541222594281862
  Basis Set: (AUG-CC-PVTZ AUX)
    Blend: AUG-CC-PVTZ-RI
    Molecular point group: c1

    Geometry (in Angstrom), charge = 1, multiplicity = 1:

       Center              X                  Y                   Z               Mass
    ------------   -----------------  -----------------  -----------------  -----------------
         N           -1.445008633874    -0.005658711192    -0.383699567890    14.003074004430
         C            0.779984366126    -0.681332711192     0.338578432110    12.000000000000
         C            0.848700366126     0.693571288808    -0.339746567890    12.000000000000
         C           -0.584971333874    -1.241998711192    -0.130501567890    12.000000000000
         C           -0.567250633874     1.210663288808    -0.142273567890    12.000000000000
         C            1.934228366126    -1.623293711192     0.019061432110    12.000000000000
         C            1.903366366126     1.636851288808     0.224077432110    12.000000000000
         C           -2.718790633874     0.012266288808     0.400961432110    12.000000000000
         H            0.738652366126    -0.516809711192     1.424472432110     1.007825032230
         H            1.029447366126     0.546070288808    -1.414991567890     1.007825032230
         H           -1.698913633874    -0.008073711192    -1.378516567890     1.007825032230
         H           -0.479657633874    -1.777515711192    -1.069551567890     1.007825032230
         H           -1.070691633874    -1.872992711192     0.604574432110     1.007825032230
         H           -0.730174633874     1.522057288808     0.894017432110     1.007825032230
         H           -0.881985633874     2.013752288808    -0.813335567890     1.007825032230
         H            2.877627366126    -1.212535711192     0.385189432110     1.007825032230
         H            1.792874366126    -2.597696711192     0.494760432110     1.007825032230
         H            2.021626366126    -1.776370711192    -1.061233567890     1.007825032230
         H            2.904594366126     1.229481288808     0.068413432110     1.007825032230
         H            1.863907366126     2.612907288808    -0.266955567890     1.007825032230
         H            1.756309366126     1.784108288808     1.298657432110     1.007825032230
         H           -2.464913633874    -0.036609711192     1.459515432110     1.007825032230
         H           -3.252661633874     0.937697288808     0.182952432110     1.007825032230
         H           -3.323153633874    -0.848942711192     0.115891432110     1.007825032230

  Basis Set: AUG-CC-PVTZ
    Blend: AUG-CC-PVTZ
  Basis Set: (AUG-CC-PVTZ AUX)
    Blend: AUG-CC-PVTZ-JKFIT
	 Reference Energy          =    -328.7541222594282431 [Eh]
	 Singles Energy            =      -0.0000000000000000 [Eh]
	 Same-Spin Energy          =      -0.3476705501125135 [Eh]
	 Opposite-Spin Energy      =      -1.2497543753055596 [Eh]
	 Correlation Energy        =      -1.5974249254180730 [Eh]
	 Total Energy              =    -330.3515471848463108 [Eh]

	 ================> DF-SCS-MP2 Energies <==================
	-----------------------------------------------------------
	 SCS Same-Spin Scale       =       0.3333333333333333 [-]
	 SCS Opposite-Spin Scale   =       1.2000000000000000 [-]
	 SCS Same-Spin Energy      =      -0.1158901833708378 [Eh]
	 SCS Opposite-Spin Energy  =      -1.4997052503666715 [Eh]
	 SCS Correlation Energy    =      -1.6155954337375094 [Eh]
	 SCS Total Energy          =    -330.3697176931657395 [Eh]
	-----------------------------------------------------------

  Dipole Moment: [D]
     X:    -4.3628      Y:     0.0094      Z:    -0.8671     Total:     4.4481

*** Psi4 exiting successfully. Buy a developer a beer!
