                               Psi4 1.4a3.dev225

  ==> Input File <==

--------------------------------------------------------------------------
#psi4
#
memory 32 gb

molecule  {
1 1
  N       -1.5252874    -0.0464746    -0.3214762
  C        0.7700580    -0.6819900     0.3309590
  C        0.8387740     0.6929140    -0.3473660
  C       -0.5772670    -1.2354140    -0.1320620
  C       -0.5771770     1.2100060    -0.1498930
  C        1.9243020    -1.6239510     0.0114420
  C        1.8934400     1.6361940     0.2164580
  C       -2.7287170     0.0116090     0.3933420
  H        0.7287260    -0.5174670     1.4168530
  H        1.0195210     0.5454130    -1.4226110
  H       -1.7088400    -0.0087310    -1.3861360
  H       -0.4895840    -1.7781730    -1.0771710
  H       -1.0806180    -1.8736500     0.5969550
  H       -0.7401010     1.5214000     0.8863980
  H       -0.8919120     2.0130950    -0.8209550
  H        2.8677010    -1.2131930     0.3775700
  H        1.7829480    -2.5983540     0.4871410
  H        2.0117000    -1.7770280    -1.0688530
  H        2.8946680     1.2288240     0.0607940
  H        1.8539810     2.6122500    -0.2745750
  H        1.7463830     1.7834510     1.2910380
  H       -2.4748400    -0.0372670     1.4518960
  H       -3.2625880     0.9370400     0.1753330
  H       -3.3330800    -0.8496000     0.1082720
units angstrom
no_reorient  #important for SAPT in psi4, default
symmetry c1  #important for SAPT in psi4, default
}

set PROPERTIES_ORIGIN ["COM"]
properties('MP2/aug-cc-pvtz', properties = ['dipole'])
--------------------------------------------------------------------------

    Molecular point group: c1
  Charge       = 1
  Multiplicity = 1
  Basis Set: AUG-CC-PVTZ
    Blend: AUG-CC-PVTZ
  Basis Set: (AUG-CC-PVTZ AUX)
    Blend: AUG-CC-PVTZ-JKFIT

    Orbital Energies [Eh]
    ---------------------

    Doubly Occupied:

       1A    -15.853221     2A    -11.452226     3A    -11.447277
       4A    -11.439214     5A    -11.393774     6A    -11.392212
       7A    -11.355470     8A    -11.353833     9A     -1.491543
      10A     -1.279736    11A     -1.191740    12A     -1.147986
      13A     -1.093988    14A     -1.056759    15A     -0.986259
      16A     -0.940533    17A     -0.903850    18A     -0.847117
      19A     -0.830514    20A     -0.786851    21A     -0.766403
      22A     -0.758185    23A     -0.731577    24A     -0.706943
      25A     -0.700213    26A     -0.691591    27A     -0.677087
      28A     -0.663526    29A     -0.648017    30A     -0.630025
      31A     -0.624441    32A     -0.604563

  @DF-RHF Final Energy:  -328.73982583215059

   => Energetics <=

    Nuclear Repulsion Energy =            424.1934309625543733
    One-Electron Energy =               -1272.9731642887202270
    Two-Electron Energy =                 520.0399074940152104
    Total Energy =                       -328.7398258321505864
  Basis Set: (AUG-CC-PVTZ AUX)
    Blend: AUG-CC-PVTZ-RI
    Molecular point group: c1

    Geometry (in Angstrom), charge = 1, multiplicity = 1:

       Center              X                  Y                   Z               Mass
    ------------   -----------------  -----------------  -----------------  -----------------
         N           -1.508582858467    -0.041651473675    -0.323063267344    14.003074004430
         C            0.786762541533    -0.677166873675     0.329371932656    12.000000000000
         C            0.855478541533     0.697737126325    -0.348953067344    12.000000000000
         C           -0.560562458467    -1.230590873675    -0.133649067344    12.000000000000
         C           -0.560472458467     1.214829126325    -0.151480067344    12.000000000000
         C            1.941006541533    -1.619127873675     0.009854932656    12.000000000000
         C            1.910144541533     1.641017126325     0.214870932656    12.000000000000
         C           -2.712012458467     0.016432126325     0.391754932656    12.000000000000
         H            0.745430541533    -0.512643873675     1.415265932656     1.007825032230
         H            1.036225541533     0.550236126325    -1.424198067344     1.007825032230
         H           -1.692135458467    -0.003907873675    -1.387723067344     1.007825032230
         H           -0.472879458467    -1.773349873675    -1.078758067344     1.007825032230
         H           -1.063913458467    -1.868826873675     0.595367932656     1.007825032230
         H           -0.723396458467     1.526223126325     0.884810932656     1.007825032230
         H           -0.875207458467     2.017918126325    -0.822542067344     1.007825032230
         H            2.884405541533    -1.208369873675     0.375982932656     1.007825032230
         H            1.799652541533    -2.593530873675     0.485553932656     1.007825032230
         H            2.028404541533    -1.772204873675    -1.070440067344     1.007825032230
         H            2.911372541533     1.233647126325     0.059206932656     1.007825032230
         H            1.870685541533     2.617073126325    -0.276162067344     1.007825032230
         H            1.763087541533     1.788274126325     1.289450932656     1.007825032230
         H           -2.458135458467    -0.032443873675     1.450308932656     1.007825032230
         H           -3.245883458467     0.941863126325     0.173745932656     1.007825032230
         H           -3.316375458467    -0.844776873675     0.106684932656     1.007825032230

  Basis Set: AUG-CC-PVTZ
    Blend: AUG-CC-PVTZ
  Basis Set: (AUG-CC-PVTZ AUX)
    Blend: AUG-CC-PVTZ-JKFIT
	 Reference Energy          =    -328.7398258321505864 [Eh]
	 Singles Energy            =      -0.0000000000000000 [Eh]
	 Same-Spin Energy          =      -0.3488806169325592 [Eh]
	 Opposite-Spin Energy      =      -1.2514816609340880 [Eh]
	 Correlation Energy        =      -1.6003622778666471 [Eh]
	 Total Energy              =    -330.3401881100172091 [Eh]

	 ================> DF-SCS-MP2 Energies <==================
	-----------------------------------------------------------
	 SCS Same-Spin Scale       =       0.3333333333333333 [-]
	 SCS Opposite-Spin Scale   =       1.2000000000000000 [-]
	 SCS Same-Spin Energy      =      -0.1162935389775197 [Eh]
	 SCS Opposite-Spin Energy  =      -1.5017779931209054 [Eh]
	 SCS Correlation Energy    =      -1.6180715320984251 [Eh]
	 SCS Total Energy          =    -330.3578973642490269 [Eh]
	-----------------------------------------------------------

  Dipole Moment: [D]
     X:    -4.1297      Y:     0.0792      Z:    -0.9519     Total:     4.2387

*** Psi4 exiting successfully. Buy a developer a beer!
