                               Psi4 1.4a3.dev225

  ==> Input File <==

--------------------------------------------------------------------------
#psi4
#
memory 32 gb

molecule  {
1 1
  N       -1.4549350    -0.0063160    -0.3913190
  C        0.7700580    -0.6819900     0.3309590
  C        0.8387740     0.6929140    -0.3473660
  C       -0.5331902    -1.2173091    -0.1169146
  C       -0.5771770     1.2100060    -0.1498930
  C        1.9243020    -1.6239510     0.0114420
  C        1.8934400     1.6361940     0.2164580
  C       -2.7287170     0.0116090     0.3933420
  H        0.7287260    -0.5174670     1.4168530
  H        1.0195210     0.5454130    -1.4226110
  H       -1.7088400    -0.0087310    -1.3861360
  H       -0.4895840    -1.7781730    -1.0771710
  H       -1.0806180    -1.8736500     0.5969550
  H       -0.7401010     1.5214000     0.8863980
  H       -0.8919120     2.0130950    -0.8209550
  H        2.8677010    -1.2131930     0.3775700
  H        1.7829480    -2.5983540     0.4871410
  H        2.0117000    -1.7770280    -1.0688530
  H        2.8946680     1.2288240     0.0607940
  H        1.8539810     2.6122500    -0.2745750
  H        1.7463830     1.7834510     1.2910380
  H       -2.4748400    -0.0372670     1.4518960
  H       -3.2625880     0.9370400     0.1753330
  H       -3.3330800    -0.8496000     0.1082720
units angstrom
no_reorient  #important for SAPT in psi4, default
symmetry c1  #important for SAPT in psi4, default
}

set PROPERTIES_ORIGIN ["COM"]
properties('MP2/aug-cc-pvtz', properties = ['dipole'])
--------------------------------------------------------------------------

    Molecular point group: c1
  Charge       = 1
  Multiplicity = 1
  Basis Set: AUG-CC-PVTZ
    Blend: AUG-CC-PVTZ
  Basis Set: (AUG-CC-PVTZ AUX)
    Blend: AUG-CC-PVTZ-JKFIT

    Orbital Energies [Eh]
    ---------------------

    Doubly Occupied:

       1A    -15.850739     2A    -11.449407     3A    -11.448584
       4A    -11.445144     5A    -11.391433     6A    -11.387737
       7A    -11.353670     8A    -11.352925     9A     -1.487336
      10A     -1.277383    11A     -1.195315    12A     -1.142010
      13A     -1.093110    14A     -1.066618    15A     -0.986490
      16A     -0.940157    17A     -0.903575    18A     -0.844812
      19A     -0.820808    20A     -0.784897    21A     -0.762735
      22A     -0.758390    23A     -0.735782    24A     -0.710267
      25A     -0.701110    26A     -0.695170    27A     -0.676769
      28A     -0.664101    29A     -0.646153    30A     -0.633617
      31A     -0.623276    32A     -0.603731

  @DF-RHF Final Energy:  -328.75083276979217

   => Energetics <=

    Nuclear Repulsion Energy =            425.0350383823505354
    One-Electron Energy =               -1274.7052405876486318
    Two-Electron Energy =                 520.9193694355059279
    Total Energy =                       -328.7508327697921686
  Basis Set: (AUG-CC-PVTZ AUX)
    Blend: AUG-CC-PVTZ-RI
    Molecular point group: c1

    Geometry (in Angstrom), charge = 1, multiplicity = 1:

       Center              X                  Y                   Z               Mass
    ------------   -----------------  -----------------  -----------------  -----------------
         N           -1.451496859540    -0.008323807122    -0.385929311580    14.003074004430
         C            0.773496140460    -0.683997807122     0.336348688420    12.000000000000
         C            0.842212140460     0.690906192878    -0.341976311580    12.000000000000
         C           -0.529752059540    -1.219316907122    -0.111524911580    12.000000000000
         C           -0.573738859540     1.207998192878    -0.144503311580    12.000000000000
         C            1.927740140460    -1.625958807122     0.016831688420    12.000000000000
         C            1.896878140460     1.634186192878     0.221847688420    12.000000000000
         C           -2.725278859540     0.009601192878     0.398731688420    12.000000000000
         H            0.732164140460    -0.519474807122     1.422242688420     1.007825032230
         H            1.022959140460     0.543405192878    -1.417221311580     1.007825032230
         H           -1.705401859540    -0.010738807122    -1.380746311580     1.007825032230
         H           -0.486145859540    -1.780180807122    -1.071781311580     1.007825032230
         H           -1.077179859540    -1.875657807122     0.602344688420     1.007825032230
         H           -0.736662859540     1.519392192878     0.891787688420     1.007825032230
         H           -0.888473859540     2.011087192878    -0.815565311580     1.007825032230
         H            2.871139140460    -1.215200807122     0.382959688420     1.007825032230
         H            1.786386140460    -2.600361807122     0.492530688420     1.007825032230
         H            2.015138140460    -1.779035807122    -1.063463311580     1.007825032230
         H            2.898106140460     1.226816192878     0.066183688420     1.007825032230
         H            1.857419140460     2.610242192878    -0.269185311580     1.007825032230
         H            1.749821140460     1.781443192878     1.296427688420     1.007825032230
         H           -2.471401859540    -0.039274807122     1.457285688420     1.007825032230
         H           -3.259149859540     0.935032192878     0.180722688420     1.007825032230
         H           -3.329641859540    -0.851607807122     0.113661688420     1.007825032230

  Basis Set: AUG-CC-PVTZ
    Blend: AUG-CC-PVTZ
  Basis Set: (AUG-CC-PVTZ AUX)
    Blend: AUG-CC-PVTZ-JKFIT
	 Reference Energy          =    -328.7508327697921686 [Eh]
	 Singles Energy            =      -0.0000000000000000 [Eh]
	 Same-Spin Energy          =      -0.3483105491612699 [Eh]
	 Opposite-Spin Energy      =      -1.2504179944414744 [Eh]
	 Correlation Energy        =      -1.5987285436027443 [Eh]
	 Total Energy              =    -330.3495613133949291 [Eh]

	 ================> DF-SCS-MP2 Energies <==================
	-----------------------------------------------------------
	 SCS Same-Spin Scale       =       0.3333333333333333 [-]
	 SCS Opposite-Spin Scale   =       1.2000000000000000 [-]
	 SCS Same-Spin Energy      =      -0.1161035163870899 [Eh]
	 SCS Opposite-Spin Energy  =      -1.5005015933297692 [Eh]
	 SCS Correlation Energy    =      -1.6166051097168592 [Eh]
	 SCS Total Energy          =    -330.3674378795090547 [Eh]
	-----------------------------------------------------------

  Dipole Moment: [D]
     X:    -4.3259      Y:    -0.0146      Z:    -0.8628     Total:     4.4112

*** Psi4 exiting successfully. Buy a developer a beer!
