                               Psi4 1.4a3.dev225

  ==> Input File <==

--------------------------------------------------------------------------
#psi4
#
memory 32 gb

molecule  {
1 1
  N       -1.4549350    -0.0063160    -0.3913190
  C        0.7700580    -0.6819900     0.3309590
  C        0.8387740     0.6929140    -0.3473660
  C       -0.5772670    -1.2354140    -0.1320620
  C       -0.5771770     1.2100060    -0.1498930
  C        1.9243020    -1.6239510     0.0114420
  C        1.8934400     1.6361940     0.2164580
  C       -2.7287170     0.0116090     0.3933420
  H        0.7287260    -0.5174670     1.4168530
  H        1.0195210     0.5454130    -1.4226110
  H       -1.7088400    -0.0087310    -1.3861360
  H       -0.4895840    -1.7781730    -1.0771710
  H       -1.0806180    -1.8736500     0.5969550
  H       -0.7401010     1.5214000     0.8863980
  H       -0.8919120     2.0130950    -0.8209550
  H        2.8677010    -1.2131930     0.3775700
  H        1.7829480    -2.5983540     0.4871410
  H        2.0117000    -1.7770280    -1.0688530
  H        2.8946680     1.2288240     0.0607940
  H        1.8539810     2.6122500    -0.2745750
  H        1.7732538     1.7565436     1.0946864
  H       -2.4748400    -0.0372670     1.4518960
  H       -3.2625880     0.9370400     0.1753330
  H       -3.3330800    -0.8496000     0.1082720
units angstrom
no_reorient  #important for SAPT in psi4, default
symmetry c1  #important for SAPT in psi4, default
}

set PROPERTIES_ORIGIN ["COM"]
properties('MP2/aug-cc-pvtz', properties = ['dipole'])
--------------------------------------------------------------------------

    Molecular point group: c1
  Charge       = 1
  Multiplicity = 1
  Basis Set: AUG-CC-PVTZ
    Blend: AUG-CC-PVTZ
  Basis Set: (AUG-CC-PVTZ AUX)
    Blend: AUG-CC-PVTZ-JKFIT

    Orbital Energies [Eh]
    ---------------------

    Doubly Occupied:

       1A    -15.852137     2A    -11.449032     3A    -11.446193
       4A    -11.445727     5A    -11.390440     6A    -11.389178
       7A    -11.352394     8A    -11.328316     9A     -1.489408
      10A     -1.273428    11A     -1.195292    12A     -1.145660
      13A     -1.105392    14A     -1.069118    15A     -0.993485
      16A     -0.943381    17A     -0.904035    18A     -0.845770
      19A     -0.824871    20A     -0.787178    21A     -0.763114
      22A     -0.755268    23A     -0.735371    24A     -0.729343
      25A     -0.711055    26A     -0.697446    27A     -0.675836
      28A     -0.662745    29A     -0.657490    30A     -0.627989
      31A     -0.624510    32A     -0.602868

  @DF-RHF Final Energy:  -328.72022720978617

   => Energetics <=

    Nuclear Repulsion Energy =            425.4475200062631188
    One-Electron Energy =               -1275.3885559822981577
    Two-Electron Energy =                 521.2208087662488651
    Total Energy =                       -328.7202272097861169
  Basis Set: (AUG-CC-PVTZ AUX)
    Blend: AUG-CC-PVTZ-RI
    Molecular point group: c1

    Geometry (in Angstrom), charge = 1, multiplicity = 1:

       Center              X                  Y                   Z               Mass
    ------------   -----------------  -----------------  -----------------  -----------------
         N           -1.447099697336    -0.006182560772    -0.382602731386    14.003074004430
         C            0.777893302664    -0.681856560772     0.339675268614    12.000000000000
         C            0.846609302664     0.693047439228    -0.338649731386    12.000000000000
         C           -0.569431697336    -1.235280560772    -0.123345731386    12.000000000000
         C           -0.569341697336     1.210139439228    -0.141176731386    12.000000000000
         C            1.932137302664    -1.623817560772     0.020158268614    12.000000000000
         C            1.901275302664     1.636327439228     0.225174268614    12.000000000000
         C           -2.720881697336     0.011742439228     0.402058268614    12.000000000000
         H            0.736561302664    -0.517333560772     1.425569268614     1.007825032230
         H            1.027356302664     0.545546439228    -1.413894731386     1.007825032230
         H           -1.701004697336    -0.008597560772    -1.377419731386     1.007825032230
         H           -0.481748697336    -1.778039560772    -1.068454731386     1.007825032230
         H           -1.072782697336    -1.873516560772     0.605671268614     1.007825032230
         H           -0.732265697336     1.521533439228     0.895114268614     1.007825032230
         H           -0.884076697336     2.013228439228    -0.812238731386     1.007825032230
         H            2.875536302664    -1.213059560772     0.386286268614     1.007825032230
         H            1.790783302664    -2.598220560772     0.495857268614     1.007825032230
         H            2.019535302664    -1.776894560772    -1.060136731386     1.007825032230
         H            2.902503302664     1.228957439228     0.069510268614     1.007825032230
         H            1.861816302664     2.612383439228    -0.265858731386     1.007825032230
         H            1.781089102664     1.756677039228     1.103402668614     1.007825032230
         H           -2.467004697336    -0.037133560772     1.460612268614     1.007825032230
         H           -3.254752697336     0.937173439228     0.184049268614     1.007825032230
         H           -3.325244697336    -0.849466560772     0.116988268614     1.007825032230

  Basis Set: AUG-CC-PVTZ
    Blend: AUG-CC-PVTZ
  Basis Set: (AUG-CC-PVTZ AUX)
    Blend: AUG-CC-PVTZ-JKFIT
	 Reference Energy          =    -328.7202272097861737 [Eh]
	 Singles Energy            =      -0.0000000000000000 [Eh]
	 Same-Spin Energy          =      -0.3478757808300869 [Eh]
	 Opposite-Spin Energy      =      -1.2492535186958971 [Eh]
	 Correlation Energy        =      -1.5971292995259838 [Eh]
	 Total Energy              =    -330.3173565093121624 [Eh]

	 ================> DF-SCS-MP2 Energies <==================
	-----------------------------------------------------------
	 SCS Same-Spin Scale       =       0.3333333333333333 [-]
	 SCS Opposite-Spin Scale   =       1.2000000000000000 [-]
	 SCS Same-Spin Energy      =      -0.1159585936100289 [Eh]
	 SCS Opposite-Spin Energy  =      -1.4991042224350764 [Eh]
	 SCS Correlation Energy    =      -1.6150628160451053 [Eh]
	 SCS Total Energy          =    -330.3352900258312843 [Eh]
	-----------------------------------------------------------

  Dipole Moment: [D]
     X:    -4.3669      Y:     0.0124      Z:    -0.8075     Total:     4.4410

*** Psi4 exiting successfully. Buy a developer a beer!
