                               Psi4 1.4a3.dev225

  ==> Input File <==

--------------------------------------------------------------------------
#psi4
#
memory 32 gb

molecule  {
1 1
  N       -1.4549350    -0.0063160    -0.3913190
  C        0.7700580    -0.6819900     0.3309590
  C        0.8387740     0.6929140    -0.3473660
  C       -0.5772670    -1.2354140    -0.1320620
  C       -0.5771770     1.2100060    -0.1498930
  C        1.9243020    -1.6239510     0.0114420
  C        1.8934400     1.6361940     0.2164580
  C       -2.7803518     0.0116980     0.3025689
  H        0.7287260    -0.5174670     1.4168530
  H        1.0195210     0.5454130    -1.4226110
  H       -1.7088400    -0.0087310    -1.3861360
  H       -0.4895840    -1.7781730    -1.0771710
  H       -1.0806180    -1.8736500     0.5969550
  H       -0.7401010     1.5214000     0.8863980
  H       -0.8919120     2.0130950    -0.8209550
  H        2.8677010    -1.2131930     0.3775700
  H        1.7829480    -2.5983540     0.4871410
  H        2.0117000    -1.7770280    -1.0688530
  H        2.8946680     1.2288240     0.0607940
  H        1.8539810     2.6122500    -0.2745750
  H        1.7463830     1.7834510     1.2910380
  H       -2.4748400    -0.0372670     1.4518960
  H       -3.2625880     0.9370400     0.1753330
  H       -3.3330800    -0.8496000     0.1082720
units angstrom
no_reorient  #important for SAPT in psi4, default
symmetry c1  #important for SAPT in psi4, default
}

set PROPERTIES_ORIGIN ["COM"]
properties('MP2/aug-cc-pvtz', properties = ['dipole'])
--------------------------------------------------------------------------

    Molecular point group: c1
  Charge       = 1
  Multiplicity = 1
  Basis Set: AUG-CC-PVTZ
    Blend: AUG-CC-PVTZ
  Basis Set: (AUG-CC-PVTZ AUX)
    Blend: AUG-CC-PVTZ-JKFIT

    Orbital Energies [Eh]
    ---------------------

    Doubly Occupied:

       1A    -15.852578     2A    -11.450546     3A    -11.447017
       4A    -11.446501     5A    -11.391405     6A    -11.390552
       7A    -11.353087     8A    -11.352719     9A     -1.489595
      10A     -1.273315    11A     -1.193361    12A     -1.144001
      13A     -1.094992    14A     -1.063548    15A     -0.987514
      16A     -0.940601    17A     -0.902956    18A     -0.848083
      19A     -0.828972    20A     -0.788450    21A     -0.773164
      22A     -0.746844    23A     -0.725864    24A     -0.710839
      25A     -0.702852    26A     -0.691331    27A     -0.676591
      28A     -0.664473    29A     -0.647717    30A     -0.629338
      31A     -0.623216    32A     -0.603238

  @DF-RHF Final Energy:  -328.74259057438195

   => Energetics <=

    Nuclear Repulsion Energy =            424.0828932293993034
    One-Electron Energy =               -1272.7804436424191863
    Two-Electron Energy =                 519.9549598386379330
    Total Energy =                       -328.7425905743818930
  Basis Set: (AUG-CC-PVTZ AUX)
    Blend: AUG-CC-PVTZ-RI
    Molecular point group: c1

    Geometry (in Angstrom), charge = 1, multiplicity = 1:

       Center              X                  Y                   Z               Mass
    ------------   -----------------  -----------------  -----------------  -----------------
         N           -1.441433277971    -0.006429528067    -0.374792316779    14.003074004430
         C            0.783559722029    -0.682103528067     0.347485683221    12.000000000000
         C            0.852275722029     0.692800471933    -0.330839316779    12.000000000000
         C           -0.563765277971    -1.235527528067    -0.115535316779    12.000000000000
         C           -0.563675277971     1.209892471933    -0.133366316779    12.000000000000
         C            1.937803722029    -1.624064528067     0.027968683221    12.000000000000
         C            1.906941722029     1.636080471933     0.232984683221    12.000000000000
         C           -2.766850077971     0.011584471933     0.319095583221    12.000000000000
         H            0.742227722029    -0.517580528067     1.433379683221     1.007825032230
         H            1.033022722029     0.545299471933    -1.406084316779     1.007825032230
         H           -1.695338277971    -0.008844528067    -1.369609316779     1.007825032230
         H           -0.476082277971    -1.778286528067    -1.060644316779     1.007825032230
         H           -1.067116277971    -1.873763528067     0.613481683221     1.007825032230
         H           -0.726599277971     1.521286471933     0.902924683221     1.007825032230
         H           -0.878410277971     2.012981471933    -0.804428316779     1.007825032230
         H            2.881202722029    -1.213306528067     0.394096683221     1.007825032230
         H            1.796449722029    -2.598467528067     0.503667683221     1.007825032230
         H            2.025201722029    -1.777141528067    -1.052326316779     1.007825032230
         H            2.908169722029     1.228710471933     0.077320683221     1.007825032230
         H            1.867482722029     2.612136471933    -0.258048316779     1.007825032230
         H            1.759884722029     1.783337471933     1.307564683221     1.007825032230
         H           -2.461338277971    -0.037380528067     1.468422683221     1.007825032230
         H           -3.249086277971     0.936926471933     0.191859683221     1.007825032230
         H           -3.319578277971    -0.849713528067     0.124798683221     1.007825032230

  Basis Set: AUG-CC-PVTZ
    Blend: AUG-CC-PVTZ
  Basis Set: (AUG-CC-PVTZ AUX)
    Blend: AUG-CC-PVTZ-JKFIT
	 Reference Energy          =    -328.7425905743819499 [Eh]
	 Singles Energy            =      -0.0000000000000000 [Eh]
	 Same-Spin Energy          =      -0.3480116852105537 [Eh]
	 Opposite-Spin Energy      =      -1.2503090247269260 [Eh]
	 Correlation Energy        =      -1.5983207099374797 [Eh]
	 Total Energy              =    -330.3409112843194180 [Eh]

	 ================> DF-SCS-MP2 Energies <==================
	-----------------------------------------------------------
	 SCS Same-Spin Scale       =       0.3333333333333333 [-]
	 SCS Opposite-Spin Scale   =       1.2000000000000000 [-]
	 SCS Same-Spin Energy      =      -0.1160038950701846 [Eh]
	 SCS Opposite-Spin Energy  =      -1.5003708296723111 [Eh]
	 SCS Correlation Energy    =      -1.6163747247424955 [Eh]
	 SCS Total Energy          =    -330.3589652991244634 [Eh]
	-----------------------------------------------------------

  Dipole Moment: [D]
     X:    -4.3190      Y:     0.0027      Z:    -0.8797     Total:     4.4076

*** Psi4 exiting successfully. Buy a developer a beer!
