                               Psi4 1.4a3.dev225

  ==> Input File <==

--------------------------------------------------------------------------
#psi4
#
memory 32 gb

molecule  {
1 1
  N       -1.4549350    -0.0063160    -0.3913190
  C        0.7700580    -0.6819900     0.3309590
  C        0.8387740     0.6929140    -0.3473660
  C       -0.5772670    -1.2354140    -0.1320620
  C       -0.5771770     1.2100060    -0.1498930
  C        1.9243020    -1.6239510     0.0114420
  C        1.8934400     1.6361940     0.2164580
  C       -2.7287170     0.0116090     0.3933420
  H        0.7287260    -0.5174670     1.4168530
  H        1.0195210     0.5454130    -1.4226110
  H       -1.7088400    -0.0087310    -1.3861360
  H       -0.4895840    -1.7781730    -1.0771710
  H       -1.0806180    -1.8736500     0.5969550
  H       -0.7401010     1.5214000     0.8863980
  H       -0.8919120     2.0130950    -0.8209550
  H        2.8677010    -1.2131930     0.3775700
  H        1.7829480    -2.5983540     0.4871410
  H        2.0156923    -1.7840205    -1.1182004
  H        2.8946680     1.2288240     0.0607940
  H        1.8539810     2.6122500    -0.2745750
  H        1.7463830     1.7834510     1.2910380
  H       -2.4748400    -0.0372670     1.4518960
  H       -3.2625880     0.9370400     0.1753330
  H       -3.3330800    -0.8496000     0.1082720
units angstrom
no_reorient  #important for SAPT in psi4, default
symmetry c1  #important for SAPT in psi4, default
}

set PROPERTIES_ORIGIN ["COM"]
properties('MP2/aug-cc-pvtz', properties = ['dipole'])
--------------------------------------------------------------------------

    Molecular point group: c1
  Charge       = 1
  Multiplicity = 1
  Basis Set: AUG-CC-PVTZ
    Blend: AUG-CC-PVTZ
  Basis Set: (AUG-CC-PVTZ AUX)
    Blend: AUG-CC-PVTZ-JKFIT

    Orbital Energies [Eh]
    ---------------------

    Doubly Occupied:

       1A    -15.852167     2A    -11.449037     3A    -11.446204
       4A    -11.445703     5A    -11.391127     6A    -11.390512
       7A    -11.358426     8A    -11.352857     9A     -1.489462
      10A     -1.271993    11A     -1.192906    12A     -1.142372
      13A     -1.093561    14A     -1.064351    15A     -0.986576
      16A     -0.938765    17A     -0.902719    18A     -0.844680
      19A     -0.822071    20A     -0.786093    21A     -0.763337
      22A     -0.754597    23A     -0.735497    24A     -0.714926
      25A     -0.700577    26A     -0.693614    27A     -0.676703
      28A     -0.662914    29A     -0.644723    30A     -0.628046
      31A     -0.621834    32A     -0.602857

  @DF-RHF Final Energy:  -328.75214681783700

   => Energetics <=

    Nuclear Repulsion Energy =            424.2812260333437848
    One-Electron Energy =               -1273.2243319256704126
    Two-Electron Energy =                 520.1909590744896832
    Total Energy =                       -328.7521468178370014
  Basis Set: (AUG-CC-PVTZ AUX)
    Blend: AUG-CC-PVTZ-RI
    Molecular point group: c1

    Geometry (in Angstrom), charge = 1, multiplicity = 1:

       Center              X                  Y                   Z               Mass
    ------------   -----------------  -----------------  -----------------  -----------------
         N           -1.446897665674    -0.006358421967    -0.383900871687    14.003074004430
         C            0.778095334326    -0.682032421967     0.338377128313    12.000000000000
         C            0.846811334326     0.692871578033    -0.339947871687    12.000000000000
         C           -0.569229665674    -1.235456421967    -0.124643871687    12.000000000000
         C           -0.569139665674     1.209963578033    -0.142474871687    12.000000000000
         C            1.932339334326    -1.623993421967     0.018860128313    12.000000000000
         C            1.901477334326     1.636151578033     0.223876128313    12.000000000000
         C           -2.720679665674     0.011566578033     0.400760128313    12.000000000000
         H            0.736763334326    -0.517509421967     1.424271128313     1.007825032230
         H            1.027558334326     0.545370578033    -1.415192871687     1.007825032230
         H           -1.700802665674    -0.008773421967    -1.378717871687     1.007825032230
         H           -0.481546665674    -1.778215421967    -1.069752871687     1.007825032230
         H           -1.072580665674    -1.873692421967     0.604373128313     1.007825032230
         H           -0.732063665674     1.521357578033     0.893816128313     1.007825032230
         H           -0.883874665674     2.013052578033    -0.813536871687     1.007825032230
         H            2.875738334326    -1.213235421967     0.384988128313     1.007825032230
         H            1.790985334326    -2.598396421967     0.494559128313     1.007825032230
         H            2.023729634326    -1.784062921967    -1.110782271687     1.007825032230
         H            2.902705334326     1.228781578033     0.068212128313     1.007825032230
         H            1.862018334326     2.612207578033    -0.267156871687     1.007825032230
         H            1.754420334326     1.783408578033     1.298456128313     1.007825032230
         H           -2.466802665674    -0.037309421967     1.459314128313     1.007825032230
         H           -3.254550665674     0.936997578033     0.182751128313     1.007825032230
         H           -3.325042665674    -0.849642421967     0.115690128313     1.007825032230

  Basis Set: AUG-CC-PVTZ
    Blend: AUG-CC-PVTZ
  Basis Set: (AUG-CC-PVTZ AUX)
    Blend: AUG-CC-PVTZ-JKFIT
	 Reference Energy          =    -328.7521468178370014 [Eh]
	 Singles Energy            =      -0.0000000000000000 [Eh]
	 Same-Spin Energy          =      -0.3478101508501434 [Eh]
	 Opposite-Spin Energy      =      -1.2502010909468479 [Eh]
	 Correlation Energy        =      -1.5980112417969914 [Eh]
	 Total Energy              =    -330.3501580596339977 [Eh]

	 ================> DF-SCS-MP2 Energies <==================
	-----------------------------------------------------------
	 SCS Same-Spin Scale       =       0.3333333333333333 [-]
	 SCS Opposite-Spin Scale   =       1.2000000000000000 [-]
	 SCS Same-Spin Energy      =      -0.1159367169500478 [Eh]
	 SCS Opposite-Spin Energy  =      -1.5002413091362174 [Eh]
	 SCS Correlation Energy    =      -1.6161780260862653 [Eh]
	 SCS Total Energy          =    -330.3683248439232898 [Eh]
	-----------------------------------------------------------

  Dipole Moment: [D]
     X:    -4.3584      Y:     0.0064      Z:    -0.8448     Total:     4.4395

*** Psi4 exiting successfully. Buy a developer a beer!
