                               Psi4 1.4a3.dev225

  ==> Input File <==

--------------------------------------------------------------------------
#psi4
#
memory 32 gb

molecule  {
1 1
  N       -1.4549350    -0.0063160    -0.3913190
  C        0.7700580    -0.6819900     0.3309590
  C        0.8387740     0.6929140    -0.3473660
  C       -0.5772670    -1.2354140    -0.1320620
  C       -0.5771770     1.2100060    -0.1498930
  C        1.9243020    -1.6239510     0.0114420
  C        1.8934400     1.6361940     0.2164580
  C       -2.7287170     0.0116090     0.3933420
  H        0.7287260    -0.5174670     1.4168530
  H        1.0195210     0.5454130    -1.4226110
  H       -1.7088400    -0.0087310    -1.3861360
  H       -0.4895840    -1.7781730    -1.0771710
  H       -1.0806180    -1.8736500     0.5969550
  H       -0.7401010     1.5214000     0.8863980
  H       -0.8919120     2.0130950    -0.8209550
  H        2.8677010    -1.2131930     0.3775700
  H        1.7829480    -2.5983540     0.4871410
  H        2.0117000    -1.7770280    -1.0688530
  H        2.8946680     1.2288240     0.0607940
  H        1.8539810     2.6122500    -0.2745750
  H        1.7531007     1.7767242     1.2419501
  H       -2.4748400    -0.0372670     1.4518960
  H       -3.2625880     0.9370400     0.1753330
  H       -3.3330800    -0.8496000     0.1082720
units angstrom
no_reorient  #important for SAPT in psi4, default
symmetry c1  #important for SAPT in psi4, default
}

set PROPERTIES_ORIGIN ["COM"]
properties('MP2/aug-cc-pvtz', properties = ['dipole'])
--------------------------------------------------------------------------

    Molecular point group: c1
  Charge       = 1
  Multiplicity = 1
  Basis Set: AUG-CC-PVTZ
    Blend: AUG-CC-PVTZ
  Basis Set: (AUG-CC-PVTZ AUX)
    Blend: AUG-CC-PVTZ-JKFIT

    Orbital Energies [Eh]
    ---------------------

    Doubly Occupied:

       1A    -15.852127     2A    -11.449006     3A    -11.446181
       4A    -11.445665     5A    -11.390605     6A    -11.389994
       7A    -11.352451     8A    -11.346724     9A     -1.489410
      10A     -1.272266    11A     -1.193472    12A     -1.143073
      13A     -1.096645    14A     -1.066334    15A     -0.988496
      16A     -0.940427    17A     -0.903471    18A     -0.844896
      19A     -0.822609    20A     -0.786493    21A     -0.763152
      22A     -0.754894    23A     -0.735174    24A     -0.716765
      25A     -0.705013    26A     -0.697384    27A     -0.676125
      28A     -0.662772    29A     -0.650831    30A     -0.628249
      31A     -0.623622    32A     -0.602959

  @DF-RHF Final Energy:  -328.75320554280592

   => Energetics <=

    Nuclear Repulsion Energy =            424.7039300823751091
    One-Electron Energy =               -1274.0397074698564666
    Two-Electron Energy =                 520.5825718446753854
    Total Energy =                       -328.7532055428059721
  Basis Set: (AUG-CC-PVTZ AUX)
    Blend: AUG-CC-PVTZ-RI
    Molecular point group: c1

    Geometry (in Angstrom), charge = 1, multiplicity = 1:

       Center              X                  Y                   Z               Mass
    ------------   -----------------  -----------------  -----------------  -----------------
         N           -1.446921732684    -0.006360768267    -0.383903163236    14.003074004430
         C            0.778071267316    -0.682034768267     0.338374836764    12.000000000000
         C            0.846787267316     0.692869231733    -0.339950163236    12.000000000000
         C           -0.569253732684    -1.235458768267    -0.124646163236    12.000000000000
         C           -0.569163732684     1.209961231733    -0.142477163236    12.000000000000
         C            1.932315267316    -1.623995768267     0.018857836764    12.000000000000
         C            1.901453267316     1.636149231733     0.223873836764    12.000000000000
         C           -2.720703732684     0.011564231733     0.400757836764    12.000000000000
         H            0.736739267316    -0.517511768267     1.424268836764     1.007825032230
         H            1.027534267316     0.545368231733    -1.415195163236     1.007825032230
         H           -1.700826732684    -0.008775768267    -1.378720163236     1.007825032230
         H           -0.481570732684    -1.778217768267    -1.069755163236     1.007825032230
         H           -1.072604732684    -1.873694768267     0.604370836764     1.007825032230
         H           -0.732087732684     1.521355231733     0.893813836764     1.007825032230
         H           -0.883898732684     2.013050231733    -0.813539163236     1.007825032230
         H            2.875714267316    -1.213237768267     0.384985836764     1.007825032230
         H            1.790961267316    -2.598398768267     0.494556836764     1.007825032230
         H            2.019713267316    -1.777072768267    -1.061437163236     1.007825032230
         H            2.902681267316     1.228779231733     0.068209836764     1.007825032230
         H            1.861994267316     2.612205231733    -0.267159163236     1.007825032230
         H            1.761113967316     1.776679431733     1.249365936764     1.007825032230
         H           -2.466826732684    -0.037311768267     1.459311836764     1.007825032230
         H           -3.254574732684     0.936995231733     0.182748836764     1.007825032230
         H           -3.325066732684    -0.849644768267     0.115687836764     1.007825032230

  Basis Set: AUG-CC-PVTZ
    Blend: AUG-CC-PVTZ
  Basis Set: (AUG-CC-PVTZ AUX)
    Blend: AUG-CC-PVTZ-JKFIT
	 Reference Energy          =    -328.7532055428059152 [Eh]
	 Singles Energy            =      -0.0000000000000000 [Eh]
	 Same-Spin Energy          =      -0.3478008297649972 [Eh]
	 Opposite-Spin Energy      =      -1.2495868990485441 [Eh]
	 Correlation Energy        =      -1.5973877288135414 [Eh]
	 Total Energy              =    -330.3505932716194593 [Eh]

	 ================> DF-SCS-MP2 Energies <==================
	-----------------------------------------------------------
	 SCS Same-Spin Scale       =       0.3333333333333333 [-]
	 SCS Opposite-Spin Scale   =       1.2000000000000000 [-]
	 SCS Same-Spin Energy      =      -0.1159336099216657 [Eh]
	 SCS Opposite-Spin Energy  =      -1.4995042788582529 [Eh]
	 SCS Correlation Energy    =      -1.6154378887799186 [Eh]
	 SCS Total Energy          =    -330.3686434315858378 [Eh]
	-----------------------------------------------------------

  Dipole Moment: [D]
     X:    -4.3588      Y:     0.0051      Z:    -0.8478     Total:     4.4405

*** Psi4 exiting successfully. Buy a developer a beer!
