                               Psi4 1.4a3.dev225

  ==> Input File <==

--------------------------------------------------------------------------
#psi4
#
memory 32 gb

molecule  {
1 1
  N       -1.4906676    -0.0256584    -0.3565344
  C        0.7700580    -0.6819900     0.3309590
  C        0.8387740     0.6929140    -0.3473660
  C       -0.5772670    -1.2354140    -0.1320620
  C       -0.5771770     1.2100060    -0.1498930
  C        1.9243020    -1.6239510     0.0114420
  C        1.8934400     1.6361940     0.2164580
  C       -2.7287170     0.0116090     0.3933420
  H        0.7287260    -0.5174670     1.4168530
  H        1.0195210     0.5454130    -1.4226110
  H       -1.7088400    -0.0087310    -1.3861360
  H       -0.4895840    -1.7781730    -1.0771710
  H       -1.0806180    -1.8736500     0.5969550
  H       -0.7401010     1.5214000     0.8863980
  H       -0.8919120     2.0130950    -0.8209550
  H        2.8677010    -1.2131930     0.3775700
  H        1.7829480    -2.5983540     0.4871410
  H        2.0117000    -1.7770280    -1.0688530
  H        2.8946680     1.2288240     0.0607940
  H        1.8539810     2.6122500    -0.2745750
  H        1.7463830     1.7834510     1.2910380
  H       -2.4748400    -0.0372670     1.4518960
  H       -3.2625880     0.9370400     0.1753330
  H       -3.3330800    -0.8496000     0.1082720
units angstrom
no_reorient  #important for SAPT in psi4, default
symmetry c1  #important for SAPT in psi4, default
}

set PROPERTIES_ORIGIN ["COM"]
properties('MP2/aug-cc-pvtz', properties = ['dipole'])
--------------------------------------------------------------------------

    Molecular point group: c1
  Charge       = 1
  Multiplicity = 1
  Basis Set: AUG-CC-PVTZ
    Blend: AUG-CC-PVTZ
  Basis Set: (AUG-CC-PVTZ AUX)
    Blend: AUG-CC-PVTZ-JKFIT

    Orbital Energies [Eh]
    ---------------------

    Doubly Occupied:

       1A    -15.852977     2A    -11.448879     3A    -11.446658
       4A    -11.444066     5A    -11.392318     6A    -11.391197
       7A    -11.354130     8A    -11.353157     9A     -1.489767
      10A     -1.275734    11A     -1.192284    12A     -1.145347
      13A     -1.094391    14A     -1.061176    15A     -0.986744
      16A     -0.940094    17A     -0.903319    18A     -0.845613
      19A     -0.826200    20A     -0.786331    21A     -0.764662
      22A     -0.756255    23A     -0.733429    24A     -0.709240
      25A     -0.702857    26A     -0.694665    27A     -0.676820
      28A     -0.664635    29A     -0.647974    30A     -0.629244
      31A     -0.623752    32A     -0.603790

  @DF-RHF Final Energy:  -328.75040639723227

   => Energetics <=

    Nuclear Repulsion Energy =            424.3272347971029035
    One-Electron Energy =               -1273.2798682667112189
    Two-Electron Energy =                 520.2022270723761039
    Total Energy =                       -328.7504063972322683
  Basis Set: (AUG-CC-PVTZ AUX)
    Blend: AUG-CC-PVTZ-RI
    Molecular point group: c1

    Geometry (in Angstrom), charge = 1, multiplicity = 1:

       Center              X                  Y                   Z               Mass
    ------------   -----------------  -----------------  -----------------  -----------------
         N           -1.478210766789    -0.023389336551    -0.353819969130    14.003074004430
         C            0.782514833211    -0.679720936551     0.333673430870    12.000000000000
         C            0.851230833211     0.695183063449    -0.344651569130    12.000000000000
         C           -0.564810166789    -1.233144936551    -0.129347569130    12.000000000000
         C           -0.564720166789     1.212275063449    -0.147178569130    12.000000000000
         C            1.936758833211    -1.621681936551     0.014156430870    12.000000000000
         C            1.905896833211     1.638463063449     0.219172430870    12.000000000000
         C           -2.716260166789     0.013878063449     0.396056430870    12.000000000000
         H            0.741182833211    -0.515197936551     1.419567430870     1.007825032230
         H            1.031977833211     0.547682063449    -1.419896569130     1.007825032230
         H           -1.696383166789    -0.006461936551    -1.383421569130     1.007825032230
         H           -0.477127166789    -1.775903936551    -1.074456569130     1.007825032230
         H           -1.068161166789    -1.871380936551     0.599669430870     1.007825032230
         H           -0.727644166789     1.523669063449     0.889112430870     1.007825032230
         H           -0.879455166789     2.015364063449    -0.818240569130     1.007825032230
         H            2.880157833211    -1.210923936551     0.380284430870     1.007825032230
         H            1.795404833211    -2.596084936551     0.489855430870     1.007825032230
         H            2.024156833211    -1.774758936551    -1.066138569130     1.007825032230
         H            2.907124833211     1.231093063449     0.063508430870     1.007825032230
         H            1.866437833211     2.614519063449    -0.271860569130     1.007825032230
         H            1.758839833211     1.785720063449     1.293752430870     1.007825032230
         H           -2.462383166789    -0.034997936551     1.454610430870     1.007825032230
         H           -3.250131166789     0.939309063449     0.178047430870     1.007825032230
         H           -3.320623166789    -0.847330936551     0.110986430870     1.007825032230

  Basis Set: AUG-CC-PVTZ
    Blend: AUG-CC-PVTZ
  Basis Set: (AUG-CC-PVTZ AUX)
    Blend: AUG-CC-PVTZ-JKFIT
	 Reference Energy          =    -328.7504063972322683 [Eh]
	 Singles Energy            =      -0.0000000000000000 [Eh]
	 Same-Spin Energy          =      -0.3482045920038335 [Eh]
	 Opposite-Spin Energy      =      -1.2504306299632906 [Eh]
	 Correlation Energy        =      -1.5986352219671240 [Eh]
	 Total Energy              =    -330.3490416191993972 [Eh]

	 ================> DF-SCS-MP2 Energies <==================
	-----------------------------------------------------------
	 SCS Same-Spin Scale       =       0.3333333333333333 [-]
	 SCS Opposite-Spin Scale   =       1.2000000000000000 [-]
	 SCS Same-Spin Energy      =      -0.1160681973346112 [Eh]
	 SCS Opposite-Spin Energy  =      -1.5005167559559487 [Eh]
	 SCS Correlation Energy    =      -1.6165849532905598 [Eh]
	 SCS Total Energy          =    -330.3669913505228237 [Eh]
	-----------------------------------------------------------

  Dipole Moment: [D]
     X:    -4.2421      Y:     0.0390      Z:    -0.9108     Total:     4.3390

*** Psi4 exiting successfully. Buy a developer a beer!
