                               Psi4 1.4a3.dev225

  ==> Input File <==

--------------------------------------------------------------------------
#psi4
#
memory 32 gb

molecule  {
1 1
  N       -1.4549350    -0.0063160    -0.3913190
  C        0.7700580    -0.6819900     0.3309590
  C        0.8387740     0.6929140    -0.3473660
  C       -0.5772670    -1.2354140    -0.1320620
  C       -0.5771770     1.2100060    -0.1498930
  C        1.9243020    -1.6239510     0.0114420
  C        1.8934400     1.6361940     0.2164580
  C       -2.7287170     0.0116090     0.3933420
  H        0.7287260    -0.5174670     1.4168530
  H        1.0195210     0.5454130    -1.4226110
  H       -1.7088400    -0.0087310    -1.3861360
  H       -0.4895840    -1.7781730    -1.0771710
  H       -1.0806180    -1.8736500     0.5969550
  H       -0.7401010     1.5214000     0.8863980
  H       -0.8919120     2.0130950    -0.8209550
  H        2.9048055    -1.2180371     0.2695512
  H        1.7829480    -2.5983540     0.4871410
  H        2.0117000    -1.7770280    -1.0688530
  H        2.8946680     1.2288240     0.0607940
  H        1.8539810     2.6122500    -0.2745750
  H        1.7463830     1.7834510     1.2910380
  H       -2.4748400    -0.0372670     1.4518960
  H       -3.2625880     0.9370400     0.1753330
  H       -3.3330800    -0.8496000     0.1082720
units angstrom
no_reorient  #important for SAPT in psi4, default
symmetry c1  #important for SAPT in psi4, default
}

set PROPERTIES_ORIGIN ["COM"]
properties('MP2/aug-cc-pvtz', properties = ['dipole'])
--------------------------------------------------------------------------

    Molecular point group: c1
  Charge       = 1
  Multiplicity = 1
  Basis Set: AUG-CC-PVTZ
    Blend: AUG-CC-PVTZ
  Basis Set: (AUG-CC-PVTZ AUX)
    Blend: AUG-CC-PVTZ-JKFIT

    Orbital Energies [Eh]
    ---------------------

    Doubly Occupied:

       1A    -15.852453     2A    -11.449163     3A    -11.446632
       4A    -11.445794     5A    -11.391264     6A    -11.390643
       7A    -11.352830     8A    -11.352190     9A     -1.489679
      10A     -1.272114    11A     -1.193227    12A     -1.142665
      13A     -1.094691    14A     -1.065655    15A     -0.987518
      16A     -0.940192    17A     -0.904169    18A     -0.844727
      19A     -0.822077    20A     -0.786395    21A     -0.763137
      22A     -0.754183    23A     -0.736501    24A     -0.714924
      25A     -0.701895    26A     -0.696153    27A     -0.677539
      28A     -0.662985    29A     -0.646679    30A     -0.627990
      31A     -0.621172    32A     -0.603934

  @DF-RHF Final Energy:  -328.75302196295831

   => Energetics <=

    Nuclear Repulsion Energy =            424.4361264611351885
    One-Electron Energy =               -1273.5159559333053494
    Two-Electron Energy =                 520.3268075092117897
    Total Energy =                       -328.7530219629583144
  Basis Set: (AUG-CC-PVTZ AUX)
    Blend: AUG-CC-PVTZ-RI
    Molecular point group: c1

    Geometry (in Angstrom), charge = 1, multiplicity = 1:

       Center              X                  Y                   Z               Mass
    ------------   -----------------  -----------------  -----------------  -----------------
         N           -1.447190067396    -0.006377393701    -0.383382766021    14.003074004430
         C            0.777802932604    -0.682051393701     0.338895233979    12.000000000000
         C            0.846518932604     0.692852606299    -0.339429766021    12.000000000000
         C           -0.569522067396    -1.235475393701    -0.124125766021    12.000000000000
         C           -0.569432067396     1.209944606299    -0.141956766021    12.000000000000
         C            1.932046932604    -1.624012393701     0.019378233979    12.000000000000
         C            1.901184932604     1.636132606299     0.224394233979    12.000000000000
         C           -2.720972067396     0.011547606299     0.401278233979    12.000000000000
         H            0.736470932604    -0.517528393701     1.424789233979     1.007825032230
         H            1.027265932604     0.545351606299    -1.414674766021     1.007825032230
         H           -1.701095067396    -0.008792393701    -1.378199766021     1.007825032230
         H           -0.481839067396    -1.778234393701    -1.069234766021     1.007825032230
         H           -1.072873067396    -1.873711393701     0.604891233979     1.007825032230
         H           -0.732356067396     1.521338606299     0.894334233979     1.007825032230
         H           -0.884167067396     2.013033606299    -0.813018766021     1.007825032230
         H            2.912550432604    -1.218098493701     0.277487433979     1.007825032230
         H            1.790692932604    -2.598415393701     0.495077233979     1.007825032230
         H            2.019444932604    -1.777089393701    -1.060916766021     1.007825032230
         H            2.902412932604     1.228762606299     0.068730233979     1.007825032230
         H            1.861725932604     2.612188606299    -0.266638766021     1.007825032230
         H            1.754127932604     1.783389606299     1.298974233979     1.007825032230
         H           -2.467095067396    -0.037328393701     1.459832233979     1.007825032230
         H           -3.254843067396     0.936978606299     0.183269233979     1.007825032230
         H           -3.325335067396    -0.849661393701     0.116208233979     1.007825032230

  Basis Set: AUG-CC-PVTZ
    Blend: AUG-CC-PVTZ
  Basis Set: (AUG-CC-PVTZ AUX)
    Blend: AUG-CC-PVTZ-JKFIT
	 Reference Energy          =    -328.7530219629583144 [Eh]
	 Singles Energy            =      -0.0000000000000000 [Eh]
	 Same-Spin Energy          =      -0.3478324615085212 [Eh]
	 Opposite-Spin Energy      =      -1.2498750229446565 [Eh]
	 Correlation Energy        =      -1.5977074844531776 [Eh]
	 Total Energy              =    -330.3507294474114815 [Eh]

	 ================> DF-SCS-MP2 Energies <==================
	-----------------------------------------------------------
	 SCS Same-Spin Scale       =       0.3333333333333333 [-]
	 SCS Opposite-Spin Scale   =       1.2000000000000000 [-]
	 SCS Same-Spin Energy      =      -0.1159441538361737 [Eh]
	 SCS Opposite-Spin Energy  =      -1.4998500275335878 [Eh]
	 SCS Correlation Energy    =      -1.6157941813697614 [Eh]
	 SCS Total Energy          =    -330.3688161443280933 [Eh]
	-----------------------------------------------------------

  Dipole Moment: [D]
     X:    -4.3542      Y:     0.0138      Z:    -0.8988     Total:     4.4460

*** Psi4 exiting successfully. Buy a developer a beer!
