                               Psi4 1.4a3.dev225

  ==> Input File <==

--------------------------------------------------------------------------
#psi4
#
memory 32 gb

molecule  {
1 1
  N       -1.4549350    -0.0063160    -0.3913190
  C        0.7700580    -0.6819900     0.3309590
  C        0.8387740     0.6929140    -0.3473660
  C       -0.5772670    -1.2354140    -0.1320620
  C       -0.5771770     1.2100060    -0.1498930
  C        1.9243020    -1.6239510     0.0114420
  C        1.8934400     1.6361940     0.2164580
  C       -2.7287170     0.0116090     0.3933420
  H        0.7287260    -0.5174670     1.4168530
  H        1.0195210     0.5454130    -1.4226110
  H       -1.7088400    -0.0087310    -1.3861360
  H       -0.4895840    -1.7781730    -1.0771710
  H       -1.0806180    -1.8736500     0.5969550
  H       -0.7401010     1.5214000     0.8863980
  H       -0.8919120     2.0130950    -0.8209550
  H        2.8677010    -1.2131930     0.3775700
  H        1.7829480    -2.5983540     0.4871410
  H        2.0117000    -1.7770280    -1.0688530
  H        2.8946680     1.2288240     0.0607940
  H        1.8467628     2.7907985    -0.3643989
  H        1.7463830     1.7834510     1.2910380
  H       -2.4748400    -0.0372670     1.4518960
  H       -3.2625880     0.9370400     0.1753330
  H       -3.3330800    -0.8496000     0.1082720
units angstrom
no_reorient  #important for SAPT in psi4, default
symmetry c1  #important for SAPT in psi4, default
}

set PROPERTIES_ORIGIN ["COM"]
properties('MP2/aug-cc-pvtz', properties = ['dipole'])
--------------------------------------------------------------------------

    Molecular point group: c1
  Charge       = 1
  Multiplicity = 1
  Basis Set: AUG-CC-PVTZ
    Blend: AUG-CC-PVTZ
  Basis Set: (AUG-CC-PVTZ AUX)
    Blend: AUG-CC-PVTZ-JKFIT

    Orbital Energies [Eh]
    ---------------------

    Doubly Occupied:

       1A    -15.852555     2A    -11.449350     3A    -11.447221
       4A    -11.445946     5A    -11.392762     6A    -11.391792
       7A    -11.374577     8A    -11.353586     9A     -1.489939
      10A     -1.272732    11A     -1.192836    12A     -1.142328
      13A     -1.090862    14A     -1.063182    15A     -0.983351
      16A     -0.939701    17A     -0.903582    18A     -0.844016
      19A     -0.822792    20A     -0.785661    21A     -0.763941
      22A     -0.752779    23A     -0.733155    24A     -0.714258
      25A     -0.701296    26A     -0.698046    27A     -0.665177
      28A     -0.656866    29A     -0.647324    30A     -0.629984
      31A     -0.623922    32A     -0.590114

  @DF-RHF Final Energy:  -328.73406536719904

   => Energetics <=

    Nuclear Repulsion Energy =            423.6759694364757820
    One-Electron Energy =               -1271.9888043436783391
    Two-Electron Energy =                 519.5787695400035773
    Total Energy =                       -328.7340653671990367
  Basis Set: (AUG-CC-PVTZ AUX)
    Blend: AUG-CC-PVTZ-RI
    Molecular point group: c1

    Geometry (in Angstrom), charge = 1, multiplicity = 1:

       Center              X                  Y                   Z               Mass
    ------------   -----------------  -----------------  -----------------  -----------------
         N           -1.446798669851    -0.007996866648    -0.383543438526    14.003074004430
         C            0.778194330149    -0.683670866648     0.338734561474    12.000000000000
         C            0.846910330149     0.691233133352    -0.339590438526    12.000000000000
         C           -0.569130669851    -1.237094866648    -0.124286438526    12.000000000000
         C           -0.569040669851     1.208325133352    -0.142117438526    12.000000000000
         C            1.932438330149    -1.625631866648     0.019217561474    12.000000000000
         C            1.901576330149     1.634513133352     0.224233561474    12.000000000000
         C           -2.720580669851     0.009928133352     0.401117561474    12.000000000000
         H            0.736862330149    -0.519147866648     1.424628561474     1.007825032230
         H            1.027657330149     0.543732133352    -1.414835438526     1.007825032230
         H           -1.700703669851    -0.010411866648    -1.378360438526     1.007825032230
         H           -0.481447669851    -1.779853866648    -1.069395438526     1.007825032230
         H           -1.072481669851    -1.875330866648     0.604730561474     1.007825032230
         H           -0.731964669851     1.519719133352     0.894173561474     1.007825032230
         H           -0.883775669851     2.011414133352    -0.813179438526     1.007825032230
         H            2.875837330149    -1.214873866648     0.385345561474     1.007825032230
         H            1.791084330149    -2.600034866648     0.494916561474     1.007825032230
         H            2.019836330149    -1.778708866648    -1.061077438526     1.007825032230
         H            2.902804330149     1.227143133352     0.068569561474     1.007825032230
         H            1.854899130149     2.789117633352    -0.356623338526     1.007825032230
         H            1.754519330149     1.781770133352     1.298813561474     1.007825032230
         H           -2.466703669851    -0.038947866648     1.459671561474     1.007825032230
         H           -3.254451669851     0.935359133352     0.183108561474     1.007825032230
         H           -3.324943669851    -0.851280866648     0.116047561474     1.007825032230

  Basis Set: AUG-CC-PVTZ
    Blend: AUG-CC-PVTZ
  Basis Set: (AUG-CC-PVTZ AUX)
    Blend: AUG-CC-PVTZ-JKFIT
	 Reference Energy          =    -328.7340653671990367 [Eh]
	 Singles Energy            =      -0.0000000000000000 [Eh]
	 Same-Spin Energy          =      -0.3477981821061938 [Eh]
	 Opposite-Spin Energy      =      -1.2514899381705917 [Eh]
	 Correlation Energy        =      -1.5992881202767855 [Eh]
	 Total Energy              =    -330.3333534874758470 [Eh]

	 ================> DF-SCS-MP2 Energies <==================
	-----------------------------------------------------------
	 SCS Same-Spin Scale       =       0.3333333333333333 [-]
	 SCS Opposite-Spin Scale   =       1.2000000000000000 [-]
	 SCS Same-Spin Energy      =      -0.1159327273687313 [Eh]
	 SCS Opposite-Spin Energy  =      -1.5017879258047100 [Eh]
	 SCS Correlation Energy    =      -1.6177206531734412 [Eh]
	 SCS Total Energy          =    -330.3517860203724581 [Eh]
	-----------------------------------------------------------

  Dipole Moment: [D]
     X:    -4.3716      Y:    -0.0968      Z:    -0.8393     Total:     4.4525

*** Psi4 exiting successfully. Buy a developer a beer!
