                               Psi4 1.4a3.dev225

  ==> Input File <==

--------------------------------------------------------------------------
#psi4
#
memory 32 gb

molecule  {
1 1
  N       -1.4277537    -0.0322097    -0.3538643
  C        0.7700580    -0.6819900     0.3309590
  C        0.8387740     0.6929140    -0.3473660
  C       -0.5772670    -1.2354140    -0.1320620
  C       -0.5771770     1.2100060    -0.1498930
  C        1.9243020    -1.6239510     0.0114420
  C        1.8934400     1.6361940     0.2164580
  C       -2.7287170     0.0116090     0.3933420
  H        0.7287260    -0.5174670     1.4168530
  H        1.0195210     0.5454130    -1.4226110
  H       -1.7088400    -0.0087310    -1.3861360
  H       -0.4895840    -1.7781730    -1.0771710
  H       -1.0806180    -1.8736500     0.5969550
  H       -0.7401010     1.5214000     0.8863980
  H       -0.8919120     2.0130950    -0.8209550
  H        2.8677010    -1.2131930     0.3775700
  H        1.7829480    -2.5983540     0.4871410
  H        2.0117000    -1.7770280    -1.0688530
  H        2.8946680     1.2288240     0.0607940
  H        1.8539810     2.6122500    -0.2745750
  H        1.7463830     1.7834510     1.2910380
  H       -2.4748400    -0.0372670     1.4518960
  H       -3.2625880     0.9370400     0.1753330
  H       -3.3330800    -0.8496000     0.1082720
units angstrom
no_reorient  #important for SAPT in psi4, default
symmetry c1  #important for SAPT in psi4, default
}

set PROPERTIES_ORIGIN ["COM"]
properties('MP2/aug-cc-pvtz', properties = ['dipole'])
--------------------------------------------------------------------------

    Molecular point group: c1
  Charge       = 1
  Multiplicity = 1
  Basis Set: AUG-CC-PVTZ
    Blend: AUG-CC-PVTZ
  Basis Set: (AUG-CC-PVTZ AUX)
    Blend: AUG-CC-PVTZ-JKFIT

    Orbital Energies [Eh]
    ---------------------

    Doubly Occupied:

       1A    -15.855798     2A    -11.450341     3A    -11.446135
       4A    -11.442570     5A    -11.390398     6A    -11.389370
       7A    -11.352519     8A    -11.351610     9A     -1.492727
      10A     -1.270758    11A     -1.195888    12A     -1.144167
      13A     -1.096680    14A     -1.058635    15A     -0.984515
      16A     -0.940829    17A     -0.903720    18A     -0.847027
      19A     -0.822529    20A     -0.785499    21A     -0.763687
      22A     -0.752190    23A     -0.735175    24A     -0.722193
      25A     -0.702008    26A     -0.690651    27A     -0.676266
      28A     -0.661947    29A     -0.646703    30A     -0.627818
      31A     -0.622389    32A     -0.602599

  @DF-RHF Final Energy:  -328.74962062040737

   => Energetics <=

    Nuclear Repulsion Energy =            425.1275605029725284
    One-Electron Energy =               -1274.9036814159505866
    Two-Electron Energy =                 521.0265002925707449
    Total Energy =                       -328.7496206204073133
  Basis Set: (AUG-CC-PVTZ AUX)
    Blend: AUG-CC-PVTZ-RI
    Molecular point group: c1

    Geometry (in Angstrom), charge = 1, multiplicity = 1:

       Center              X                  Y                   Z               Mass
    ------------   -----------------  -----------------  -----------------  -----------------
         N           -1.423016145831    -0.029136818750    -0.351477479514    14.003074004430
         C            0.774795554169    -0.678917118750     0.333345820486    12.000000000000
         C            0.843511554169     0.695986881250    -0.344979179514    12.000000000000
         C           -0.572529445831    -1.232341118750    -0.129675179514    12.000000000000
         C           -0.572439445831     1.213078881250    -0.147506179514    12.000000000000
         C            1.929039554169    -1.620878118750     0.013828820486    12.000000000000
         C            1.898177554169     1.639266881250     0.218844820486    12.000000000000
         C           -2.723979445831     0.014681881250     0.395728820486    12.000000000000
         H            0.733463554169    -0.514394118750     1.419239820486     1.007825032230
         H            1.024258554169     0.548485881250    -1.420224179514     1.007825032230
         H           -1.704102445831    -0.005658118750    -1.383749179514     1.007825032230
         H           -0.484846445831    -1.775100118750    -1.074784179514     1.007825032230
         H           -1.075880445831    -1.870577118750     0.599341820486     1.007825032230
         H           -0.735363445831     1.524472881250     0.888784820486     1.007825032230
         H           -0.887174445831     2.016167881250    -0.818568179514     1.007825032230
         H            2.872438554169    -1.210120118750     0.379956820486     1.007825032230
         H            1.787685554169    -2.595281118750     0.489527820486     1.007825032230
         H            2.016437554169    -1.773955118750    -1.066466179514     1.007825032230
         H            2.899405554169     1.231896881250     0.063180820486     1.007825032230
         H            1.858718554169     2.615322881250    -0.272188179514     1.007825032230
         H            1.751120554169     1.786523881250     1.293424820486     1.007825032230
         H           -2.470102445831    -0.034194118750     1.454282820486     1.007825032230
         H           -3.257850445831     0.940112881250     0.177719820486     1.007825032230
         H           -3.328342445831    -0.846527118750     0.110658820486     1.007825032230

  Basis Set: AUG-CC-PVTZ
    Blend: AUG-CC-PVTZ
  Basis Set: (AUG-CC-PVTZ AUX)
    Blend: AUG-CC-PVTZ-JKFIT
	 Reference Energy          =    -328.7496206204073701 [Eh]
	 Singles Energy            =      -0.0000000000000000 [Eh]
	 Same-Spin Energy          =      -0.3483850283864636 [Eh]
	 Opposite-Spin Energy      =      -1.2507796292396958 [Eh]
	 Correlation Energy        =      -1.5991646576261593 [Eh]
	 Total Energy              =    -330.3487852780335174 [Eh]

	 ================> DF-SCS-MP2 Energies <==================
	-----------------------------------------------------------
	 SCS Same-Spin Scale       =       0.3333333333333333 [-]
	 SCS Opposite-Spin Scale   =       1.2000000000000000 [-]
	 SCS Same-Spin Energy      =      -0.1161283427954879 [Eh]
	 SCS Opposite-Spin Energy  =      -1.5009355550876349 [Eh]
	 SCS Correlation Energy    =      -1.6170638978831227 [Eh]
	 SCS Total Energy          =    -330.3666845182904694 [Eh]
	-----------------------------------------------------------

  Dipole Moment: [D]
     X:    -4.4295      Y:     0.0539      Z:    -0.9110     Total:     4.5226

*** Psi4 exiting successfully. Buy a developer a beer!
