                               Psi4 1.4a3.dev225

  ==> Input File <==

--------------------------------------------------------------------------
#psi4
#
memory 32 gb

molecule  {
1 1
  N       -1.4549350    -0.0063160    -0.3913190
  C        0.7700580    -0.6819900     0.3309590
  C        0.8387740     0.6929140    -0.3473660
  C       -0.5772670    -1.2354140    -0.1320620
  C       -0.5771770     1.2100060    -0.1498930
  C        1.9243020    -1.6239510     0.0114420
  C        1.8934400     1.6361940     0.2164580
  C       -2.7287170     0.0116090     0.3933420
  H        0.7212047    -0.4875283     1.6144564
  H        1.0195210     0.5454130    -1.4226110
  H       -1.7088400    -0.0087310    -1.3861360
  H       -0.4895840    -1.7781730    -1.0771710
  H       -1.0806180    -1.8736500     0.5969550
  H       -0.7401010     1.5214000     0.8863980
  H       -0.8919120     2.0130950    -0.8209550
  H        2.8677010    -1.2131930     0.3775700
  H        1.7829480    -2.5983540     0.4871410
  H        2.0117000    -1.7770280    -1.0688530
  H        2.8946680     1.2288240     0.0607940
  H        1.8539810     2.6122500    -0.2745750
  H        1.7463830     1.7834510     1.2910380
  H       -2.4748400    -0.0372670     1.4518960
  H       -3.2625880     0.9370400     0.1753330
  H       -3.3330800    -0.8496000     0.1082720
units angstrom
no_reorient  #important for SAPT in psi4, default
symmetry c1  #important for SAPT in psi4, default
}

set PROPERTIES_ORIGIN ["COM"]
properties('MP2/aug-cc-pvtz', properties = ['dipole'])
--------------------------------------------------------------------------

    Molecular point group: c1
  Charge       = 1
  Multiplicity = 1
  Basis Set: AUG-CC-PVTZ
    Blend: AUG-CC-PVTZ
  Basis Set: (AUG-CC-PVTZ AUX)
    Blend: AUG-CC-PVTZ-JKFIT

    Orbital Energies [Eh]
    ---------------------

    Doubly Occupied:

       1A    -15.852646     2A    -11.448938     3A    -11.448252
       4A    -11.445736     5A    -11.412434     6A    -11.392928
       7A    -11.354791     8A    -11.352720     9A     -1.489813
      10A     -1.269687    11A     -1.192676    12A     -1.142376
      13A     -1.095083    14A     -1.065888    15A     -0.986857
      16A     -0.929139    17A     -0.899404    18A     -0.840624
      19A     -0.821238    20A     -0.783263    21A     -0.763143
      22A     -0.753289    23A     -0.735767    24A     -0.714314
      25A     -0.700864    26A     -0.696899    27A     -0.677000
      28A     -0.664416    29A     -0.644634    30A     -0.628987
      31A     -0.610526    32A     -0.596297

  @DF-RHF Final Energy:  -328.73450535132696

   => Energetics <=

    Nuclear Repulsion Energy =            423.5435691121155628
    One-Electron Energy =               -1271.7348874905640059
    Two-Electron Energy =                 519.4568130271214841
    Total Energy =                       -328.7345053513269022
  Basis Set: (AUG-CC-PVTZ AUX)
    Blend: AUG-CC-PVTZ-RI
    Molecular point group: c1

    Geometry (in Angstrom), charge = 1, multiplicity = 1:

       Center              X                  Y                   Z               Mass
    ------------   -----------------  -----------------  -----------------  -----------------
         N           -1.446795993285    -0.006684547881    -0.386081603841    14.003074004430
         C            0.778197006715    -0.682358547881     0.336196396159    12.000000000000
         C            0.846913006715     0.692545452119    -0.342128603841    12.000000000000
         C           -0.569127993285    -1.235782547881    -0.126824603841    12.000000000000
         C           -0.569037993285     1.209637452119    -0.144655603841    12.000000000000
         C            1.932441006715    -1.624319547881     0.016679396159    12.000000000000
         C            1.901579006715     1.635825452119     0.221695396159    12.000000000000
         C           -2.720577993285     0.011240452119     0.398579396159    12.000000000000
         H            0.729343706715    -0.487896847881     1.619693796159     1.007825032230
         H            1.027660006715     0.545044452119    -1.417373603841     1.007825032230
         H           -1.700700993285    -0.009099547881    -1.380898603841     1.007825032230
         H           -0.481444993285    -1.778541547881    -1.071933603841     1.007825032230
         H           -1.072478993285    -1.874018547881     0.602192396159     1.007825032230
         H           -0.731961993285     1.521031452119     0.891635396159     1.007825032230
         H           -0.883772993285     2.012726452119    -0.815717603841     1.007825032230
         H            2.875840006715    -1.213561547881     0.382807396159     1.007825032230
         H            1.791087006715    -2.598722547881     0.492378396159     1.007825032230
         H            2.019839006715    -1.777396547881    -1.063615603841     1.007825032230
         H            2.902807006715     1.228455452119     0.066031396159     1.007825032230
         H            1.862120006715     2.611881452119    -0.269337603841     1.007825032230
         H            1.754522006715     1.783082452119     1.296275396159     1.007825032230
         H           -2.466700993285    -0.037635547881     1.457133396159     1.007825032230
         H           -3.254448993285     0.936671452119     0.180570396159     1.007825032230
         H           -3.324940993285    -0.849968547881     0.113509396159     1.007825032230

  Basis Set: AUG-CC-PVTZ
    Blend: AUG-CC-PVTZ
  Basis Set: (AUG-CC-PVTZ AUX)
    Blend: AUG-CC-PVTZ-JKFIT
	 Reference Energy          =    -328.7345053513269590 [Eh]
	 Singles Energy            =      -0.0000000000000000 [Eh]
	 Same-Spin Energy          =      -0.3480960381240062 [Eh]
	 Opposite-Spin Energy      =      -1.2517113426057724 [Eh]
	 Correlation Energy        =      -1.5998073807297786 [Eh]
	 Total Energy              =    -330.3343127320567305 [Eh]

	 ================> DF-SCS-MP2 Energies <==================
	-----------------------------------------------------------
	 SCS Same-Spin Scale       =       0.3333333333333333 [-]
	 SCS Opposite-Spin Scale   =       1.2000000000000000 [-]
	 SCS Same-Spin Energy      =      -0.1160320127080021 [Eh]
	 SCS Opposite-Spin Energy  =      -1.5020536111269269 [Eh]
	 SCS Correlation Energy    =      -1.6180856238349290 [Eh]
	 SCS Total Energy          =    -330.3525909751618883 [Eh]
	-----------------------------------------------------------

  Dipole Moment: [D]
     X:    -4.3298      Y:    -0.0328      Z:    -0.9758     Total:     4.4385

*** Psi4 exiting successfully. Buy a developer a beer!
