                               Psi4 1.4a3.dev225

  ==> Input File <==

--------------------------------------------------------------------------
#psi4
#
memory 32 gb

molecule  {
1 1
  N       -1.4549350    -0.0063160    -0.3913190
  C        0.7700580    -0.6819900     0.3309590
  C        0.8387740     0.6929140    -0.3473660
  C       -0.5772670    -1.2354140    -0.1320620
  C       -0.5771770     1.2100060    -0.1498930
  C        1.9243020    -1.6239510     0.0114420
  C        1.8934400     1.6361940     0.2164580
  C       -2.7287170     0.0116090     0.3933420
  H        0.7287260    -0.5174670     1.4168530
  H        1.0195210     0.5454130    -1.4226110
  H       -1.7088400    -0.0087310    -1.3861360
  H       -0.4895840    -1.7781730    -1.0771710
  H       -1.0898380    -1.8853407     0.6103086
  H       -0.7401010     1.5214000     0.8863980
  H       -0.8919120     2.0130950    -0.8209550
  H        2.8677010    -1.2131930     0.3775700
  H        1.7829480    -2.5983540     0.4871410
  H        2.0117000    -1.7770280    -1.0688530
  H        2.8946680     1.2288240     0.0607940
  H        1.8539810     2.6122500    -0.2745750
  H        1.7463830     1.7834510     1.2910380
  H       -2.4748400    -0.0372670     1.4518960
  H       -3.2625880     0.9370400     0.1753330
  H       -3.3330800    -0.8496000     0.1082720
units angstrom
no_reorient  #important for SAPT in psi4, default
symmetry c1  #important for SAPT in psi4, default
}

set PROPERTIES_ORIGIN ["COM"]
properties('MP2/aug-cc-pvtz', properties = ['dipole'])
--------------------------------------------------------------------------

    Molecular point group: c1
  Charge       = 1
  Multiplicity = 1
  Basis Set: AUG-CC-PVTZ
    Blend: AUG-CC-PVTZ
  Basis Set: (AUG-CC-PVTZ AUX)
    Blend: AUG-CC-PVTZ-JKFIT

    Orbital Energies [Eh]
    ---------------------

    Doubly Occupied:

       1A    -15.852261     2A    -11.448953     3A    -11.448317
       4A    -11.445726     5A    -11.391000     6A    -11.390252
       7A    -11.352861     8A    -11.352505     9A     -1.489412
      10A     -1.272091    11A     -1.192467    12A     -1.142579
      13A     -1.094412    14A     -1.065116    15A     -0.986395
      16A     -0.939481    17A     -0.903309    18A     -0.844170
      19A     -0.821556    20A     -0.785989    21A     -0.762161
      22A     -0.754734    23A     -0.734877    24A     -0.714786
      25A     -0.701140    26A     -0.696844    27A     -0.676258
      28A     -0.662995    29A     -0.647280    30A     -0.628397
      31A     -0.622975    32A     -0.602825

  @DF-RHF Final Energy:  -328.75358460168098

   => Energetics <=

    Nuclear Repulsion Energy =            424.3860756664970495
    One-Electron Energy =               -1273.4310705767877607
    Two-Electron Energy =                 520.2914103086096702
    Total Energy =                       -328.7535846016810410
  Basis Set: (AUG-CC-PVTZ AUX)
    Blend: AUG-CC-PVTZ-RI
    Molecular point group: c1

    Geometry (in Angstrom), charge = 1, multiplicity = 1:

       Center              X                  Y                   Z               Mass
    ------------   -----------------  -----------------  -----------------  -----------------
         N           -1.446780992687    -0.006316933882    -0.384454561275    14.003074004430
         C            0.778212007313    -0.681990933882     0.337823438725    12.000000000000
         C            0.846928007313     0.692913066118    -0.340501561275    12.000000000000
         C           -0.569112992687    -1.235414933882    -0.125197561275    12.000000000000
         C           -0.569022992687     1.210005066118    -0.143028561275    12.000000000000
         C            1.932456007313    -1.623951933882     0.018306438725    12.000000000000
         C            1.901594007313     1.636193066118     0.223322438725    12.000000000000
         C           -2.720562992687     0.011608066118     0.400206438725    12.000000000000
         H            0.736880007313    -0.517467933882     1.423717438725     1.007825032230
         H            1.027675007313     0.545412066118    -1.415746561275     1.007825032230
         H           -1.700685992687    -0.008731933882    -1.379271561275     1.007825032230
         H           -0.481429992687    -1.778173933882    -1.070306561275     1.007825032230
         H           -1.081683992687    -1.885341633882     0.617173038725     1.007825032230
         H           -0.731946992687     1.521399066118     0.893262438725     1.007825032230
         H           -0.883757992687     2.013094066118    -0.814090561275     1.007825032230
         H            2.875855007313    -1.213193933882     0.384434438725     1.007825032230
         H            1.791102007313    -2.598354933882     0.494005438725     1.007825032230
         H            2.019854007313    -1.777028933882    -1.061988561275     1.007825032230
         H            2.902822007313     1.228823066118     0.067658438725     1.007825032230
         H            1.862135007313     2.612249066118    -0.267710561275     1.007825032230
         H            1.754537007313     1.783450066118     1.297902438725     1.007825032230
         H           -2.466685992687    -0.037267933882     1.458760438725     1.007825032230
         H           -3.254433992687     0.937039066118     0.182197438725     1.007825032230
         H           -3.324925992687    -0.849600933882     0.115136438725     1.007825032230

  Basis Set: AUG-CC-PVTZ
    Blend: AUG-CC-PVTZ
  Basis Set: (AUG-CC-PVTZ AUX)
    Blend: AUG-CC-PVTZ-JKFIT
	 Reference Energy          =    -328.7535846016809842 [Eh]
	 Singles Energy            =      -0.0000000000000000 [Eh]
	 Same-Spin Energy          =      -0.3478470011127340 [Eh]
	 Opposite-Spin Energy      =      -1.2500469187463796 [Eh]
	 Correlation Energy        =      -1.5978939198591138 [Eh]
	 Total Energy              =    -330.3514785215401162 [Eh]

	 ================> DF-SCS-MP2 Energies <==================
	-----------------------------------------------------------
	 SCS Same-Spin Scale       =       0.3333333333333333 [-]
	 SCS Opposite-Spin Scale   =       1.2000000000000000 [-]
	 SCS Same-Spin Energy      =      -0.1159490003709113 [Eh]
	 SCS Opposite-Spin Energy  =      -1.5000563024956555 [Eh]
	 SCS Correlation Energy    =      -1.6160053028665669 [Eh]
	 SCS Total Energy          =    -330.3695899045475244 [Eh]
	-----------------------------------------------------------

  Dipole Moment: [D]
     X:    -4.3530      Y:     0.0032      Z:    -0.8656     Total:     4.4382

*** Psi4 exiting successfully. Buy a developer a beer!
