                               Psi4 1.4a3.dev225

  ==> Input File <==

--------------------------------------------------------------------------
#psi4
#
memory 32 gb

molecule  {
1 1
  N       -1.4549350    -0.0063160    -0.3913190
  C        0.7700580    -0.6819900     0.3309590
  C        0.8387740     0.6929140    -0.3473660
  C       -0.5772670    -1.2354140    -0.1320620
  C       -0.5771770     1.2100060    -0.1498930
  C        1.9243020    -1.6239510     0.0114420
  C        1.8934400     1.6361940     0.2164580
  C       -2.7287170     0.0116090     0.3933420
  H        0.7287260    -0.5174670     1.4168530
  H        1.0195210     0.5454130    -1.4226110
  H       -1.7088400    -0.0087310    -1.3861360
  H       -0.4895840    -1.7781730    -1.0771710
  H       -1.0806180    -1.8736500     0.5969550
  H       -0.7401010     1.5214000     0.8863980
  H       -0.8919120     2.0130950    -0.8209550
  H        2.8677010    -1.2131930     0.3775700
  H        1.7829480    -2.5983540     0.4871410
  H        2.0117000    -1.7770280    -1.0688530
  H        2.8708058     1.2289317    -0.0509977
  H        1.8539810     2.6122500    -0.2745750
  H        1.7463830     1.7834510     1.2910380
  H       -2.4748400    -0.0372670     1.4518960
  H       -3.2625880     0.9370400     0.1753330
  H       -3.3330800    -0.8496000     0.1082720
units angstrom
no_reorient  #important for SAPT in psi4, default
symmetry c1  #important for SAPT in psi4, default
}

set PROPERTIES_ORIGIN ["COM"]
properties('MP2/aug-cc-pvtz', properties = ['dipole'])
--------------------------------------------------------------------------

    Molecular point group: c1
  Charge       = 1
  Multiplicity = 1
  Basis Set: AUG-CC-PVTZ
    Blend: AUG-CC-PVTZ
  Basis Set: (AUG-CC-PVTZ AUX)
    Blend: AUG-CC-PVTZ-JKFIT

    Orbital Energies [Eh]
    ---------------------

    Doubly Occupied:

       1A    -15.851800     2A    -11.448811     3A    -11.446073
       4A    -11.445118     5A    -11.390485     6A    -11.389872
       7A    -11.353152     8A    -11.352422     9A     -1.489154
      10A     -1.272096    11A     -1.193101    12A     -1.142614
      13A     -1.095108    14A     -1.065460    15A     -0.986796
      16A     -0.938817    17A     -0.903032    18A     -0.844452
      19A     -0.822337    20A     -0.786504    21A     -0.763103
      22A     -0.754788    23A     -0.734759    24A     -0.715451
      25A     -0.704641    26A     -0.697385    27A     -0.674660
      28A     -0.661490    29A     -0.648903    30A     -0.626524
      31A     -0.623951    32A     -0.601811

  @DF-RHF Final Energy:  -328.75288279499557

   => Energetics <=

    Nuclear Repulsion Energy =            424.5443834108498891
    One-Electron Energy =               -1273.7451902155567041
    Two-Electron Energy =                 520.4479240097113006
    Total Energy =                       -328.7528827949955712
  Basis Set: (AUG-CC-PVTZ AUX)
    Blend: AUG-CC-PVTZ-RI
    Molecular point group: c1

    Geometry (in Angstrom), charge = 1, multiplicity = 1:

       Center              X                  Y                   Z               Mass
    ------------   -----------------  -----------------  -----------------  -----------------
         N           -1.446651692777    -0.006421121235    -0.383349448922    14.003074004430
         C            0.778341307223    -0.682095121235     0.338928551078    12.000000000000
         C            0.847057307223     0.692808878765    -0.339396448922    12.000000000000
         C           -0.568983692777    -1.235519121235    -0.124092448922    12.000000000000
         C           -0.568893692777     1.209900878765    -0.141923448922    12.000000000000
         C            1.932585307223    -1.624056121235     0.019411551078    12.000000000000
         C            1.901723307223     1.636088878765     0.224427551078    12.000000000000
         C           -2.720433692777     0.011503878765     0.401311551078    12.000000000000
         H            0.737009307223    -0.517572121235     1.424822551078     1.007825032230
         H            1.027804307223     0.545307878765    -1.414641448922     1.007825032230
         H           -1.700556692777    -0.008836121235    -1.378166448922     1.007825032230
         H           -0.481300692777    -1.778278121235    -1.069201448922     1.007825032230
         H           -1.072334692777    -1.873755121235     0.604924551078     1.007825032230
         H           -0.731817692777     1.521294878765     0.894367551078     1.007825032230
         H           -0.883628692777     2.012989878765    -0.812985448922     1.007825032230
         H            2.875984307223    -1.213298121235     0.385539551078     1.007825032230
         H            1.791231307223    -2.598459121235     0.495110551078     1.007825032230
         H            2.019983307223    -1.777133121235    -1.060883448922     1.007825032230
         H            2.879089107223     1.228826578765    -0.043028148922     1.007825032230
         H            1.862264307223     2.612144878765    -0.266605448922     1.007825032230
         H            1.754666307223     1.783345878765     1.299007551078     1.007825032230
         H           -2.466556692777    -0.037372121235     1.459865551078     1.007825032230
         H           -3.254304692777     0.936934878765     0.183302551078     1.007825032230
         H           -3.324796692777    -0.849705121235     0.116241551078     1.007825032230

  Basis Set: AUG-CC-PVTZ
    Blend: AUG-CC-PVTZ
  Basis Set: (AUG-CC-PVTZ AUX)
    Blend: AUG-CC-PVTZ-JKFIT
	 Reference Energy          =    -328.7528827949955712 [Eh]
	 Singles Energy            =      -0.0000000000000000 [Eh]
	 Same-Spin Energy          =      -0.3478862748748204 [Eh]
	 Opposite-Spin Energy      =      -1.2500196749804724 [Eh]
	 Correlation Energy        =      -1.5979059498552928 [Eh]
	 Total Energy              =    -330.3507887448508882 [Eh]

	 ================> DF-SCS-MP2 Energies <==================
	-----------------------------------------------------------
	 SCS Same-Spin Scale       =       0.3333333333333333 [-]
	 SCS Opposite-Spin Scale   =       1.2000000000000000 [-]
	 SCS Same-Spin Energy      =      -0.1159620916249401 [Eh]
	 SCS Opposite-Spin Energy  =      -1.5000236099765669 [Eh]
	 SCS Correlation Energy    =      -1.6159857016015071 [Eh]
	 SCS Total Energy          =    -330.3688684965970879 [Eh]
	-----------------------------------------------------------

  Dipole Moment: [D]
     X:    -4.3533      Y:     0.0164      Z:    -0.8949     Total:     4.4443

*** Psi4 exiting successfully. Buy a developer a beer!
