                               Psi4 1.4a3.dev225

  ==> Input File <==

--------------------------------------------------------------------------
#psi4
#
memory 32 gb

molecule  {
1 1
  N       -1.4549350    -0.0063160    -0.3913190
  C        0.7700580    -0.6819900     0.3309590
  C        0.8387740     0.6929140    -0.3473660
  C       -0.5772670    -1.2354140    -0.1320620
  C       -0.5771770     1.2100060    -0.1498930
  C        1.9243020    -1.6239510     0.0114420
  C        1.8934400     1.6361940     0.2164580
  C       -2.7287170     0.0116090     0.3933420
  H        0.7287260    -0.5174670     1.4168530
  H        1.0195210     0.5454130    -1.4226110
  H       -1.7088400    -0.0087310    -1.3861360
  H       -0.4895840    -1.7781730    -1.0771710
  H       -1.0806180    -1.8736500     0.5969550
  H       -0.7401010     1.5214000     0.8863980
  H       -0.8919120     2.0130950    -0.8209550
  H        2.8677010    -1.2131930     0.3775700
  H        1.7829480    -2.5983540     0.4871410
  H        2.0117000    -1.7770280    -1.0688530
  H        3.0780296     1.1542196     0.0322862
  H        1.8539810     2.6122500    -0.2745750
  H        1.7463830     1.7834510     1.2910380
  H       -2.4748400    -0.0372670     1.4518960
  H       -3.2625880     0.9370400     0.1753330
  H       -3.3330800    -0.8496000     0.1082720
units angstrom
no_reorient  #important for SAPT in psi4, default
symmetry c1  #important for SAPT in psi4, default
}

set PROPERTIES_ORIGIN ["COM"]
properties('MP2/aug-cc-pvtz', properties = ['dipole'])
--------------------------------------------------------------------------

    Molecular point group: c1
  Charge       = 1
  Multiplicity = 1
  Basis Set: AUG-CC-PVTZ
    Blend: AUG-CC-PVTZ
  Basis Set: (AUG-CC-PVTZ AUX)
    Blend: AUG-CC-PVTZ-JKFIT

    Orbital Energies [Eh]
    ---------------------

    Doubly Occupied:

       1A    -15.853095     2A    -11.449669     3A    -11.447186
       4A    -11.446622     5A    -11.392616     6A    -11.390592
       7A    -11.374162     8A    -11.351778     9A     -1.490307
      10A     -1.272211    11A     -1.193394    12A     -1.141947
      13A     -1.090389    14A     -1.062052    15A     -0.985053
      16A     -0.938245    17A     -0.903776    18A     -0.843044
      19A     -0.822583    20A     -0.787033    21A     -0.762310
      22A     -0.755304    23A     -0.730609    24A     -0.716333
      25A     -0.700894    26A     -0.696928    27A     -0.673466
      28A     -0.654341    29A     -0.647010    30A     -0.625212
      31A     -0.610371    32A     -0.599089

  @DF-RHF Final Energy:  -328.73363000536978

   => Energetics <=

    Nuclear Repulsion Energy =            423.7152580797808810
    One-Electron Energy =               -1272.0825381813681361
    Two-Electron Energy =                 519.6336500962174796
    Total Energy =                       -328.7336300053698324
  Basis Set: (AUG-CC-PVTZ AUX)
    Blend: AUG-CC-PVTZ-RI
    Molecular point group: c1

    Geometry (in Angstrom), charge = 1, multiplicity = 1:

       Center              X                  Y                   Z               Mass
    ------------   -----------------  -----------------  -----------------  -----------------
         N           -1.448481610330    -0.005761366018    -0.384084898569    14.003074004430
         C            0.776511389670    -0.681435366018     0.338193101431    12.000000000000
         C            0.845227389670     0.693468633982    -0.340131898569    12.000000000000
         C           -0.570813610330    -1.234859366018    -0.124827898569    12.000000000000
         C           -0.570723610330     1.210560633982    -0.142658898569    12.000000000000
         C            1.930755389670    -1.623396366018     0.018676101431    12.000000000000
         C            1.899893389670     1.636748633982     0.223692101431    12.000000000000
         C           -2.722263610330     0.012163633982     0.400576101431    12.000000000000
         H            0.735179389670    -0.516912366018     1.424087101431     1.007825032230
         H            1.025974389670     0.545967633982    -1.415376898569     1.007825032230
         H           -1.702386610330    -0.008176366018    -1.378901898569     1.007825032230
         H           -0.483130610330    -1.777618366018    -1.069936898569     1.007825032230
         H           -1.074164610330    -1.873095366018     0.604189101431     1.007825032230
         H           -0.733647610330     1.521954633982     0.893632101431     1.007825032230
         H           -0.885458610330     2.013649633982    -0.813720898569     1.007825032230
         H            2.874154389670    -1.212638366018     0.384804101431     1.007825032230
         H            1.789401389670    -2.597799366018     0.494375101431     1.007825032230
         H            2.018153389670    -1.776473366018    -1.061618898569     1.007825032230
         H            3.084482989670     1.154774233982     0.039520301431     1.007825032230
         H            1.860434389670     2.612804633982    -0.267340898569     1.007825032230
         H            1.752836389670     1.784005633982     1.298272101431     1.007825032230
         H           -2.468386610330    -0.036712366018     1.459130101431     1.007825032230
         H           -3.256134610330     0.937594633982     0.182567101431     1.007825032230
         H           -3.326626610330    -0.849045366018     0.115506101431     1.007825032230

  Basis Set: AUG-CC-PVTZ
    Blend: AUG-CC-PVTZ
  Basis Set: (AUG-CC-PVTZ AUX)
    Blend: AUG-CC-PVTZ-JKFIT
	 Reference Energy          =    -328.7336300053697755 [Eh]
	 Singles Energy            =      -0.0000000000000000 [Eh]
	 Same-Spin Energy          =      -0.3479500426364101 [Eh]
	 Opposite-Spin Energy      =      -1.2516451063017482 [Eh]
	 Correlation Energy        =      -1.5995951489381584 [Eh]
	 Total Energy              =    -330.3332251543079110 [Eh]

	 ================> DF-SCS-MP2 Energies <==================
	-----------------------------------------------------------
	 SCS Same-Spin Scale       =       0.3333333333333333 [-]
	 SCS Opposite-Spin Scale   =       1.2000000000000000 [-]
	 SCS Same-Spin Energy      =      -0.1159833475454700 [Eh]
	 SCS Opposite-Spin Energy  =      -1.5019741275620977 [Eh]
	 SCS Correlation Energy    =      -1.6179574751075678 [Eh]
	 SCS Total Energy          =    -330.3515874804773489 [Eh]
	-----------------------------------------------------------

  Dipole Moment: [D]
     X:    -4.4389      Y:     0.0127      Z:    -0.8632     Total:     4.5221

*** Psi4 exiting successfully. Buy a developer a beer!
