                               Psi4 1.4a3.dev225

  ==> Input File <==

--------------------------------------------------------------------------
#psi4
#
memory 32 gb

molecule  {
1 1
  N       -1.4549350    -0.0063160    -0.3913190
  C        0.7700580    -0.6819900     0.3309590
  C        0.8387740     0.6929140    -0.3473660
  C       -0.5772670    -1.2354140    -0.1320620
  C       -0.5771770     1.2100060    -0.1498930
  C        1.9243020    -1.6239510     0.0114420
  C        1.8934400     1.6361940     0.2164580
  C       -2.7287170     0.0116090     0.3933420
  H        0.7287260    -0.5174670     1.4168530
  H        1.0195210     0.5454130    -1.4226110
  H       -1.7088400    -0.0087310    -1.3861360
  H       -0.4895840    -1.7781730    -1.0771710
  H       -1.0806180    -1.8736500     0.5969550
  H       -0.7401010     1.5214000     0.8863980
  H       -0.8919120     2.0130950    -0.8209550
  H        2.8677010    -1.2131930     0.3775700
  H        1.7829480    -2.5983540     0.4871410
  H        2.0117000    -1.7770280    -1.0688530
  H        2.8946680     1.2288240     0.0607940
  H        1.8539810     2.6122500    -0.2745750
  H        1.7329476     1.7969047     1.3892138
  H       -2.4748400    -0.0372670     1.4518960
  H       -3.2625880     0.9370400     0.1753330
  H       -3.3330800    -0.8496000     0.1082720
units angstrom
no_reorient  #important for SAPT in psi4, default
symmetry c1  #important for SAPT in psi4, default
}

set PROPERTIES_ORIGIN ["COM"]
properties('MP2/aug-cc-pvtz', properties = ['dipole'])
--------------------------------------------------------------------------

    Molecular point group: c1
  Charge       = 1
  Multiplicity = 1
  Basis Set: AUG-CC-PVTZ
    Blend: AUG-CC-PVTZ
  Basis Set: (AUG-CC-PVTZ AUX)
    Blend: AUG-CC-PVTZ-JKFIT

    Orbital Energies [Eh]
    ---------------------

    Doubly Occupied:

       1A    -15.852210     2A    -11.449027     3A    -11.446266
       4A    -11.445715     5A    -11.391933     6A    -11.390309
       7A    -11.364433     8A    -11.352607     9A     -1.489513
      10A     -1.271940    11A     -1.192802    12A     -1.142081
      13A     -1.092323    14A     -1.064081    15A     -0.985251
      16A     -0.938109    17A     -0.903096    18A     -0.844654
      19A     -0.821122    20A     -0.786131    21A     -0.763359
      22A     -0.755010    23A     -0.735705    24A     -0.714421
      25A     -0.697861    26A     -0.693361    27A     -0.676906
      28A     -0.663599    29A     -0.639764    30A     -0.628642
      31A     -0.620027    32A     -0.602688

  @DF-RHF Final Energy:  -328.74776671086971

   => Energetics <=

    Nuclear Repulsion Energy =            424.0897501748092964
    One-Electron Energy =               -1272.8451411387286498
    Two-Electron Energy =                 520.0076242530496984
    Total Energy =                       -328.7477667108696551
  Basis Set: (AUG-CC-PVTZ AUX)
    Blend: AUG-CC-PVTZ-RI
    Molecular point group: c1

    Geometry (in Angstrom), charge = 1, multiplicity = 1:

       Center              X                  Y                   Z               Mass
    ------------   -----------------  -----------------  -----------------  -----------------
         N           -1.446743768032    -0.006538974878    -0.385203595087    14.003074004430
         C            0.778249231968    -0.682212974878     0.337074404913    12.000000000000
         C            0.846965231968     0.692691025122    -0.341250595087    12.000000000000
         C           -0.569075768032    -1.235636974878    -0.125946595087    12.000000000000
         C           -0.568985768032     1.209783025122    -0.143777595087    12.000000000000
         C            1.932493231968    -1.624173974878     0.017557404913    12.000000000000
         C            1.901631231968     1.635971025122     0.222573404913    12.000000000000
         C           -2.720525768032     0.011386025122     0.399457404913    12.000000000000
         H            0.736917231968    -0.517689974878     1.422968404913     1.007825032230
         H            1.027712231968     0.545190025122    -1.416495595087     1.007825032230
         H           -1.700648768032    -0.008953974878    -1.380020595087     1.007825032230
         H           -0.481392768032    -1.778395974878    -1.071055595087     1.007825032230
         H           -1.072426768032    -1.873872974878     0.603070404913     1.007825032230
         H           -0.731909768032     1.521177025122     0.892513404913     1.007825032230
         H           -0.883720768032     2.012872025122    -0.814839595087     1.007825032230
         H            2.875892231968    -1.213415974878     0.383685404913     1.007825032230
         H            1.791139231968    -2.598576974878     0.493256404913     1.007825032230
         H            2.019891231968    -1.777250974878    -1.062737595087     1.007825032230
         H            2.902859231968     1.228601025122     0.066909404913     1.007825032230
         H            1.862172231968     2.612027025122    -0.268459595087     1.007825032230
         H            1.741138831968     1.796681725122     1.395329204913     1.007825032230
         H           -2.466648768032    -0.037489974878     1.458011404913     1.007825032230
         H           -3.254396768032     0.936817025122     0.181448404913     1.007825032230
         H           -3.324888768032    -0.849822974878     0.114387404913     1.007825032230

  Basis Set: AUG-CC-PVTZ
    Blend: AUG-CC-PVTZ
  Basis Set: (AUG-CC-PVTZ AUX)
    Blend: AUG-CC-PVTZ-JKFIT
	 Reference Energy          =    -328.7477667108697119 [Eh]
	 Singles Energy            =      -0.0000000000000000 [Eh]
	 Same-Spin Energy          =      -0.3478236023035475 [Eh]
	 Opposite-Spin Energy      =      -1.2505801111878658 [Eh]
	 Correlation Energy        =      -1.5984037134914133 [Eh]
	 Total Energy              =    -330.3461704243611052 [Eh]

	 ================> DF-SCS-MP2 Energies <==================
	-----------------------------------------------------------
	 SCS Same-Spin Scale       =       0.3333333333333333 [-]
	 SCS Opposite-Spin Scale   =       1.2000000000000000 [-]
	 SCS Same-Spin Energy      =      -0.1159412007678492 [Eh]
	 SCS Opposite-Spin Energy  =      -1.5006961334254389 [Eh]
	 SCS Correlation Energy    =      -1.6166373341932880 [Eh]
	 SCS Total Energy          =    -330.3644040450629973 [Eh]
	-----------------------------------------------------------

  Dipole Moment: [D]
     X:    -4.3517      Y:    -0.0092      Z:    -0.9112     Total:     4.4461

*** Psi4 exiting successfully. Buy a developer a beer!
