                               Psi4 1.4a3.dev225

  ==> Input File <==

--------------------------------------------------------------------------
#psi4
#
memory 32 gb

molecule  {
1 1
  N       -1.4549350    -0.0063160    -0.3913190
  C        0.7700580    -0.6819900     0.3309590
  C        0.8387740     0.6929140    -0.3473660
  C       -0.5772670    -1.2354140    -0.1320620
  C       -0.5771770     1.2100060    -0.1498930
  C        1.9243020    -1.6239510     0.0114420
  C        1.8934400     1.6361940     0.2164580
  C       -2.7287170     0.0116090     0.3933420
  H        0.7287260    -0.5174670     1.4168530
  H        1.0195210     0.5454130    -1.4226110
  H       -1.7088400    -0.0087310    -1.3861360
  H       -0.4895840    -1.7781730    -1.0771710
  H       -1.0806180    -1.8736500     0.5969550
  H       -0.7401010     1.5214000     0.8863980
  H       -0.8919120     2.0130950    -0.8209550
  H        2.8677010    -1.2131930     0.3775700
  H        1.7829480    -2.5983540     0.4871410
  H        2.0117000    -1.7770280    -1.0688530
  H        2.8029872     1.2661262     0.0750479
  H        1.8539810     2.6122500    -0.2745750
  H        1.7463830     1.7834510     1.2910380
  H       -2.4748400    -0.0372670     1.4518960
  H       -3.2625880     0.9370400     0.1753330
  H       -3.3330800    -0.8496000     0.1082720
units angstrom
no_reorient  #important for SAPT in psi4, default
symmetry c1  #important for SAPT in psi4, default
}

set PROPERTIES_ORIGIN ["COM"]
properties('MP2/aug-cc-pvtz', properties = ['dipole'])
--------------------------------------------------------------------------

    Molecular point group: c1
  Charge       = 1
  Multiplicity = 1
  Basis Set: AUG-CC-PVTZ
    Blend: AUG-CC-PVTZ
  Basis Set: (AUG-CC-PVTZ AUX)
    Blend: AUG-CC-PVTZ-JKFIT

    Orbital Energies [Eh]
    ---------------------

    Doubly Occupied:

       1A    -15.851819     2A    -11.448790     3A    -11.446080
       4A    -11.445177     5A    -11.390513     6A    -11.389892
       7A    -11.352771     8A    -11.341033     9A     -1.489145
      10A     -1.272442    11A     -1.193549    12A     -1.143766
      13A     -1.099466    14A     -1.067772    15A     -0.989172
      16A     -0.940755    17A     -0.903265    18A     -0.846533
      19A     -0.821911    20A     -0.786298    21A     -0.764682
      22A     -0.754844    23A     -0.739362    24A     -0.715130
      25A     -0.702604    26A     -0.697664    27A     -0.681268
      28A     -0.666204    29A     -0.647350    30A     -0.632123
      31A     -0.623387    32A     -0.603036

  @DF-RHF Final Energy:  -328.74814481446168

   => Energetics <=

    Nuclear Repulsion Energy =            424.9468392468014031
    One-Electron Energy =               -1274.4943641968764041
    Two-Electron Energy =                 520.7993801356133190
    Total Energy =                       -328.7481448144617389
  Basis Set: (AUG-CC-PVTZ AUX)
    Blend: AUG-CC-PVTZ-RI
    Molecular point group: c1

    Geometry (in Angstrom), charge = 1, multiplicity = 1:

       Center              X                  Y                   Z               Mass
    ------------   -----------------  -----------------  -----------------  -----------------
         N           -1.446052811535    -0.006749572255    -0.384462511495    14.003074004430
         C            0.778940188465    -0.682423572255     0.337815488505    12.000000000000
         C            0.847656188465     0.692480427745    -0.340509511495    12.000000000000
         C           -0.568384811535    -1.235847572255    -0.125205511495    12.000000000000
         C           -0.568294811535     1.209572427745    -0.143036511495    12.000000000000
         C            1.933184188465    -1.624384572255     0.018298488505    12.000000000000
         C            1.902322188465     1.635760427745     0.223314488505    12.000000000000
         C           -2.719834811535     0.011175427745     0.400198488505    12.000000000000
         H            0.737608188465    -0.517900572255     1.423709488505     1.007825032230
         H            1.028403188465     0.544979427745    -1.415754511495     1.007825032230
         H           -1.699957811535    -0.009164572255    -1.379279511495     1.007825032230
         H           -0.480701811535    -1.778606572255    -1.070314511495     1.007825032230
         H           -1.071735811535    -1.874083572255     0.603811488505     1.007825032230
         H           -0.731218811535     1.520966427745     0.893254488505     1.007825032230
         H           -0.883029811535     2.012661427745    -0.814098511495     1.007825032230
         H            2.876583188465    -1.213626572255     0.384426488505     1.007825032230
         H            1.791830188465    -2.598787572255     0.493997488505     1.007825032230
         H            2.020582188465    -1.777461572255    -1.061996511495     1.007825032230
         H            2.811869388465     1.265692627745     0.081904388505     1.007825032230
         H            1.862863188465     2.611816427745    -0.267718511495     1.007825032230
         H            1.755265188465     1.783017427745     1.297894488505     1.007825032230
         H           -2.465957811535    -0.037700572255     1.458752488505     1.007825032230
         H           -3.253705811535     0.936606427745     0.182189488505     1.007825032230
         H           -3.324197811535    -0.850033572255     0.115128488505     1.007825032230

  Basis Set: AUG-CC-PVTZ
    Blend: AUG-CC-PVTZ
  Basis Set: (AUG-CC-PVTZ AUX)
    Blend: AUG-CC-PVTZ-JKFIT
	 Reference Energy          =    -328.7481448144616820 [Eh]
	 Singles Energy            =      -0.0000000000000000 [Eh]
	 Same-Spin Energy          =      -0.3477729136583103 [Eh]
	 Opposite-Spin Energy      =      -1.2493140710160422 [Eh]
	 Correlation Energy        =      -1.5970869846743525 [Eh]
	 Total Energy              =    -330.3452317991360587 [Eh]

	 ================> DF-SCS-MP2 Energies <==================
	-----------------------------------------------------------
	 SCS Same-Spin Scale       =       0.3333333333333333 [-]
	 SCS Opposite-Spin Scale   =       1.2000000000000000 [-]
	 SCS Same-Spin Energy      =      -0.1159243045527701 [Eh]
	 SCS Opposite-Spin Energy  =      -1.4991768852192506 [Eh]
	 SCS Correlation Energy    =      -1.6151011897720207 [Eh]
	 SCS Total Energy          =    -330.3632460042337016 [Eh]
	-----------------------------------------------------------

  Dipole Moment: [D]
     X:    -4.3301      Y:    -0.0031      Z:    -0.8672     Total:     4.4161

*** Psi4 exiting successfully. Buy a developer a beer!
