                               Psi4 1.4a3.dev225

  ==> Input File <==

--------------------------------------------------------------------------
#psi4
#
memory 32 gb

molecule  {
1 1
  N       -1.3703165    -0.0794271    -0.2782552
  C        0.7700580    -0.6819900     0.3309590
  C        0.8387740     0.6929140    -0.3473660
  C       -0.5772670    -1.2354140    -0.1320620
  C       -0.5771770     1.2100060    -0.1498930
  C        1.9243020    -1.6239510     0.0114420
  C        1.8934400     1.6361940     0.2164580
  C       -2.7287170     0.0116090     0.3933420
  H        0.7287260    -0.5174670     1.4168530
  H        1.0195210     0.5454130    -1.4226110
  H       -1.7088400    -0.0087310    -1.3861360
  H       -0.4895840    -1.7781730    -1.0771710
  H       -1.0806180    -1.8736500     0.5969550
  H       -0.7401010     1.5214000     0.8863980
  H       -0.8919120     2.0130950    -0.8209550
  H        2.8677010    -1.2131930     0.3775700
  H        1.7829480    -2.5983540     0.4871410
  H        2.0117000    -1.7770280    -1.0688530
  H        2.8946680     1.2288240     0.0607940
  H        1.8539810     2.6122500    -0.2745750
  H        1.7463830     1.7834510     1.2910380
  H       -2.4748400    -0.0372670     1.4518960
  H       -3.2625880     0.9370400     0.1753330
  H       -3.3330800    -0.8496000     0.1082720
units angstrom
no_reorient  #important for SAPT in psi4, default
symmetry c1  #important for SAPT in psi4, default
}

set PROPERTIES_ORIGIN ["COM"]
properties('MP2/aug-cc-pvtz', properties = ['dipole'])
--------------------------------------------------------------------------

    Molecular point group: c1
  Charge       = 1
  Multiplicity = 1
  Basis Set: AUG-CC-PVTZ
    Blend: AUG-CC-PVTZ
  Basis Set: (AUG-CC-PVTZ AUX)
    Blend: AUG-CC-PVTZ-JKFIT

    Orbital Energies [Eh]
    ---------------------

    Doubly Occupied:

       1A    -15.861268     2A    -11.454106     3A    -11.447481
       4A    -11.435655     5A    -11.389473     6A    -11.388005
       7A    -11.351937     8A    -11.350007     9A     -1.501797
      10A     -1.267790    11A     -1.203393    12A     -1.146895
      13A     -1.100171    14A     -1.047121    15A     -0.979116
      16A     -0.943987    17A     -0.903050    18A     -0.852252
      19A     -0.824431    20A     -0.785171    21A     -0.764309
      22A     -0.750281    23A     -0.739098    24A     -0.728539
      25A     -0.702762    26A     -0.676108    27A     -0.673436
      28A     -0.657140    29A     -0.644357    30A     -0.626544
      31A     -0.620672    32A     -0.601836

  @DF-RHF Final Energy:  -328.72109194217410

   => Energetics <=

    Nuclear Repulsion Energy =            426.4204127316258450
    One-Electron Energy =               -1277.4466309383303724
    Two-Electron Energy =                 522.3051262645303723
    Total Energy =                       -328.7210919421740982
  Basis Set: (AUG-CC-PVTZ AUX)
    Blend: AUG-CC-PVTZ-RI
    Molecular point group: c1

    Geometry (in Angstrom), charge = 1, multiplicity = 1:

       Center              X                  Y                   Z               Mass
    ------------   -----------------  -----------------  -----------------  -----------------
         N           -1.372626256110    -0.070560836266    -0.285145307840    14.003074004430
         C            0.767748243890    -0.673123736266     0.324068892160    12.000000000000
         C            0.836464243890     0.701780263734    -0.354256107840    12.000000000000
         C           -0.579576756110    -1.226547736266    -0.138952107840    12.000000000000
         C           -0.579486756110     1.218872263734    -0.156783107840    12.000000000000
         C            1.921992243890    -1.615084736266     0.004551892160    12.000000000000
         C            1.891130243890     1.645060263734     0.209567892160    12.000000000000
         C           -2.731026756110     0.020475263734     0.386451892160    12.000000000000
         H            0.726416243890    -0.508600736266     1.409962892160     1.007825032230
         H            1.017211243890     0.554279263734    -1.429501107840     1.007825032230
         H           -1.711149756110     0.000135263734    -1.393026107840     1.007825032230
         H           -0.491893756110    -1.769306736266    -1.084061107840     1.007825032230
         H           -1.082927756110    -1.864783736266     0.590064892160     1.007825032230
         H           -0.742410756110     1.530266263734     0.879507892160     1.007825032230
         H           -0.894221756110     2.021961263734    -0.827845107840     1.007825032230
         H            2.865391243890    -1.204326736266     0.370679892160     1.007825032230
         H            1.780638243890    -2.589487736266     0.480250892160     1.007825032230
         H            2.009390243890    -1.768161736266    -1.075743107840     1.007825032230
         H            2.892358243890     1.237690263734     0.053903892160     1.007825032230
         H            1.851671243890     2.621116263734    -0.281465107840     1.007825032230
         H            1.744073243890     1.792317263734     1.284147892160     1.007825032230
         H           -2.477149756110    -0.028400736266     1.445005892160     1.007825032230
         H           -3.264897756110     0.945906263734     0.168442892160     1.007825032230
         H           -3.335389756110    -0.840733736266     0.101381892160     1.007825032230

  Basis Set: AUG-CC-PVTZ
    Blend: AUG-CC-PVTZ
  Basis Set: (AUG-CC-PVTZ AUX)
    Blend: AUG-CC-PVTZ-JKFIT
	 Reference Energy          =    -328.7210919421740982 [Eh]
	 Singles Energy            =      -0.0000000000000000 [Eh]
	 Same-Spin Energy          =      -0.3501787763309545 [Eh]
	 Opposite-Spin Energy      =      -1.2539622925800342 [Eh]
	 Correlation Energy        =      -1.6041410689109887 [Eh]
	 Total Energy              =    -330.3252330110850608 [Eh]

	 ================> DF-SCS-MP2 Energies <==================
	-----------------------------------------------------------
	 SCS Same-Spin Scale       =       0.3333333333333333 [-]
	 SCS Opposite-Spin Scale   =       1.2000000000000000 [-]
	 SCS Same-Spin Energy      =      -0.1167262587769848 [Eh]
	 SCS Opposite-Spin Energy  =      -1.5047547510960411 [Eh]
	 SCS Correlation Energy    =      -1.6214810098730259 [Eh]
	 SCS Total Energy          =    -330.3425729520471350 [Eh]
	-----------------------------------------------------------

  Dipole Moment: [D]
     X:    -4.5617      Y:     0.1458      Z:    -0.9849     Total:     4.6691

*** Psi4 exiting successfully. Buy a developer a beer!
