                               Psi4 1.4a3.dev225

  ==> Input File <==

--------------------------------------------------------------------------
#psi4
#
memory 32 gb

molecule  {
1 1
  N       -1.4549350    -0.0063160    -0.3913190
  C        0.7700580    -0.6819900     0.3309590
  C        0.7982611     0.6856120    -0.2493447
  C       -0.5772670    -1.2354140    -0.1320620
  C       -0.5771770     1.2100060    -0.1498930
  C        1.9243020    -1.6239510     0.0114420
  C        1.8934400     1.6361940     0.2164580
  C       -2.7287170     0.0116090     0.3933420
  H        0.7287260    -0.5174670     1.4168530
  H        1.0195210     0.5454130    -1.4226110
  H       -1.7088400    -0.0087310    -1.3861360
  H       -0.4895840    -1.7781730    -1.0771710
  H       -1.0806180    -1.8736500     0.5969550
  H       -0.7401010     1.5214000     0.8863980
  H       -0.8919120     2.0130950    -0.8209550
  H        2.8677010    -1.2131930     0.3775700
  H        1.7829480    -2.5983540     0.4871410
  H        2.0117000    -1.7770280    -1.0688530
  H        2.8946680     1.2288240     0.0607940
  H        1.8539810     2.6122500    -0.2745750
  H        1.7463830     1.7834510     1.2910380
  H       -2.4748400    -0.0372670     1.4518960
  H       -3.2625880     0.9370400     0.1753330
  H       -3.3330800    -0.8496000     0.1082720
units angstrom
no_reorient  #important for SAPT in psi4, default
symmetry c1  #important for SAPT in psi4, default
}

set PROPERTIES_ORIGIN ["COM"]
properties('MP2/aug-cc-pvtz', properties = ['dipole'])
--------------------------------------------------------------------------

    Molecular point group: c1
  Charge       = 1
  Multiplicity = 1
  Basis Set: AUG-CC-PVTZ
    Blend: AUG-CC-PVTZ
  Basis Set: (AUG-CC-PVTZ AUX)
    Blend: AUG-CC-PVTZ-JKFIT

    Orbital Energies [Eh]
    ---------------------

    Doubly Occupied:

       1A    -15.853265     2A    -11.449640     3A    -11.447337
       4A    -11.446076     5A    -11.394668     6A    -11.389716
       7A    -11.354513     8A    -11.354277     9A     -1.492080
      10A     -1.281183    11A     -1.197609    12A     -1.144062
      13A     -1.095672    14A     -1.069202    15A     -0.992533
      16A     -0.934817    17A     -0.903809    18A     -0.849302
      19A     -0.817310    20A     -0.787333    21A     -0.767625
      22A     -0.758354    23A     -0.738252    24A     -0.716556
      25A     -0.699357    26A     -0.696119    27A     -0.678969
      28A     -0.670559    29A     -0.643488    30A     -0.634281
      31A     -0.621054    32A     -0.589982

  @DF-RHF Final Energy:  -328.74136863490276

   => Energetics <=

    Nuclear Repulsion Energy =            425.5498941204124321
    One-Electron Energy =               -1275.6445268658460463
    Two-Electron Energy =                 521.3532641105308585
    Total Energy =                       -328.7413686349027557
  Basis Set: (AUG-CC-PVTZ AUX)
    Blend: AUG-CC-PVTZ-RI
    Molecular point group: c1

    Geometry (in Angstrom), charge = 1, multiplicity = 1:

       Center              X                  Y                   Z               Mass
    ------------   -----------------  -----------------  -----------------  -----------------
         N           -1.442602688448    -0.005652402501    -0.394643075143    14.003074004430
         C            0.782390311552    -0.681326402501     0.327634924857    12.000000000000
         C            0.810593411552     0.686275597499    -0.252668775143    12.000000000000
         C           -0.564934688448    -1.234750402501    -0.135386075143    12.000000000000
         C           -0.564844688448     1.210669597499    -0.153217075143    12.000000000000
         C            1.936634311552    -1.623287402501     0.008117924857    12.000000000000
         C            1.905772311552     1.636857597499     0.213133924857    12.000000000000
         C           -2.716384688448     0.012272597499     0.390017924857    12.000000000000
         H            0.741058311552    -0.516803402501     1.413528924857     1.007825032230
         H            1.031853311552     0.546076597499    -1.425935075143     1.007825032230
         H           -1.696507688448    -0.008067402501    -1.389460075143     1.007825032230
         H           -0.477251688448    -1.777509402501    -1.080495075143     1.007825032230
         H           -1.068285688448    -1.872986402501     0.593630924857     1.007825032230
         H           -0.727768688448     1.522063597499     0.883073924857     1.007825032230
         H           -0.879579688448     2.013758597499    -0.824279075143     1.007825032230
         H            2.880033311552    -1.212529402501     0.374245924857     1.007825032230
         H            1.795280311552    -2.597690402501     0.483816924857     1.007825032230
         H            2.024032311552    -1.776364402501    -1.072177075143     1.007825032230
         H            2.907000311552     1.229487597499     0.057469924857     1.007825032230
         H            1.866313311552     2.612913597499    -0.277899075143     1.007825032230
         H            1.758715311552     1.784114597499     1.287713924857     1.007825032230
         H           -2.462507688448    -0.036603402501     1.448571924857     1.007825032230
         H           -3.250255688448     0.937703597499     0.172008924857     1.007825032230
         H           -3.320747688448    -0.848936402501     0.104947924857     1.007825032230

  Basis Set: AUG-CC-PVTZ
    Blend: AUG-CC-PVTZ
  Basis Set: (AUG-CC-PVTZ AUX)
    Blend: AUG-CC-PVTZ-JKFIT
	 Reference Energy          =    -328.7413686349027557 [Eh]
	 Singles Energy            =      -0.0000000000000000 [Eh]
	 Same-Spin Energy          =      -0.3486684897193059 [Eh]
	 Opposite-Spin Energy      =      -1.2510263696889563 [Eh]
	 Correlation Energy        =      -1.5996948594082623 [Eh]
	 Total Energy              =    -330.3410634943110153 [Eh]

	 ================> DF-SCS-MP2 Energies <==================
	-----------------------------------------------------------
	 SCS Same-Spin Scale       =       0.3333333333333333 [-]
	 SCS Opposite-Spin Scale   =       1.2000000000000000 [-]
	 SCS Same-Spin Energy      =      -0.1162228299064353 [Eh]
	 SCS Opposite-Spin Energy  =      -1.5012316436267474 [Eh]
	 SCS Correlation Energy    =      -1.6174544735331826 [Eh]
	 SCS Total Energy          =    -330.3588231084359563 [Eh]
	-----------------------------------------------------------

  Dipole Moment: [D]
     X:    -4.3535      Y:    -0.0013      Z:    -0.8553     Total:     4.4367

*** Psi4 exiting successfully. Buy a developer a beer!
