                               Psi4 1.4a3.dev225

  ==> Input File <==

--------------------------------------------------------------------------
#psi4
#
memory 32 gb

molecule  {
1 1
  N       -1.4549350    -0.0063160    -0.3913190
  C        0.7700580    -0.6819900     0.3309590
  C        0.8387740     0.6929140    -0.3473660
  C       -0.5772670    -1.2354140    -0.1320620
  C       -0.4840404     1.1759934    -0.1628821
  C        1.9243020    -1.6239510     0.0114420
  C        1.8934400     1.6361940     0.2164580
  C       -2.7287170     0.0116090     0.3933420
  H        0.7287260    -0.5174670     1.4168530
  H        1.0195210     0.5454130    -1.4226110
  H       -1.7088400    -0.0087310    -1.3861360
  H       -0.4895840    -1.7781730    -1.0771710
  H       -1.0806180    -1.8736500     0.5969550
  H       -0.7401010     1.5214000     0.8863980
  H       -0.8919120     2.0130950    -0.8209550
  H        2.8677010    -1.2131930     0.3775700
  H        1.7829480    -2.5983540     0.4871410
  H        2.0117000    -1.7770280    -1.0688530
  H        2.8946680     1.2288240     0.0607940
  H        1.8539810     2.6122500    -0.2745750
  H        1.7463830     1.7834510     1.2910380
  H       -2.4748400    -0.0372670     1.4518960
  H       -3.2625880     0.9370400     0.1753330
  H       -3.3330800    -0.8496000     0.1082720
units angstrom
no_reorient  #important for SAPT in psi4, default
symmetry c1  #important for SAPT in psi4, default
}

set PROPERTIES_ORIGIN ["COM"]
properties('MP2/aug-cc-pvtz', properties = ['dipole'])
--------------------------------------------------------------------------

    Molecular point group: c1
  Charge       = 1
  Multiplicity = 1
  Basis Set: AUG-CC-PVTZ
    Blend: AUG-CC-PVTZ
  Basis Set: (AUG-CC-PVTZ AUX)
    Blend: AUG-CC-PVTZ-JKFIT

    Orbital Energies [Eh]
    ---------------------

    Doubly Occupied:

       1A    -15.849155     2A    -11.452163     3A    -11.448964
       4A    -11.444972     5A    -11.391660     6A    -11.385645
       7A    -11.355692     8A    -11.352839     9A     -1.485223
      10A     -1.284861    11A     -1.197239    12A     -1.142350
      13A     -1.091582    14A     -1.066828    15A     -0.984725
      16A     -0.945576    17A     -0.898415    18A     -0.845829
      19A     -0.823472    20A     -0.783376    21A     -0.765704
      22A     -0.755846    23A     -0.738174    24A     -0.712638
      25A     -0.694263    26A     -0.691448    27A     -0.676240
      28A     -0.666380    29A     -0.644148    30A     -0.636534
      31A     -0.626142    32A     -0.603400

  @DF-RHF Final Energy:  -328.74142376099246

   => Energetics <=

    Nuclear Repulsion Energy =            425.5669332537377727
    One-Electron Energy =               -1275.7337521546860444
    Two-Electron Energy =                 521.4253951399558673
    Total Energy =                       -328.7414237609924612
  Basis Set: (AUG-CC-PVTZ AUX)
    Blend: AUG-CC-PVTZ-RI
    Molecular point group: c1

    Geometry (in Angstrom), charge = 1, multiplicity = 1:

       Center              X                  Y                   Z               Mass
    ------------   -----------------  -----------------  -----------------  -----------------
         N           -1.456655244721    -0.002843920542    -0.382970903583    14.003074004430
         C            0.768337755279    -0.678517920542     0.339307096417    12.000000000000
         C            0.837053755279     0.696386079458    -0.339017903583    12.000000000000
         C           -0.578987244721    -1.231941920542    -0.123713903583    12.000000000000
         C           -0.485760644721     1.179465479458    -0.154534003583    12.000000000000
         C            1.922581755279    -1.620478920542     0.019790096417    12.000000000000
         C            1.891719755279     1.639666079458     0.224806096417    12.000000000000
         C           -2.730437244721     0.015081079458     0.401690096417    12.000000000000
         H            0.727005755279    -0.513994920542     1.425201096417     1.007825032230
         H            1.017800755279     0.548885079458    -1.414262903583     1.007825032230
         H           -1.710560244721    -0.005258920542    -1.377787903583     1.007825032230
         H           -0.491304244721    -1.774700920542    -1.068822903583     1.007825032230
         H           -1.082338244721    -1.870177920542     0.605303096417     1.007825032230
         H           -0.741821244721     1.524872079458     0.894746096417     1.007825032230
         H           -0.893632244721     2.016567079458    -0.812606903583     1.007825032230
         H            2.865980755279    -1.209720920542     0.385918096417     1.007825032230
         H            1.781227755279    -2.594881920542     0.495489096417     1.007825032230
         H            2.009979755279    -1.773555920542    -1.060504903583     1.007825032230
         H            2.892947755279     1.232296079458     0.069142096417     1.007825032230
         H            1.852260755279     2.615722079458    -0.266226903583     1.007825032230
         H            1.744662755279     1.786923079458     1.299386096417     1.007825032230
         H           -2.476560244721    -0.033794920542     1.460244096417     1.007825032230
         H           -3.264308244721     0.940512079458     0.183681096417     1.007825032230
         H           -3.334800244721    -0.846127920542     0.116620096417     1.007825032230

  Basis Set: AUG-CC-PVTZ
    Blend: AUG-CC-PVTZ
  Basis Set: (AUG-CC-PVTZ AUX)
    Blend: AUG-CC-PVTZ-JKFIT
	 Reference Energy          =    -328.7414237609924612 [Eh]
	 Singles Energy            =      -0.0000000000000000 [Eh]
	 Same-Spin Energy          =      -0.3491077858518800 [Eh]
	 Opposite-Spin Energy      =      -1.2514296282856643 [Eh]
	 Correlation Energy        =      -1.6005374141375444 [Eh]
	 Total Energy              =    -330.3419611751299954 [Eh]

	 ================> DF-SCS-MP2 Energies <==================
	-----------------------------------------------------------
	 SCS Same-Spin Scale       =       0.3333333333333333 [-]
	 SCS Opposite-Spin Scale   =       1.2000000000000000 [-]
	 SCS Same-Spin Energy      =      -0.1163692619506266 [Eh]
	 SCS Opposite-Spin Energy  =      -1.5017155539427971 [Eh]
	 SCS Correlation Energy    =      -1.6180848158934238 [Eh]
	 SCS Total Energy          =    -330.3595085768859008 [Eh]
	-----------------------------------------------------------

  Dipole Moment: [D]
     X:    -4.2798      Y:     0.0211      Z:    -0.8463     Total:     4.3627

*** Psi4 exiting successfully. Buy a developer a beer!
