                               Psi4 1.4a3.dev225

  ==> Input File <==

--------------------------------------------------------------------------
#psi4
#
memory 32 gb

molecule  {
1 1
  N       -1.4549350    -0.0063160    -0.3913190
  C        0.7700580    -0.6819900     0.3309590
  C        0.8387740     0.6929140    -0.3473660
  C       -0.5772670    -1.2354140    -0.1320620
  C       -0.5771770     1.2100060    -0.1498930
  C        1.9243020    -1.6239510     0.0114420
  C        1.8934400     1.6361940     0.2164580
  C       -2.7287170     0.0116090     0.3933420
  H        0.7287260    -0.5174670     1.4168530
  H        1.0195210     0.5454130    -1.4226110
  H       -1.7088400    -0.0087310    -1.3861360
  H       -0.4895840    -1.7781730    -1.0771710
  H       -1.0806180    -1.8736500     0.5969550
  H       -0.7401010     1.5214000     0.8863980
  H       -0.8919120     2.0130950    -0.8209550
  H        2.8677010    -1.2131930     0.3775700
  H        1.7829480    -2.5983540     0.4871410
  H        2.0117000    -1.7770280    -1.0688530
  H        2.8914472     1.2285314     0.0420102
  H        1.8539810     2.6122500    -0.2745750
  H        1.7463830     1.7834510     1.2910380
  H       -2.4748400    -0.0372670     1.4518960
  H       -3.2625880     0.9370400     0.1753330
  H       -3.3330800    -0.8496000     0.1082720
units angstrom
no_reorient  #important for SAPT in psi4, default
symmetry c1  #important for SAPT in psi4, default
}

set PROPERTIES_ORIGIN ["COM"]
properties('MP2/aug-cc-pvtz', properties = ['dipole'])
--------------------------------------------------------------------------

    Molecular point group: c1
  Charge       = 1
  Multiplicity = 1
  Basis Set: AUG-CC-PVTZ
    Blend: AUG-CC-PVTZ
  Basis Set: (AUG-CC-PVTZ AUX)
    Blend: AUG-CC-PVTZ-JKFIT

    Orbital Energies [Eh]
    ---------------------

    Doubly Occupied:

       1A    -15.852088     2A    -11.448976     3A    -11.446176
       4A    -11.445582     5A    -11.390824     6A    -11.390120
       7A    -11.352854     8A    -11.352482     9A     -1.489387
      10A     -1.272079    11A     -1.193143    12A     -1.142622
      13A     -1.094836    14A     -1.065474    15A     -0.987137
      16A     -0.939431    17A     -0.903272    18A     -0.844702
      19A     -0.822065    20A     -0.786360    21A     -0.763184
      22A     -0.754876    23A     -0.735192    24A     -0.715388
      25A     -0.701623    26A     -0.697314    27A     -0.676019
      28A     -0.662729    29A     -0.647703    30A     -0.628171
      31A     -0.623189    32A     -0.602803

  @DF-RHF Final Energy:  -328.75416453476100

   => Energetics <=

    Nuclear Repulsion Energy =            424.4961647226116952
    One-Electron Energy =               -1273.6450581133428841
    Two-Electron Energy =                 520.3947288559702429
    Total Energy =                       -328.7541645347610029
  Basis Set: (AUG-CC-PVTZ AUX)
    Blend: AUG-CC-PVTZ-RI
    Molecular point group: c1

    Geometry (in Angstrom), charge = 1, multiplicity = 1:

       Center              X                  Y                   Z               Mass
    ------------   -----------------  -----------------  -----------------  -----------------
         N           -1.446833969427    -0.006417586333    -0.384170767655    14.003074004430
         C            0.778159030573    -0.682091586333     0.338107232345    12.000000000000
         C            0.846875030573     0.692812413667    -0.340217767655    12.000000000000
         C           -0.569165969427    -1.235515586333    -0.124913767655    12.000000000000
         C           -0.569075969427     1.209904413667    -0.142744767655    12.000000000000
         C            1.932403030573    -1.624052586333     0.018590232345    12.000000000000
         C            1.901541030573     1.636092413667     0.223606232345    12.000000000000
         C           -2.720615969427     0.011507413667     0.400490232345    12.000000000000
         H            0.736827030573    -0.517568586333     1.424001232345     1.007825032230
         H            1.027622030573     0.545311413667    -1.415462767655     1.007825032230
         H           -1.700738969427    -0.008832586333    -1.378987767655     1.007825032230
         H           -0.481482969427    -1.778274586333    -1.070022767655     1.007825032230
         H           -1.072516969427    -1.873751586333     0.604103232345     1.007825032230
         H           -0.731999969427     1.521298413667     0.893546232345     1.007825032230
         H           -0.883810969427     2.012993413667    -0.813806767655     1.007825032230
         H            2.875802030573    -1.213294586333     0.384718232345     1.007825032230
         H            1.791049030573    -2.598455586333     0.494289232345     1.007825032230
         H            2.019801030573    -1.777129586333    -1.061704767655     1.007825032230
         H            2.899548230573     1.228429813667     0.049158432345     1.007825032230
         H            1.862082030573     2.612148413667    -0.267426767655     1.007825032230
         H            1.754484030573     1.783349413667     1.298186232345     1.007825032230
         H           -2.466738969427    -0.037368586333     1.459044232345     1.007825032230
         H           -3.254486969427     0.936938413667     0.182481232345     1.007825032230
         H           -3.324978969427    -0.849701586333     0.115420232345     1.007825032230

  Basis Set: AUG-CC-PVTZ
    Blend: AUG-CC-PVTZ
  Basis Set: (AUG-CC-PVTZ AUX)
    Blend: AUG-CC-PVTZ-JKFIT
	 Reference Energy          =    -328.7541645347610029 [Eh]
	 Singles Energy            =      -0.0000000000000000 [Eh]
	 Same-Spin Energy          =      -0.3478093696327661 [Eh]
	 Opposite-Spin Energy      =      -1.2498787785405561 [Eh]
	 Correlation Energy        =      -1.5976881481733223 [Eh]
	 Total Energy              =    -330.3518526829343500 [Eh]

	 ================> DF-SCS-MP2 Energies <==================
	-----------------------------------------------------------
	 SCS Same-Spin Scale       =       0.3333333333333333 [-]
	 SCS Opposite-Spin Scale   =       1.2000000000000000 [-]
	 SCS Same-Spin Energy      =      -0.1159364565442554 [Eh]
	 SCS Opposite-Spin Energy  =      -1.4998545342486673 [Eh]
	 SCS Correlation Energy    =      -1.6157909907929227 [Eh]
	 SCS Total Energy          =    -330.3699555255539053 [Eh]
	-----------------------------------------------------------

  Dipole Moment: [D]
     X:    -4.3556      Y:     0.0035      Z:    -0.8716     Total:     4.4420

*** Psi4 exiting successfully. Buy a developer a beer!
