                               Psi4 1.4a3.dev225

  ==> Input File <==

--------------------------------------------------------------------------
#psi4
#
memory 32 gb

molecule  {
1 1
  N       -1.4549350    -0.0063160    -0.3913190
  C        0.7700580    -0.6819900     0.3309590
  C        0.8387740     0.6929140    -0.3473660
  C       -0.5772670    -1.2354140    -0.1320620
  C       -0.5771770     1.2100060    -0.1498930
  C        1.9243020    -1.6239510     0.0114420
  C        1.8934400     1.6361940     0.2164580
  C       -2.7287170     0.0116090     0.3933420
  H        0.7287260    -0.5174670     1.4168530
  H        1.0195210     0.5454130    -1.4226110
  H       -1.7088400    -0.0087310    -1.3861360
  H       -0.4895840    -1.7781730    -1.0771710
  H       -1.1728181    -1.9905573     0.7304909
  H       -0.7401010     1.5214000     0.8863980
  H       -0.8919120     2.0130950    -0.8209550
  H        2.8677010    -1.2131930     0.3775700
  H        1.7829480    -2.5983540     0.4871410
  H        2.0117000    -1.7770280    -1.0688530
  H        2.8946680     1.2288240     0.0607940
  H        1.8539810     2.6122500    -0.2745750
  H        1.7463830     1.7834510     1.2910380
  H       -2.4748400    -0.0372670     1.4518960
  H       -3.2625880     0.9370400     0.1753330
  H       -3.3330800    -0.8496000     0.1082720
units angstrom
no_reorient  #important for SAPT in psi4, default
symmetry c1  #important for SAPT in psi4, default
}

set PROPERTIES_ORIGIN ["COM"]
properties('MP2/aug-cc-pvtz', properties = ['dipole'])
--------------------------------------------------------------------------

    Molecular point group: c1
  Charge       = 1
  Multiplicity = 1
  Basis Set: AUG-CC-PVTZ
    Blend: AUG-CC-PVTZ
  Basis Set: (AUG-CC-PVTZ AUX)
    Blend: AUG-CC-PVTZ-JKFIT

    Orbital Energies [Eh]
    ---------------------

    Doubly Occupied:

       1A    -15.853645     2A    -11.465699     3A    -11.448458
       4A    -11.446441     5A    -11.392039     6A    -11.391361
       7A    -11.353564     8A    -11.352718     9A     -1.489691
      10A     -1.272567    11A     -1.188588    12A     -1.142387
      13A     -1.092452    14A     -1.062698    15A     -0.981028
      16A     -0.939193    17A     -0.903536    18A     -0.841094
      19A     -0.818574    20A     -0.784192    21A     -0.757545
      22A     -0.751318    23A     -0.731453    24A     -0.709119
      25A     -0.701584    26A     -0.689791    27A     -0.674561
      28A     -0.663151    29A     -0.645491    30A     -0.628490
      31A     -0.622960    32A     -0.600703

  @DF-RHF Final Energy:  -328.73276845626475

   => Energetics <=

    Nuclear Repulsion Energy =            423.5584145622810865
    One-Electron Energy =               -1271.7901858149969030
    Two-Electron Energy =                 519.4990027964511228
    Total Energy =                       -328.7327684562646937
  Basis Set: (AUG-CC-PVTZ AUX)
    Blend: AUG-CC-PVTZ-RI
    Molecular point group: c1

    Geometry (in Angstrom), charge = 1, multiplicity = 1:

       Center              X                  Y                   Z               Mass
    ------------   -----------------  -----------------  -----------------  -----------------
         N           -1.446048225787    -0.005387804587    -0.385515847191    14.003074004430
         C            0.778944774213    -0.681061804587     0.336762152809    12.000000000000
         C            0.847660774213     0.693842195413    -0.341562847191    12.000000000000
         C           -0.568380225787    -1.234485804587    -0.126258847191    12.000000000000
         C           -0.568290225787     1.210934195413    -0.144089847191    12.000000000000
         C            1.933188774213    -1.623022804587     0.017245152809    12.000000000000
         C            1.902326774213     1.637122195413     0.222261152809    12.000000000000
         C           -2.719830225787     0.012537195413     0.399145152809    12.000000000000
         H            0.737612774213    -0.516538804587     1.422656152809     1.007825032230
         H            1.028407774213     0.546341195413    -1.416807847191     1.007825032230
         H           -1.699953225787    -0.007802804587    -1.380332847191     1.007825032230
         H           -0.480697225787    -1.777244804587    -1.071367847191     1.007825032230
         H           -1.163931325787    -1.989629104587     0.736294052809     1.007825032230
         H           -0.731214225787     1.522328195413     0.892201152809     1.007825032230
         H           -0.883025225787     2.014023195413    -0.815151847191     1.007825032230
         H            2.876587774213    -1.212264804587     0.383373152809     1.007825032230
         H            1.791834774213    -2.597425804587     0.492944152809     1.007825032230
         H            2.020586774213    -1.776099804587    -1.063049847191     1.007825032230
         H            2.903554774213     1.229752195413     0.066597152809     1.007825032230
         H            1.862867774213     2.613178195413    -0.268771847191     1.007825032230
         H            1.755269774213     1.784379195413     1.296841152809     1.007825032230
         H           -2.465953225787    -0.036338804587     1.457699152809     1.007825032230
         H           -3.253701225787     0.937968195413     0.181136152809     1.007825032230
         H           -3.324193225787    -0.848671804587     0.114075152809     1.007825032230

  Basis Set: AUG-CC-PVTZ
    Blend: AUG-CC-PVTZ
  Basis Set: (AUG-CC-PVTZ AUX)
    Blend: AUG-CC-PVTZ-JKFIT
	 Reference Energy          =    -328.7327684562647505 [Eh]
	 Singles Energy            =      -0.0000000000000000 [Eh]
	 Same-Spin Energy          =      -0.3482999564201248 [Eh]
	 Opposite-Spin Energy      =      -1.2520274987404325 [Eh]
	 Correlation Energy        =      -1.6003274551605573 [Eh]
	 Total Energy              =    -330.3330959114252892 [Eh]

	 ================> DF-SCS-MP2 Energies <==================
	-----------------------------------------------------------
	 SCS Same-Spin Scale       =       0.3333333333333333 [-]
	 SCS Opposite-Spin Scale   =       1.2000000000000000 [-]
	 SCS Same-Spin Energy      =      -0.1160999854733749 [Eh]
	 SCS Opposite-Spin Energy  =      -1.5024329984885190 [Eh]
	 SCS Correlation Energy    =      -1.6185329839618938 [Eh]
	 SCS Total Energy          =    -330.3513014402266208 [Eh]
	-----------------------------------------------------------

  Dipole Moment: [D]
     X:    -4.3164      Y:     0.0339      Z:    -0.8620     Total:     4.4018

*** Psi4 exiting successfully. Buy a developer a beer!
