                               Psi4 1.4a3.dev225

  ==> Input File <==

--------------------------------------------------------------------------
#psi4
#
memory 32 gb

molecule  {
1 1
  N       -1.4549350    -0.0063160    -0.3913190
  C        0.7700580    -0.6819900     0.3309590
  C        0.8387740     0.6929140    -0.3473660
  C       -0.5772670    -1.2354140    -0.1320620
  C       -0.5771770     1.2100060    -0.1498930
  C        1.9243020    -1.6239510     0.0114420
  C        1.8934400     1.6361940     0.2164580
  C       -2.7287170     0.0116090     0.3933420
  H        0.7287260    -0.5174670     1.4168530
  H        1.0195210     0.5454130    -1.4226110
  H       -1.7088400    -0.0087310    -1.3861360
  H       -0.4895840    -1.7781730    -1.0771710
  H       -1.0806180    -1.8736500     0.5969550
  H       -0.7401010     1.5214000     0.8863980
  H       -0.8919120     2.0130950    -0.8209550
  H        2.8677010    -1.2131930     0.3775700
  H        1.7829480    -2.5983540     0.4871410
  H        2.0117000    -1.7770280    -1.0688530
  H        2.8488276     1.2474751     0.0679209
  H        1.8539810     2.6122500    -0.2745750
  H        1.7463830     1.7834510     1.2910380
  H       -2.4748400    -0.0372670     1.4518960
  H       -3.2625880     0.9370400     0.1753330
  H       -3.3330800    -0.8496000     0.1082720
units angstrom
no_reorient  #important for SAPT in psi4, default
symmetry c1  #important for SAPT in psi4, default
}

set PROPERTIES_ORIGIN ["COM"]
properties('MP2/aug-cc-pvtz', properties = ['dipole'])
--------------------------------------------------------------------------

    Molecular point group: c1
  Charge       = 1
  Multiplicity = 1
  Basis Set: AUG-CC-PVTZ
    Blend: AUG-CC-PVTZ
  Basis Set: (AUG-CC-PVTZ AUX)
    Blend: AUG-CC-PVTZ-JKFIT

    Orbital Energies [Eh]
    ---------------------

    Doubly Occupied:

       1A    -15.851967     2A    -11.448889     3A    -11.446131
       4A    -11.445399     5A    -11.390666     6A    -11.390039
       7A    -11.352638     8A    -11.346972     9A     -1.489275
      10A     -1.272218    11A     -1.193294    12A     -1.143096
      13A     -1.096861    14A     -1.066610    15A     -0.988118
      16A     -0.940116    17A     -0.903278    18A     -0.845557
      19A     -0.821955    20A     -0.786287    21A     -0.763812
      22A     -0.754855    23A     -0.737190    24A     -0.715253
      25A     -0.701680    26A     -0.697460    27A     -0.678601
      28A     -0.664922    29A     -0.647375    30A     -0.630452
      31A     -0.623294    32A     -0.603019

  @DF-RHF Final Energy:  -328.75324743872329

   => Energetics <=

    Nuclear Repulsion Energy =            424.7096188973266067
    One-Electron Energy =               -1274.0511740020281195
    Two-Electron Energy =                 520.5883076659781636
    Total Energy =                       -328.7532474387232924
  Basis Set: (AUG-CC-PVTZ AUX)
    Blend: AUG-CC-PVTZ-RI
    Molecular point group: c1

    Geometry (in Angstrom), charge = 1, multiplicity = 1:

       Center              X                  Y                   Z               Mass
    ------------   -----------------  -----------------  -----------------  -----------------
         N           -1.446457611334    -0.006584871216    -0.384399575566    14.003074004430
         C            0.778535388666    -0.682258871216     0.337878424434    12.000000000000
         C            0.847251388666     0.692645128784    -0.340446575566    12.000000000000
         C           -0.568789611334    -1.235682871216    -0.125142575566    12.000000000000
         C           -0.568699611334     1.209737128784    -0.142973575566    12.000000000000
         C            1.932779388666    -1.624219871216     0.018361424434    12.000000000000
         C            1.901917388666     1.635925128784     0.223377424434    12.000000000000
         C           -2.720239611334     0.011340128784     0.400261424434    12.000000000000
         H            0.737203388666    -0.517735871216     1.423772424434     1.007825032230
         H            1.027998388666     0.545144128784    -1.415691575566     1.007825032230
         H           -1.700362611334    -0.008999871216    -1.379216575566     1.007825032230
         H           -0.481106611334    -1.778441871216    -1.070251575566     1.007825032230
         H           -1.072140611334    -1.873918871216     0.603874424434     1.007825032230
         H           -0.731623611334     1.521131128784     0.893317424434     1.007825032230
         H           -0.883434611334     2.012826128784    -0.814035575566     1.007825032230
         H            2.876178388666    -1.213461871216     0.384489424434     1.007825032230
         H            1.791425388666    -2.598622871216     0.494060424434     1.007825032230
         H            2.020177388666    -1.777296871216    -1.061933575566     1.007825032230
         H            2.857304988666     1.247206228784     0.074840324434     1.007825032230
         H            1.862458388666     2.611981128784    -0.267655575566     1.007825032230
         H            1.754860388666     1.783182128784     1.297957424434     1.007825032230
         H           -2.466362611334    -0.037535871216     1.458815424434     1.007825032230
         H           -3.254110611334     0.936771128784     0.182252424434     1.007825032230
         H           -3.324602611334    -0.849868871216     0.115191424434     1.007825032230

  Basis Set: AUG-CC-PVTZ
    Blend: AUG-CC-PVTZ
  Basis Set: (AUG-CC-PVTZ AUX)
    Blend: AUG-CC-PVTZ-JKFIT
	 Reference Energy          =    -328.7532474387232924 [Eh]
	 Singles Energy            =      -0.0000000000000000 [Eh]
	 Same-Spin Energy          =      -0.3477812387634709 [Eh]
	 Opposite-Spin Energy      =      -1.2495496001737860 [Eh]
	 Correlation Energy        =      -1.5973308389372569 [Eh]
	 Total Energy              =    -330.3505782776605315 [Eh]

	 ================> DF-SCS-MP2 Energies <==================
	-----------------------------------------------------------
	 SCS Same-Spin Scale       =       0.3333333333333333 [-]
	 SCS Opposite-Spin Scale   =       1.2000000000000000 [-]
	 SCS Same-Spin Energy      =      -0.1159270795878236 [Eh]
	 SCS Opposite-Spin Energy  =      -1.4994595202085432 [Eh]
	 SCS Correlation Energy    =      -1.6153865997963668 [Eh]
	 SCS Total Energy          =    -330.3686340385196445 [Eh]
	-----------------------------------------------------------

  Dipole Moment: [D]
     X:    -4.3418      Y:    -0.0012      Z:    -0.8670     Total:     4.4275

*** Psi4 exiting successfully. Buy a developer a beer!
