                               Psi4 1.4a3.dev225

  ==> Input File <==

--------------------------------------------------------------------------
#psi4
#
memory 32 gb

molecule  {
1 1
  N       -1.4549350    -0.0063160    -0.3913190
  C        0.7700580    -0.6819900     0.3309590
  C        0.8387740     0.6929140    -0.3473660
  C       -0.5772670    -1.2354140    -0.1320620
  C       -0.5771770     1.2100060    -0.1498930
  C        1.9243020    -1.6239510     0.0114420
  C        1.8934400     1.6361940     0.2164580
  C       -2.7148281     0.0115731     0.4154548
  H        0.7287260    -0.5174670     1.4168530
  H        1.0195210     0.5454130    -1.4226110
  H       -1.7088400    -0.0087310    -1.3861360
  H       -0.4895840    -1.7781730    -1.0771710
  H       -1.0806180    -1.8736500     0.5969550
  H       -0.7401010     1.5214000     0.8863980
  H       -0.8919120     2.0130950    -0.8209550
  H        2.8677010    -1.2131930     0.3775700
  H        1.7829480    -2.5983540     0.4871410
  H        2.0117000    -1.7770280    -1.0688530
  H        2.8946680     1.2288240     0.0607940
  H        1.8539810     2.6122500    -0.2745750
  H        1.7463830     1.7834510     1.2910380
  H       -2.4748400    -0.0372670     1.4518960
  H       -3.2625880     0.9370400     0.1753330
  H       -3.3330800    -0.8496000     0.1082720
units angstrom
no_reorient  #important for SAPT in psi4, default
symmetry c1  #important for SAPT in psi4, default
}

set PROPERTIES_ORIGIN ["COM"]
properties('MP2/aug-cc-pvtz', properties = ['dipole'])
--------------------------------------------------------------------------

    Molecular point group: c1
  Charge       = 1
  Multiplicity = 1
  Basis Set: AUG-CC-PVTZ
    Blend: AUG-CC-PVTZ
  Basis Set: (AUG-CC-PVTZ AUX)
    Blend: AUG-CC-PVTZ-JKFIT

    Orbital Energies [Eh]
    ---------------------

    Doubly Occupied:

       1A    -15.852242     2A    -11.449124     3A    -11.446041
       4A    -11.445519     5A    -11.390831     6A    -11.390100
       7A    -11.352757     8A    -11.352464     9A     -1.489553
      10A     -1.271837    11A     -1.193161    12A     -1.142627
      13A     -1.094799    14A     -1.066271    15A     -0.987170
      16A     -0.939359    17A     -0.903354    18A     -0.844723
      19A     -0.821059    20A     -0.786558    21A     -0.763068
      22A     -0.757816    23A     -0.736725    24A     -0.713697
      25A     -0.700350    26A     -0.697239    27A     -0.676295
      28A     -0.662441    29A     -0.647342    30A     -0.628099
      31A     -0.622896    32A     -0.602939

  @DF-RHF Final Energy:  -328.75334669470243

   => Energetics <=

    Nuclear Repulsion Energy =            424.5970581250605278
    One-Electron Energy =               -1273.8439020608350347
    Two-Electron Energy =                 520.4934972410719638
    Total Energy =                       -328.7533466947024863
  Basis Set: (AUG-CC-PVTZ AUX)
    Blend: AUG-CC-PVTZ-RI
    Molecular point group: c1

    Geometry (in Angstrom), charge = 1, multiplicity = 1:

       Center              X                  Y                   Z               Mass
    ------------   -----------------  -----------------  -----------------  -----------------
         N           -1.448322757404    -0.006416395476    -0.386661687500    14.003074004430
         C            0.776670242596    -0.682090395476     0.335616312500    12.000000000000
         C            0.845386242596     0.692813604524    -0.342708687500    12.000000000000
         C           -0.570654757404    -1.235514395476    -0.127404687500    12.000000000000
         C           -0.570564757404     1.209905604524    -0.145235687500    12.000000000000
         C            1.930914242596    -1.624051395476     0.016099312500    12.000000000000
         C            1.900052242596     1.636093604524     0.221115312500    12.000000000000
         C           -2.708215857404     0.011472704524     0.420112112500    12.000000000000
         H            0.735338242596    -0.517567395476     1.421510312500     1.007825032230
         H            1.026133242596     0.545312604524    -1.417953687500     1.007825032230
         H           -1.702227757404    -0.008831395476    -1.381478687500     1.007825032230
         H           -0.482971757404    -1.778273395476    -1.072513687500     1.007825032230
         H           -1.074005757404    -1.873750395476     0.601612312500     1.007825032230
         H           -0.733488757404     1.521299604524     0.891055312500     1.007825032230
         H           -0.885299757404     2.012994604524    -0.816297687500     1.007825032230
         H            2.874313242596    -1.213293395476     0.382227312500     1.007825032230
         H            1.789560242596    -2.598454395476     0.491798312500     1.007825032230
         H            2.018312242596    -1.777128395476    -1.064195687500     1.007825032230
         H            2.901280242596     1.228723604524     0.065451312500     1.007825032230
         H            1.860593242596     2.612149604524    -0.269917687500     1.007825032230
         H            1.752995242596     1.783350604524     1.295695312500     1.007825032230
         H           -2.468227757404    -0.037367395476     1.456553312500     1.007825032230
         H           -3.255975757404     0.936939604524     0.179990312500     1.007825032230
         H           -3.326467757404    -0.849700395476     0.112929312500     1.007825032230

  Basis Set: AUG-CC-PVTZ
    Blend: AUG-CC-PVTZ
  Basis Set: (AUG-CC-PVTZ AUX)
    Blend: AUG-CC-PVTZ-JKFIT
	 Reference Energy          =    -328.7533466947024294 [Eh]
	 Singles Energy            =      -0.0000000000000000 [Eh]
	 Same-Spin Energy          =      -0.3478224979842420 [Eh]
	 Opposite-Spin Energy      =      -1.2499483340385087 [Eh]
	 Correlation Energy        =      -1.5977708320227508 [Eh]
	 Total Energy              =    -330.3511175267252042 [Eh]

	 ================> DF-SCS-MP2 Energies <==================
	-----------------------------------------------------------
	 SCS Same-Spin Scale       =       0.3333333333333333 [-]
	 SCS Opposite-Spin Scale   =       1.2000000000000000 [-]
	 SCS Same-Spin Energy      =      -0.1159408326614140 [Eh]
	 SCS Opposite-Spin Energy  =      -1.4999380008462104 [Eh]
	 SCS Correlation Energy    =      -1.6158788335076244 [Eh]
	 SCS Total Energy          =    -330.3692255282100518 [Eh]
	-----------------------------------------------------------

  Dipole Moment: [D]
     X:    -4.3613      Y:     0.0011      Z:    -0.8676     Total:     4.4468

*** Psi4 exiting successfully. Buy a developer a beer!
