                               Psi4 1.4a3.dev225

  ==> Input File <==

--------------------------------------------------------------------------
#psi4
#
memory 32 gb

molecule  {
1 1
  N       -1.4549350    -0.0063160    -0.3913190
  C        0.7700580    -0.6819900     0.3309590
  C        0.8387740     0.6929140    -0.3473660
  C       -0.5772670    -1.2354140    -0.1320620
  C       -0.5771770     1.2100060    -0.1498930
  C        1.9243020    -1.6239510     0.0114420
  C        1.8934400     1.6361940     0.2164580
  C       -2.7287170     0.0116090     0.3933420
  H        0.7287260    -0.5174670     1.4168530
  H        1.0195210     0.5454130    -1.4226110
  H       -1.7088400    -0.0087310    -1.3861360
  H       -0.4895840    -1.7781730    -1.0771710
  H       -1.1267180    -1.9321036     0.6637229
  H       -0.7401010     1.5214000     0.8863980
  H       -0.8919120     2.0130950    -0.8209550
  H        2.8677010    -1.2131930     0.3775700
  H        1.7829480    -2.5983540     0.4871410
  H        2.0117000    -1.7770280    -1.0688530
  H        2.8946680     1.2288240     0.0607940
  H        1.8539810     2.6122500    -0.2745750
  H        1.7463830     1.7834510     1.2910380
  H       -2.4748400    -0.0372670     1.4518960
  H       -3.2625880     0.9370400     0.1753330
  H       -3.3330800    -0.8496000     0.1082720
units angstrom
no_reorient  #important for SAPT in psi4, default
symmetry c1  #important for SAPT in psi4, default
}

set PROPERTIES_ORIGIN ["COM"]
properties('MP2/aug-cc-pvtz', properties = ['dipole'])
--------------------------------------------------------------------------

    Molecular point group: c1
  Charge       = 1
  Multiplicity = 1
  Basis Set: AUG-CC-PVTZ
    Blend: AUG-CC-PVTZ
  Basis Set: (AUG-CC-PVTZ AUX)
    Blend: AUG-CC-PVTZ-JKFIT

    Orbital Energies [Eh]
    ---------------------

    Doubly Occupied:

       1A    -15.852810     2A    -11.456436     3A    -11.448734
       4A    -11.446003     5A    -11.391405     6A    -11.390686
       7A    -11.353141     8A    -11.352578     9A     -1.489442
      10A     -1.272225    11A     -1.190295    12A     -1.142446
      13A     -1.093250    14A     -1.063850    15A     -0.983584
      16A     -0.939260    17A     -0.903340    18A     -0.842392
      19A     -0.819951    20A     -0.784934    21A     -0.758994
      22A     -0.753599    23A     -0.733171    24A     -0.712053
      25A     -0.701304    26A     -0.694475    27A     -0.675806
      28A     -0.663092    29A     -0.646667    30A     -0.628456
      31A     -0.622999    32A     -0.602104

  @DF-RHF Final Energy:  -328.74707613020894

   => Energetics <=

    Nuclear Repulsion Energy =            424.0009385761474618
    One-Electron Energy =               -1272.6770626336599435
    Two-Electron Energy =                 519.9290479273034862
    Total Energy =                       -328.7470761302089386
  Basis Set: (AUG-CC-PVTZ AUX)
    Blend: AUG-CC-PVTZ-RI
    Molecular point group: c1

    Geometry (in Angstrom), charge = 1, multiplicity = 1:

       Center              X                  Y                   Z               Mass
    ------------   -----------------  -----------------  -----------------  -----------------
         N           -1.446455318902    -0.005903987823    -0.384926243414    14.003074004430
         C            0.778537681098    -0.681577987823     0.337351756586    12.000000000000
         C            0.847253681098     0.693326012177    -0.340973243414    12.000000000000
         C           -0.568787318902    -1.235001987823    -0.125669243414    12.000000000000
         C           -0.568697318902     1.210418012177    -0.143500243414    12.000000000000
         C            1.932781681098    -1.623538987823     0.017834756586    12.000000000000
         C            1.901919681098     1.636606012177     0.222850756586    12.000000000000
         C           -2.720237318902     0.012021012177     0.399734756586    12.000000000000
         H            0.737205681098    -0.517054987823     1.423245756586     1.007825032230
         H            1.028000681098     0.545825012177    -1.416218243414     1.007825032230
         H           -1.700360318902    -0.008318987823    -1.379743243414     1.007825032230
         H           -0.481104318902    -1.777760987823    -1.070778243414     1.007825032230
         H           -1.118238318902    -1.931691587823     0.670115656586     1.007825032230
         H           -0.731621318902     1.521812012177     0.892790756586     1.007825032230
         H           -0.883432318902     2.013507012177    -0.814562243414     1.007825032230
         H            2.876180681098    -1.212780987823     0.383962756586     1.007825032230
         H            1.791427681098    -2.597941987823     0.493533756586     1.007825032230
         H            2.020179681098    -1.776615987823    -1.062460243414     1.007825032230
         H            2.903147681098     1.229236012177     0.067186756586     1.007825032230
         H            1.862460681098     2.612662012177    -0.268182243414     1.007825032230
         H            1.754862681098     1.783863012177     1.297430756586     1.007825032230
         H           -2.466360318902    -0.036854987823     1.458288756586     1.007825032230
         H           -3.254108318902     0.937452012177     0.181725756586     1.007825032230
         H           -3.324600318902    -0.849187987823     0.114664756586     1.007825032230

  Basis Set: AUG-CC-PVTZ
    Blend: AUG-CC-PVTZ
  Basis Set: (AUG-CC-PVTZ AUX)
    Blend: AUG-CC-PVTZ-JKFIT
	 Reference Energy          =    -328.7470761302089386 [Eh]
	 Singles Energy            =      -0.0000000000000000 [Eh]
	 Same-Spin Energy          =      -0.3480373434335566 [Eh]
	 Opposite-Spin Energy      =      -1.2508596841685211 [Eh]
	 Correlation Energy        =      -1.5988970276020777 [Eh]
	 Total Energy              =    -330.3459731578109881 [Eh]

	 ================> DF-SCS-MP2 Energies <==================
	-----------------------------------------------------------
	 SCS Same-Spin Scale       =       0.3333333333333333 [-]
	 SCS Opposite-Spin Scale   =       1.2000000000000000 [-]
	 SCS Same-Spin Energy      =      -0.1160124478111855 [Eh]
	 SCS Opposite-Spin Energy  =      -1.5010316210022252 [Eh]
	 SCS Correlation Energy    =      -1.6170440688134107 [Eh]
	 SCS Total Energy          =    -330.3641201990223522 [Eh]
	-----------------------------------------------------------

  Dipole Moment: [D]
     X:    -4.3382      Y:     0.0144      Z:    -0.8629     Total:     4.4232

*** Psi4 exiting successfully. Buy a developer a beer!
