                               Psi4 1.4a3.dev225

  ==> Input File <==

--------------------------------------------------------------------------
#psi4
#
memory 32 gb

molecule  {
1 1
  N       -1.3973591    -0.0080487    -0.5395451
  C        0.7700580    -0.6819900     0.3309590
  C        0.8387740     0.6929140    -0.3473660
  C       -0.5772670    -1.2354140    -0.1320620
  C       -0.5771770     1.2100060    -0.1498930
  C        1.9243020    -1.6239510     0.0114420
  C        1.8934400     1.6361940     0.2164580
  C       -2.7287170     0.0116090     0.3933420
  H        0.7287260    -0.5174670     1.4168530
  H        1.0195210     0.5454130    -1.4226110
  H       -1.7088400    -0.0087310    -1.3861360
  H       -0.4895840    -1.7781730    -1.0771710
  H       -1.0806180    -1.8736500     0.5969550
  H       -0.7401010     1.5214000     0.8863980
  H       -0.8919120     2.0130950    -0.8209550
  H        2.8677010    -1.2131930     0.3775700
  H        1.7829480    -2.5983540     0.4871410
  H        2.0117000    -1.7770280    -1.0688530
  H        2.8946680     1.2288240     0.0607940
  H        1.8539810     2.6122500    -0.2745750
  H        1.7463830     1.7834510     1.2910380
  H       -2.4748400    -0.0372670     1.4518960
  H       -3.2625880     0.9370400     0.1753330
  H       -3.3330800    -0.8496000     0.1082720
units angstrom
no_reorient  #important for SAPT in psi4, default
symmetry c1  #important for SAPT in psi4, default
}

set PROPERTIES_ORIGIN ["COM"]
properties('MP2/aug-cc-pvtz', properties = ['dipole'])
--------------------------------------------------------------------------

    Molecular point group: c1
  Charge       = 1
  Multiplicity = 1
  Basis Set: AUG-CC-PVTZ
    Blend: AUG-CC-PVTZ
  Basis Set: (AUG-CC-PVTZ AUX)
    Blend: AUG-CC-PVTZ-JKFIT

    Orbital Energies [Eh]
    ---------------------

    Doubly Occupied:

       1A    -15.840562     2A    -11.461258     3A    -11.445611
       4A    -11.445141     5A    -11.388894     6A    -11.387957
       7A    -11.351291     8A    -11.350651     9A     -1.487486
      10A     -1.268446    11A     -1.191483    12A     -1.134963
      13A     -1.092662    14A     -1.088968    15A     -0.991045
      16A     -0.933512    17A     -0.908942    18A     -0.840503
      19A     -0.810186    20A     -0.785348    21A     -0.762135
      22A     -0.760936    23A     -0.736520    24A     -0.724743
      25A     -0.699688    26A     -0.694897    27A     -0.674780
      28A     -0.652489    29A     -0.644480    30A     -0.626797
      31A     -0.620850    32A     -0.601019

  @DF-RHF Final Energy:  -328.72469093787191

   => Energetics <=

    Nuclear Repulsion Energy =            423.8806520809314407
    One-Electron Energy =               -1272.4021962958659060
    Two-Electron Energy =                 519.7968532770626098
    Total Energy =                       -328.7246909378718556
  Basis Set: (AUG-CC-PVTZ AUX)
    Blend: AUG-CC-PVTZ-RI
    Molecular point group: c1

    Geometry (in Angstrom), charge = 1, multiplicity = 1:

       Center              X                  Y                   Z               Mass
    ------------   -----------------  -----------------  -----------------  -----------------
         N           -1.396350839338    -0.007940274950    -0.514376002339    14.003074004430
         C            0.771066260662    -0.681881574950     0.356128097661    12.000000000000
         C            0.839782260662     0.693022425050    -0.322196902339    12.000000000000
         C           -0.576258739338    -1.235305574950    -0.106892902339    12.000000000000
         C           -0.576168739338     1.210114425050    -0.124723902339    12.000000000000
         C            1.925310260662    -1.623842574950     0.036611097661    12.000000000000
         C            1.894448260662     1.636302425050     0.241627097661    12.000000000000
         C           -2.727708739338     0.011717425050     0.418511097661    12.000000000000
         H            0.729734260662    -0.517358574950     1.442022097661     1.007825032230
         H            1.020529260662     0.545521425050    -1.397441902339     1.007825032230
         H           -1.707831739338    -0.008622574950    -1.360966902339     1.007825032230
         H           -0.488575739338    -1.778064574950    -1.052001902339     1.007825032230
         H           -1.079609739338    -1.873541574950     0.622124097661     1.007825032230
         H           -0.739092739338     1.521508425050     0.911567097661     1.007825032230
         H           -0.890903739338     2.013203425050    -0.795785902339     1.007825032230
         H            2.868709260662    -1.213084574950     0.402739097661     1.007825032230
         H            1.783956260662    -2.598245574950     0.512310097661     1.007825032230
         H            2.012708260662    -1.776919574950    -1.043683902339     1.007825032230
         H            2.895676260662     1.228932425050     0.085963097661     1.007825032230
         H            1.854989260662     2.612358425050    -0.249405902339     1.007825032230
         H            1.747391260662     1.783559425050     1.316207097661     1.007825032230
         H           -2.473831739338    -0.037158574950     1.477065097661     1.007825032230
         H           -3.261579739338     0.937148425050     0.200502097661     1.007825032230
         H           -3.332071739338    -0.849491574950     0.133441097661     1.007825032230

  Basis Set: AUG-CC-PVTZ
    Blend: AUG-CC-PVTZ
  Basis Set: (AUG-CC-PVTZ AUX)
    Blend: AUG-CC-PVTZ-JKFIT
	 Reference Energy          =    -328.7246909378719124 [Eh]
	 Singles Energy            =      -0.0000000000000000 [Eh]
	 Same-Spin Energy          =      -0.3471585297655182 [Eh]
	 Opposite-Spin Energy      =      -1.2498942838508569 [Eh]
	 Correlation Energy        =      -1.5970528136163751 [Eh]
	 Total Energy              =    -330.3217437514882704 [Eh]

	 ================> DF-SCS-MP2 Energies <==================
	-----------------------------------------------------------
	 SCS Same-Spin Scale       =       0.3333333333333333 [-]
	 SCS Opposite-Spin Scale   =       1.2000000000000000 [-]
	 SCS Same-Spin Energy      =      -0.1157195099218394 [Eh]
	 SCS Opposite-Spin Energy  =      -1.4998731406210282 [Eh]
	 SCS Correlation Energy    =      -1.6155926505428675 [Eh]
	 SCS Total Energy          =    -330.3402835884147635 [Eh]
	-----------------------------------------------------------

  Dipole Moment: [D]
     X:    -4.5425      Y:     0.0107      Z:    -0.6543     Total:     4.5894

*** Psi4 exiting successfully. Buy a developer a beer!
