                               Psi4 1.4a3.dev225

  ==> Input File <==

--------------------------------------------------------------------------
#psi4
#
memory 32 gb

molecule  {
1 1
  N       -1.4549350    -0.0063160    -0.3913190
  C        0.7700580    -0.6819900     0.3309590
  C        0.8387740     0.6929140    -0.3473660
  C       -0.5772670    -1.2354140    -0.1320620
  C       -0.5771770     1.2100060    -0.1498930
  C        1.9243020    -1.6239510     0.0114420
  C        1.8934400     1.6361940     0.2164580
  C       -2.7287170     0.0116090     0.3933420
  H        0.7287260    -0.5174670     1.4168530
  H        1.0195210     0.5454130    -1.4226110
  H       -1.7088400    -0.0087310    -1.3861360
  H       -0.4895840    -1.7781730    -1.0771710
  H       -1.0806180    -1.8736500     0.5969550
  H       -0.7401010     1.5214000     0.8863980
  H       -0.8919120     2.0130950    -0.8209550
  H        2.8677010    -1.2131930     0.3775700
  H        1.7829480    -2.5983540     0.4871410
  H        2.0117000    -1.7770280    -1.0688530
  H        2.8946680     1.2288240     0.0607940
  H        1.8503719     2.7015242    -0.3194870
  H        1.7463830     1.7834510     1.2910380
  H       -2.4748400    -0.0372670     1.4518960
  H       -3.2625880     0.9370400     0.1753330
  H       -3.3330800    -0.8496000     0.1082720
units angstrom
no_reorient  #important for SAPT in psi4, default
symmetry c1  #important for SAPT in psi4, default
}

set PROPERTIES_ORIGIN ["COM"]
properties('MP2/aug-cc-pvtz', properties = ['dipole'])
--------------------------------------------------------------------------

    Molecular point group: c1
  Charge       = 1
  Multiplicity = 1
  Basis Set: AUG-CC-PVTZ
    Blend: AUG-CC-PVTZ
  Basis Set: (AUG-CC-PVTZ AUX)
    Blend: AUG-CC-PVTZ-JKFIT

    Orbital Energies [Eh]
    ---------------------

    Doubly Occupied:

       1A    -15.852313     2A    -11.449152     3A    -11.446654
       4A    -11.445768     5A    -11.391735     6A    -11.390886
       7A    -11.364114     8A    -11.352981     9A     -1.489646
      10A     -1.272271    11A     -1.192829    12A     -1.142313
      13A     -1.092179    14A     -1.064098    15A     -0.984900
      16A     -0.939508    17A     -0.903386    18A     -0.844191
      19A     -0.822352    20A     -0.785808    21A     -0.763516
      22A     -0.753409    23A     -0.733832    24A     -0.714650
      25A     -0.700951    26A     -0.697583    27A     -0.666484
      28A     -0.663146    29A     -0.647733    30A     -0.629095
      31A     -0.623380    32A     -0.597900

  @DF-RHF Final Energy:  -328.74767947535554

   => Energetics <=

    Nuclear Repulsion Energy =            424.0602044958282590
    One-Electron Energy =               -1272.7782421931619865
    Two-Electron Energy =                 519.9703582219782447
    Total Energy =                       -328.7476794753555396
  Basis Set: (AUG-CC-PVTZ AUX)
    Blend: AUG-CC-PVTZ-RI
    Molecular point group: c1

    Geometry (in Angstrom), charge = 1, multiplicity = 1:

       Center              X                  Y                   Z               Mass
    ------------   -----------------  -----------------  -----------------  -----------------
         N           -1.446830540492    -0.007208517970    -0.383940039081    14.003074004430
         C            0.778162459508    -0.682882517970     0.338337960919    12.000000000000
         C            0.846878459508     0.692021482030    -0.339987039081    12.000000000000
         C           -0.569162540492    -1.236306517970    -0.124683039081    12.000000000000
         C           -0.569072540492     1.209113482030    -0.142514039081    12.000000000000
         C            1.932406459508    -1.624843517970     0.018820960919    12.000000000000
         C            1.901544459508     1.635301482030     0.223836960919    12.000000000000
         C           -2.720612540492     0.010716482030     0.400720960919    12.000000000000
         H            0.736830459508    -0.518359517970     1.424231960919     1.007825032230
         H            1.027625459508     0.544520482030    -1.415232039081     1.007825032230
         H           -1.700735540492    -0.009623517970    -1.378757039081     1.007825032230
         H           -0.481479540492    -1.779065517970    -1.069792039081     1.007825032230
         H           -1.072513540492    -1.874542517970     0.604333960919     1.007825032230
         H           -0.731996540492     1.520507482030     0.893776960919     1.007825032230
         H           -0.883807540492     2.012202482030    -0.813576039081     1.007825032230
         H            2.875805459508    -1.214085517970     0.384948960919     1.007825032230
         H            1.791052459508    -2.599246517970     0.494519960919     1.007825032230
         H            2.019804459508    -1.777920517970    -1.061474039081     1.007825032230
         H            2.902772459508     1.227931482030     0.068172960919     1.007825032230
         H            1.858476359508     2.700631682030    -0.312108039081     1.007825032230
         H            1.754487459508     1.782558482030     1.298416960919     1.007825032230
         H           -2.466735540492    -0.038159517970     1.459274960919     1.007825032230
         H           -3.254483540492     0.936147482030     0.182711960919     1.007825032230
         H           -3.324975540492    -0.850492517970     0.115650960919     1.007825032230

  Basis Set: AUG-CC-PVTZ
    Blend: AUG-CC-PVTZ
  Basis Set: (AUG-CC-PVTZ AUX)
    Blend: AUG-CC-PVTZ-JKFIT
	 Reference Energy          =    -328.7476794753555396 [Eh]
	 Singles Energy            =      -0.0000000000000000 [Eh]
	 Same-Spin Energy          =      -0.3477990472830358 [Eh]
	 Opposite-Spin Energy      =      -1.2505997749677102 [Eh]
	 Correlation Energy        =      -1.5983988222507461 [Eh]
	 Total Energy              =    -330.3460782976063115 [Eh]

	 ================> DF-SCS-MP2 Energies <==================
	-----------------------------------------------------------
	 SCS Same-Spin Scale       =       0.3333333333333333 [-]
	 SCS Opposite-Spin Scale   =       1.2000000000000000 [-]
	 SCS Same-Spin Energy      =      -0.1159330157610119 [Eh]
	 SCS Opposite-Spin Energy  =      -1.5007197299612522 [Eh]
	 SCS Correlation Energy    =      -1.6166527457222641 [Eh]
	 SCS Total Energy          =    -330.3643322210778024 [Eh]
	-----------------------------------------------------------

  Dipole Moment: [D]
     X:    -4.3627      Y:    -0.0428      Z:    -0.8545     Total:     4.4458

*** Psi4 exiting successfully. Buy a developer a beer!
