                               Psi4 1.4a3.dev225

  ==> Input File <==

--------------------------------------------------------------------------
#psi4
#
memory 32 gb

molecule  {
1 1
  N       -1.4549350    -0.0063160    -0.3913190
  C        0.7700580    -0.6819900     0.3309590
  C        0.8387740     0.6929140    -0.3473660
  C       -0.5772670    -1.2354140    -0.1320620
  C       -0.5771770     1.2100060    -0.1498930
  C        1.9243020    -1.6239510     0.0114420
  C        1.8934400     1.6361940     0.2164580
  C       -2.7005555     0.0115317     0.4373219
  H        0.7287260    -0.5174670     1.4168530
  H        1.0195210     0.5454130    -1.4226110
  H       -1.7088400    -0.0087310    -1.3861360
  H       -0.4895840    -1.7781730    -1.0771710
  H       -1.0806180    -1.8736500     0.5969550
  H       -0.7401010     1.5214000     0.8863980
  H       -0.8919120     2.0130950    -0.8209550
  H        2.8677010    -1.2131930     0.3775700
  H        1.7829480    -2.5983540     0.4871410
  H        2.0117000    -1.7770280    -1.0688530
  H        2.8946680     1.2288240     0.0607940
  H        1.8539810     2.6122500    -0.2745750
  H        1.7463830     1.7834510     1.2910380
  H       -2.4748400    -0.0372670     1.4518960
  H       -3.2625880     0.9370400     0.1753330
  H       -3.3330800    -0.8496000     0.1082720
units angstrom
no_reorient  #important for SAPT in psi4, default
symmetry c1  #important for SAPT in psi4, default
}

set PROPERTIES_ORIGIN ["COM"]
properties('MP2/aug-cc-pvtz', properties = ['dipole'])
--------------------------------------------------------------------------

    Molecular point group: c1
  Charge       = 1
  Multiplicity = 1
  Basis Set: AUG-CC-PVTZ
    Blend: AUG-CC-PVTZ
  Basis Set: (AUG-CC-PVTZ AUX)
    Blend: AUG-CC-PVTZ-JKFIT

    Orbital Energies [Eh]
    ---------------------

    Doubly Occupied:

       1A    -15.852431     2A    -11.449437     3A    -11.445906
       4A    -11.445397     5A    -11.390767     6A    -11.390057
       7A    -11.352727     8A    -11.352450     9A     -1.489740
      10A     -1.271621    11A     -1.193191    12A     -1.142819
      13A     -1.094822    14A     -1.067186    15A     -0.987137
      16A     -0.939201    17A     -0.903356    18A     -0.845203
      19A     -0.820563    20A     -0.787280    21A     -0.767110
      22A     -0.756624    23A     -0.737249    24A     -0.711968
      25A     -0.699841    26A     -0.696305    27A     -0.676266
      28A     -0.661876    29A     -0.647285    30A     -0.627795
      31A     -0.622813    32A     -0.602921

  @DF-RHF Final Energy:  -328.75072438461564

   => Energetics <=

    Nuclear Repulsion Energy =            424.7110188470700223
    One-Electron Energy =               -1274.0647976501861649
    Two-Electron Energy =                 520.6030544185005056
    Total Energy =                       -328.7507243846156371
  Basis Set: (AUG-CC-PVTZ AUX)
    Blend: AUG-CC-PVTZ-RI
    Molecular point group: c1

    Geometry (in Angstrom), charge = 1, multiplicity = 1:

       Center              X                  Y                   Z               Mass
    ------------   -----------------  -----------------  -----------------  -----------------
         N           -1.449823447752    -0.006412042479    -0.388960900391    14.003074004430
         C            0.775169552248    -0.682086042479     0.333317099609    12.000000000000
         C            0.843885552248     0.692817957521    -0.345007900391    12.000000000000
         C           -0.572155447752    -1.235510042479    -0.129703900391    12.000000000000
         C           -0.572065447752     1.209909957521    -0.147534900391    12.000000000000
         C            1.929413552248    -1.624047042479     0.013800099609    12.000000000000
         C            1.898551552248     1.636097957521     0.218816099609    12.000000000000
         C           -2.695443947752     0.011435657521     0.439679999609    12.000000000000
         H            0.733837552248    -0.517563042479     1.419211099609     1.007825032230
         H            1.024632552248     0.545316957521    -1.420252900391     1.007825032230
         H           -1.703728447752    -0.008827042479    -1.383777900391     1.007825032230
         H           -0.484472447752    -1.778269042479    -1.074812900391     1.007825032230
         H           -1.075506447752    -1.873746042479     0.599313099609     1.007825032230
         H           -0.734989447752     1.521303957521     0.888756099609     1.007825032230
         H           -0.886800447752     2.012998957521    -0.818596900391     1.007825032230
         H            2.872812552248    -1.213289042479     0.379928099609     1.007825032230
         H            1.788059552248    -2.598450042479     0.489499099609     1.007825032230
         H            2.016811552248    -1.777124042479    -1.066494900391     1.007825032230
         H            2.899779552248     1.228727957521     0.063152099609     1.007825032230
         H            1.859092552248     2.612153957521    -0.272216900391     1.007825032230
         H            1.751494552248     1.783354957521     1.293396099609     1.007825032230
         H           -2.469728447752    -0.037363042479     1.454254099609     1.007825032230
         H           -3.257476447752     0.936943957521     0.177691099609     1.007825032230
         H           -3.327968447752    -0.849696042479     0.110630099609     1.007825032230

  Basis Set: AUG-CC-PVTZ
    Blend: AUG-CC-PVTZ
  Basis Set: (AUG-CC-PVTZ AUX)
    Blend: AUG-CC-PVTZ-JKFIT
	 Reference Energy          =    -328.7507243846156371 [Eh]
	 Singles Energy            =      -0.0000000000000000 [Eh]
	 Same-Spin Energy          =      -0.3478711468277177 [Eh]
	 Opposite-Spin Energy      =      -1.2501144651342264 [Eh]
	 Correlation Energy        =      -1.5979856119619442 [Eh]
	 Total Energy              =    -330.3487099965775542 [Eh]

	 ================> DF-SCS-MP2 Energies <==================
	-----------------------------------------------------------
	 SCS Same-Spin Scale       =       0.3333333333333333 [-]
	 SCS Opposite-Spin Scale   =       1.2000000000000000 [-]
	 SCS Same-Spin Energy      =      -0.1159570489425726 [Eh]
	 SCS Opposite-Spin Energy  =      -1.5001373581610717 [Eh]
	 SCS Correlation Energy    =      -1.6160944071036443 [Eh]
	 SCS Total Energy          =    -330.3668187917192540 [Eh]
	-----------------------------------------------------------

  Dipole Moment: [D]
     X:    -4.3646      Y:     0.0013      Z:    -0.8708     Total:     4.4506

*** Psi4 exiting successfully. Buy a developer a beer!
