                               Psi4 1.4a3.dev225

  ==> Input File <==

--------------------------------------------------------------------------
#psi4
#
memory 32 gb

molecule  {
1 1
  N       -1.4549350    -0.0063160    -0.3913190
  C        0.7700580    -0.6819900     0.3309590
  C        0.8387740     0.6929140    -0.3473660
  C       -0.5772670    -1.2354140    -0.1320620
  C       -0.5771770     1.2100060    -0.1498930
  C        1.9243020    -1.6239510     0.0114420
  C        1.8934400     1.6361940     0.2164580
  C       -2.7287170     0.0116090     0.3933420
  H        0.7287260    -0.5174670     1.4168530
  H        1.0195210     0.5454130    -1.4226110
  H       -1.7088400    -0.0087310    -1.3861360
  H       -0.4895840    -1.7781730    -1.0771710
  H       -1.0806180    -1.8736500     0.5969550
  H       -0.7430788     1.5270914     0.9053385
  H       -0.8919120     2.0130950    -0.8209550
  H        2.8677010    -1.2131930     0.3775700
  H        1.7829480    -2.5983540     0.4871410
  H        2.0117000    -1.7770280    -1.0688530
  H        2.8946680     1.2288240     0.0607940
  H        1.8539810     2.6122500    -0.2745750
  H        1.7463830     1.7834510     1.2910380
  H       -2.4748400    -0.0372670     1.4518960
  H       -3.2625880     0.9370400     0.1753330
  H       -3.3330800    -0.8496000     0.1082720
units angstrom
no_reorient  #important for SAPT in psi4, default
symmetry c1  #important for SAPT in psi4, default
}

set PROPERTIES_ORIGIN ["COM"]
properties('MP2/aug-cc-pvtz', properties = ['dipole'])
--------------------------------------------------------------------------

    Molecular point group: c1
  Charge       = 1
  Multiplicity = 1
  Basis Set: AUG-CC-PVTZ
    Blend: AUG-CC-PVTZ
  Basis Set: (AUG-CC-PVTZ AUX)
    Blend: AUG-CC-PVTZ-JKFIT

    Orbital Energies [Eh]
    ---------------------

    Doubly Occupied:

       1A    -15.852284     2A    -11.448966     3A    -11.447829
       4A    -11.446223     5A    -11.391027     6A    -11.390184
       7A    -11.352792     8A    -11.352493     9A     -1.489403
      10A     -1.271999    11A     -1.192548    12A     -1.142598
      13A     -1.094423    14A     -1.065039    15A     -0.986263
      16A     -0.939550    17A     -0.903336    18A     -0.844265
      19A     -0.821955    20A     -0.784796    21A     -0.763040
      22A     -0.754889    23A     -0.735305    24A     -0.715411
      25A     -0.700054    26A     -0.696346    27A     -0.676340
      28A     -0.663000    29A     -0.647134    30A     -0.628420
      31A     -0.622960    32A     -0.603007

  @DF-RHF Final Energy:  -328.75360442643534

   => Energetics <=

    Nuclear Repulsion Energy =            424.3897004458538049
    One-Electron Energy =               -1273.4388530118235394
    Two-Electron Energy =                 520.2955481395343895
    Total Energy =                       -328.7536044264353450
  Basis Set: (AUG-CC-PVTZ AUX)
    Blend: AUG-CC-PVTZ-RI
    Molecular point group: c1

    Geometry (in Angstrom), charge = 1, multiplicity = 1:

       Center              X                  Y                   Z               Mass
    ------------   -----------------  -----------------  -----------------  -----------------
         N           -1.446836115271    -0.006470428847    -0.384503897145    14.003074004430
         C            0.778156884729    -0.682144428847     0.337774102855    12.000000000000
         C            0.846872884729     0.692759571153    -0.340550897145    12.000000000000
         C           -0.569168115271    -1.235568428847    -0.125246897145    12.000000000000
         C           -0.569078115271     1.209851571153    -0.143077897145    12.000000000000
         C            1.932400884729    -1.624105428847     0.018257102855    12.000000000000
         C            1.901538884729     1.636039571153     0.223273102855    12.000000000000
         C           -2.720618115271     0.011454571153     0.400157102855    12.000000000000
         H            0.736824884729    -0.517621428847     1.423668102855     1.007825032230
         H            1.027619884729     0.545258571153    -1.415795897145     1.007825032230
         H           -1.700741115271    -0.008885428847    -1.379320897145     1.007825032230
         H           -0.481485115271    -1.778327428847    -1.070355897145     1.007825032230
         H           -1.072519115271    -1.873804428847     0.603770102855     1.007825032230
         H           -0.734979915271     1.526936971153     0.912153602855     1.007825032230
         H           -0.883813115271     2.012940571153    -0.814139897145     1.007825032230
         H            2.875799884729    -1.213347428847     0.384385102855     1.007825032230
         H            1.791046884729    -2.598508428847     0.493956102855     1.007825032230
         H            2.019798884729    -1.777182428847    -1.062037897145     1.007825032230
         H            2.902766884729     1.228669571153     0.067609102855     1.007825032230
         H            1.862079884729     2.612095571153    -0.267759897145     1.007825032230
         H            1.754481884729     1.783296571153     1.297853102855     1.007825032230
         H           -2.466741115271    -0.037421428847     1.458711102855     1.007825032230
         H           -3.254489115271     0.936885571153     0.182148102855     1.007825032230
         H           -3.324981115271    -0.849754428847     0.115087102855     1.007825032230

  Basis Set: AUG-CC-PVTZ
    Blend: AUG-CC-PVTZ
  Basis Set: (AUG-CC-PVTZ AUX)
    Blend: AUG-CC-PVTZ-JKFIT
	 Reference Energy          =    -328.7536044264353450 [Eh]
	 Singles Energy            =      -0.0000000000000000 [Eh]
	 Same-Spin Energy          =      -0.3478535937793910 [Eh]
	 Opposite-Spin Energy      =      -1.2500417813910938 [Eh]
	 Correlation Energy        =      -1.5978953751704847 [Eh]
	 Total Energy              =    -330.3514998016058257 [Eh]

	 ================> DF-SCS-MP2 Energies <==================
	-----------------------------------------------------------
	 SCS Same-Spin Scale       =       0.3333333333333333 [-]
	 SCS Opposite-Spin Scale   =       1.2000000000000000 [-]
	 SCS Same-Spin Energy      =      -0.1159511979264637 [Eh]
	 SCS Opposite-Spin Energy  =      -1.5000501376693125 [Eh]
	 SCS Correlation Energy    =      -1.6160013355957761 [Eh]
	 SCS Total Energy          =    -330.3696057620311421 [Eh]
	-----------------------------------------------------------

  Dipole Moment: [D]
     X:    -4.3539      Y:     0.0007      Z:    -0.8688     Total:     4.4397

*** Psi4 exiting successfully. Buy a developer a beer!
