                               Psi4 1.4a3.dev225

  ==> Input File <==

--------------------------------------------------------------------------
#psi4
#
memory 32 gb

molecule  {
1 1
  N       -1.4549350    -0.0063160    -0.3913190
  C        0.7700580    -0.6819900     0.3309590
  C        0.8387740     0.6929140    -0.3473660
  C       -0.5772670    -1.2354140    -0.1320620
  C       -0.5482895     1.2500358    -0.1419475
  C        1.9243020    -1.6239510     0.0114420
  C        1.8934400     1.6361940     0.2164580
  C       -2.7287170     0.0116090     0.3933420
  H        0.7287260    -0.5174670     1.4168530
  H        1.0195210     0.5454130    -1.4226110
  H       -1.7088400    -0.0087310    -1.3861360
  H       -0.4895840    -1.7781730    -1.0771710
  H       -1.0806180    -1.8736500     0.5969550
  H       -0.7401010     1.5214000     0.8863980
  H       -0.8919120     2.0130950    -0.8209550
  H        2.8677010    -1.2131930     0.3775700
  H        1.7829480    -2.5983540     0.4871410
  H        2.0117000    -1.7770280    -1.0688530
  H        2.8946680     1.2288240     0.0607940
  H        1.8539810     2.6122500    -0.2745750
  H        1.7463830     1.7834510     1.2910380
  H       -2.4748400    -0.0372670     1.4518960
  H       -3.2625880     0.9370400     0.1753330
  H       -3.3330800    -0.8496000     0.1082720
units angstrom
no_reorient  #important for SAPT in psi4, default
symmetry c1  #important for SAPT in psi4, default
}

set PROPERTIES_ORIGIN ["COM"]
properties('MP2/aug-cc-pvtz', properties = ['dipole'])
--------------------------------------------------------------------------

    Molecular point group: c1
  Charge       = 1
  Multiplicity = 1
  Basis Set: AUG-CC-PVTZ
    Blend: AUG-CC-PVTZ
  Basis Set: (AUG-CC-PVTZ AUX)
    Blend: AUG-CC-PVTZ-JKFIT

    Orbital Energies [Eh]
    ---------------------

    Doubly Occupied:

       1A    -15.847738     2A    -11.448555     3A    -11.446927
       4A    -11.444656     5A    -11.391404     6A    -11.390632
       7A    -11.353355     8A    -11.352770     9A     -1.478865
      10A     -1.272925    11A     -1.194347    12A     -1.139281
      13A     -1.093703    14A     -1.064370    15A     -0.988867
      16A     -0.938220    17A     -0.900233    18A     -0.839448
      19A     -0.819510    20A     -0.789708    21A     -0.765636
      22A     -0.753745    23A     -0.734887    24A     -0.712591
      25A     -0.706122    26A     -0.694988    27A     -0.677090
      28A     -0.659990    29A     -0.648529    30A     -0.628739
      31A     -0.624838    32A     -0.604951

  @DF-RHF Final Energy:  -328.75221779014458

   => Energetics <=

    Nuclear Repulsion Energy =            423.9274517074343294
    One-Electron Energy =               -1272.5440951088655765
    Two-Electron Energy =                 519.8644256112867197
    Total Energy =                       -328.7522177901445275
  Basis Set: (AUG-CC-PVTZ AUX)
    Blend: AUG-CC-PVTZ-RI
    Molecular point group: c1

    Geometry (in Angstrom), charge = 1, multiplicity = 1:

       Center              X                  Y                   Z               Mass
    ------------   -----------------  -----------------  -----------------  -----------------
         N           -1.449899782911    -0.010629097386    -0.385172068904    14.003074004430
         C            0.775093217089    -0.686303097386     0.337105931096    12.000000000000
         C            0.843809217089     0.688600902614    -0.341219068904    12.000000000000
         C           -0.572231782911    -1.239727097386    -0.125915068904    12.000000000000
         C           -0.543254282911     1.245722702614    -0.135800568904    12.000000000000
         C            1.929337217089    -1.628264097386     0.017588931096    12.000000000000
         C            1.898475217089     1.631880902614     0.222604931096    12.000000000000
         C           -2.723681782911     0.007295902614     0.399488931096    12.000000000000
         H            0.733761217089    -0.521780097386     1.422999931096     1.007825032230
         H            1.024556217089     0.541099902614    -1.416464068904     1.007825032230
         H           -1.703804782911    -0.013044097386    -1.379989068904     1.007825032230
         H           -0.484548782911    -1.782486097386    -1.071024068904     1.007825032230
         H           -1.075582782911    -1.877963097386     0.603101931096     1.007825032230
         H           -0.735065782911     1.517086902614     0.892544931096     1.007825032230
         H           -0.886876782911     2.008781902614    -0.814808068904     1.007825032230
         H            2.872736217089    -1.217506097386     0.383716931096     1.007825032230
         H            1.787983217089    -2.602667097386     0.493287931096     1.007825032230
         H            2.016735217089    -1.781341097386    -1.062706068904     1.007825032230
         H            2.899703217089     1.224510902614     0.066940931096     1.007825032230
         H            1.859016217089     2.607936902614    -0.268428068904     1.007825032230
         H            1.751418217089     1.779137902614     1.297184931096     1.007825032230
         H           -2.469804782911    -0.041580097386     1.458042931096     1.007825032230
         H           -3.257552782911     0.932726902614     0.181479931096     1.007825032230
         H           -3.328044782911    -0.853913097386     0.114418931096     1.007825032230

  Basis Set: AUG-CC-PVTZ
    Blend: AUG-CC-PVTZ
  Basis Set: (AUG-CC-PVTZ AUX)
    Blend: AUG-CC-PVTZ-JKFIT
	 Reference Energy          =    -328.7522177901445843 [Eh]
	 Singles Energy            =      -0.0000000000000000 [Eh]
	 Same-Spin Energy          =      -0.3477054538774239 [Eh]
	 Opposite-Spin Energy      =      -1.2501222662980025 [Eh]
	 Correlation Energy        =      -1.5978277201754263 [Eh]
	 Total Energy              =    -330.3500455103200011 [Eh]

	 ================> DF-SCS-MP2 Energies <==================
	-----------------------------------------------------------
	 SCS Same-Spin Scale       =       0.3333333333333333 [-]
	 SCS Opposite-Spin Scale   =       1.2000000000000000 [-]
	 SCS Same-Spin Energy      =      -0.1159018179591413 [Eh]
	 SCS Opposite-Spin Energy  =      -1.5001467195576030 [Eh]
	 SCS Correlation Energy    =      -1.6160485375167444 [Eh]
	 SCS Total Energy          =    -330.3682663276613312 [Eh]
	-----------------------------------------------------------

  Dipole Moment: [D]
     X:    -4.2912      Y:     0.0580      Z:    -0.8625     Total:     4.3774

*** Psi4 exiting successfully. Buy a developer a beer!
