                               Psi4 1.4a3.dev225

  ==> Input File <==

--------------------------------------------------------------------------
#psi4
#
memory 32 gb

molecule  {
1 1
  N       -1.4549350    -0.0063160    -0.3913190
  C        0.7700580    -0.6819900     0.3309590
  C        0.8387740     0.6929140    -0.3473660
  C       -0.5772670    -1.2354140    -0.1320620
  C       -0.5771770     1.2100060    -0.1498930
  C        1.9243020    -1.6239510     0.0114420
  C        1.8934400     1.6361940     0.2164580
  C       -2.7287170     0.0116090     0.3933420
  H        0.7287260    -0.5174670     1.4168530
  H        1.0195210     0.5454130    -1.4226110
  H       -1.7088400    -0.0087310    -1.3861360
  H       -0.4895840    -1.7781730    -1.0771710
  H       -1.0806180    -1.8736500     0.5969550
  H       -0.7401010     1.5214000     0.8863980
  H       -0.8919120     2.0130950    -0.8209550
  H        2.8677010    -1.2131930     0.3775700
  H        1.7829480    -2.5983540     0.4871410
  H        2.0117000    -1.7770280    -1.0688530
  H        2.8946680     1.2288240     0.0607940
  H        1.8532592     2.6301048    -0.2835574
  H        1.7463830     1.7834510     1.2910380
  H       -2.4748400    -0.0372670     1.4518960
  H       -3.2625880     0.9370400     0.1753330
  H       -3.3330800    -0.8496000     0.1082720
units angstrom
no_reorient  #important for SAPT in psi4, default
symmetry c1  #important for SAPT in psi4, default
}

set PROPERTIES_ORIGIN ["COM"]
properties('MP2/aug-cc-pvtz', properties = ['dipole'])
--------------------------------------------------------------------------

    Molecular point group: c1
  Charge       = 1
  Multiplicity = 1
  Basis Set: AUG-CC-PVTZ
    Blend: AUG-CC-PVTZ
  Basis Set: (AUG-CC-PVTZ AUX)
    Blend: AUG-CC-PVTZ-JKFIT

    Orbital Energies [Eh]
    ---------------------

    Doubly Occupied:

       1A    -15.852171     2A    -11.449032     3A    -11.446279
       4A    -11.445682     5A    -11.391060     6A    -11.390290
       7A    -11.355125     8A    -11.352580     9A     -1.489468
      10A     -1.272094    11A     -1.193057    12A     -1.142530
      13A     -1.094142    14A     -1.065173    15A     -0.986687
      16A     -0.939530    17A     -0.903323    18A     -0.844607
      19A     -0.822081    20A     -0.786193    21A     -0.763255
      22A     -0.754503    23A     -0.734941    24A     -0.715223
      25A     -0.701025    26A     -0.697311    27A     -0.674294
      28A     -0.663083    29A     -0.647481    30A     -0.628509
      31A     -0.623039    32A     -0.602134

  @DF-RHF Final Energy:  -328.75369513516193

   => Energetics <=

    Nuclear Repulsion Energy =            424.3980042505547772
    One-Electron Energy =               -1273.4515939180182613
    Two-Electron Energy =                 520.2998945323015505
    Total Energy =                       -328.7536951351619336
  Basis Set: (AUG-CC-PVTZ AUX)
    Blend: AUG-CC-PVTZ-RI
    Molecular point group: c1

    Geometry (in Angstrom), charge = 1, multiplicity = 1:

       Center              X                  Y                   Z               Mass
    ------------   -----------------  -----------------  -----------------  -----------------
         N           -1.446856037182    -0.006577839382    -0.384257320232    14.003074004430
         C            0.778136962818    -0.682251839382     0.338020679768    12.000000000000
         C            0.846852962818     0.692652160618    -0.340304320232    12.000000000000
         C           -0.569188037182    -1.235675839382    -0.125000320232    12.000000000000
         C           -0.569098037182     1.209744160618    -0.142831320232    12.000000000000
         C            1.932380962818    -1.624212839382     0.018503679768    12.000000000000
         C            1.901518962818     1.635932160618     0.223519679768    12.000000000000
         C           -2.720638037182     0.011347160618     0.400403679768    12.000000000000
         H            0.736804962818    -0.517728839382     1.423914679768     1.007825032230
         H            1.027599962818     0.545151160618    -1.415549320232     1.007825032230
         H           -1.700761037182    -0.008992839382    -1.379074320232     1.007825032230
         H           -0.481505037182    -1.778434839382    -1.070109320232     1.007825032230
         H           -1.072539037182    -1.873911839382     0.604016679768     1.007825032230
         H           -0.732022037182     1.521138160618     0.893459679768     1.007825032230
         H           -0.883833037182     2.012833160618    -0.813893320232     1.007825032230
         H            2.875779962818    -1.213454839382     0.384631679768     1.007825032230
         H            1.791026962818    -2.598615839382     0.494202679768     1.007825032230
         H            2.019778962818    -1.777289839382    -1.061791320232     1.007825032230
         H            2.902746962818     1.228562160618     0.067855679768     1.007825032230
         H            1.861338162818     2.629842960618    -0.276495720232     1.007825032230
         H            1.754461962818     1.783189160618     1.298099679768     1.007825032230
         H           -2.466761037182    -0.037528839382     1.458957679768     1.007825032230
         H           -3.254509037182     0.936778160618     0.182394679768     1.007825032230
         H           -3.325001037182    -0.849861839382     0.115333679768     1.007825032230

  Basis Set: AUG-CC-PVTZ
    Blend: AUG-CC-PVTZ
  Basis Set: (AUG-CC-PVTZ AUX)
    Blend: AUG-CC-PVTZ-JKFIT
	 Reference Energy          =    -328.7536951351619336 [Eh]
	 Singles Energy            =      -0.0000000000000000 [Eh]
	 Same-Spin Energy          =      -0.3478013701641927 [Eh]
	 Opposite-Spin Energy      =      -1.2499956643211052 [Eh]
	 Correlation Energy        =      -1.5977970344852979 [Eh]
	 Total Energy              =    -330.3514921696472584 [Eh]

	 ================> DF-SCS-MP2 Energies <==================
	-----------------------------------------------------------
	 SCS Same-Spin Scale       =       0.3333333333333333 [-]
	 SCS Opposite-Spin Scale   =       1.2000000000000000 [-]
	 SCS Same-Spin Energy      =      -0.1159337900547309 [Eh]
	 SCS Opposite-Spin Energy  =      -1.4999947971853262 [Eh]
	 SCS Correlation Energy    =      -1.6159285872400571 [Eh]
	 SCS Total Energy          =    -330.3696237224019683 [Eh]
	-----------------------------------------------------------

  Dipole Moment: [D]
     X:    -4.3573      Y:    -0.0068      Z:    -0.8644     Total:     4.4423

*** Psi4 exiting successfully. Buy a developer a beer!
