                               Psi4 1.4a3.dev225

  ==> Input File <==

--------------------------------------------------------------------------
#psi4
#
memory 32 gb

molecule  {
1 1
  N       -1.5587521    -0.0687394    -0.2861873
  C        0.7700580    -0.6819900     0.3309590
  C        0.8387740     0.6929140    -0.3473660
  C       -0.5772670    -1.2354140    -0.1320620
  C       -0.5771770     1.2100060    -0.1498930
  C        1.9243020    -1.6239510     0.0114420
  C        1.8934400     1.6361940     0.2164580
  C       -2.7287170     0.0116090     0.3933420
  H        0.7287260    -0.5174670     1.4168530
  H        1.0195210     0.5454130    -1.4226110
  H       -1.7088400    -0.0087310    -1.3861360
  H       -0.4895840    -1.7781730    -1.0771710
  H       -1.0806180    -1.8736500     0.5969550
  H       -0.7401010     1.5214000     0.8863980
  H       -0.8919120     2.0130950    -0.8209550
  H        2.8677010    -1.2131930     0.3775700
  H        1.7829480    -2.5983540     0.4871410
  H        2.0117000    -1.7770280    -1.0688530
  H        2.8946680     1.2288240     0.0607940
  H        1.8539810     2.6122500    -0.2745750
  H        1.7463830     1.7834510     1.2910380
  H       -2.4748400    -0.0372670     1.4518960
  H       -3.2625880     0.9370400     0.1753330
  H       -3.3330800    -0.8496000     0.1082720
units angstrom
no_reorient  #important for SAPT in psi4, default
symmetry c1  #important for SAPT in psi4, default
}

set PROPERTIES_ORIGIN ["COM"]
properties('MP2/aug-cc-pvtz', properties = ['dipole'])
--------------------------------------------------------------------------

    Molecular point group: c1
  Charge       = 1
  Multiplicity = 1
  Basis Set: AUG-CC-PVTZ
    Blend: AUG-CC-PVTZ
  Basis Set: (AUG-CC-PVTZ AUX)
    Blend: AUG-CC-PVTZ-JKFIT

    Orbital Energies [Eh]
    ---------------------

    Doubly Occupied:

       1A    -15.852853     2A    -11.455635     3A    -11.448093
       4A    -11.434537     5A    -11.395248     6A    -11.393237
       7A    -11.356818     8A    -11.354525     9A     -1.495049
      10A     -1.283942    11A     -1.191626    12A     -1.150320
      13A     -1.093626    14A     -1.052274    15A     -0.985752
      16A     -0.940932    17A     -0.904868    18A     -0.849335
      19A     -0.834897    20A     -0.787819    21A     -0.768407
      22A     -0.760243    23A     -0.730128    24A     -0.708415
      25A     -0.693872    26A     -0.689266    27A     -0.676799
      28A     -0.659710    29A     -0.646472    30A     -0.630720
      31A     -0.624952    32A     -0.605285

  @DF-RHF Final Energy:  -328.72204688009026

   => Energetics <=

    Nuclear Repulsion Energy =            424.0879226440189882
    One-Electron Energy =               -1272.7086270377963046
    Two-Electron Energy =                 519.8986575136869988
    Total Energy =                       -328.7220468800902609
  Basis Set: (AUG-CC-PVTZ AUX)
    Blend: AUG-CC-PVTZ-RI
    Molecular point group: c1

    Geometry (in Angstrom), charge = 1, multiplicity = 1:

       Center              X                  Y                   Z               Mass
    ------------   -----------------  -----------------  -----------------  -----------------
         N           -1.537941576206    -0.061184473484    -0.292104171508    14.003074004430
         C            0.790868523794    -0.674435073484     0.325042128492    12.000000000000
         C            0.859584523794     0.700468926516    -0.353282871508    12.000000000000
         C           -0.556456476206    -1.227859073484    -0.137978871508    12.000000000000
         C           -0.556366476206     1.217560926516    -0.155809871508    12.000000000000
         C            1.945112523794    -1.616396073484     0.005525128492    12.000000000000
         C            1.914250523794     1.643748926516     0.210541128492    12.000000000000
         C           -2.707906476206     0.019163926516     0.387425128492    12.000000000000
         H            0.749536523794    -0.509912073484     1.410936128492     1.007825032230
         H            1.040331523794     0.552967926516    -1.428527871508     1.007825032230
         H           -1.688029476206    -0.001176073484    -1.392052871508     1.007825032230
         H           -0.468773476206    -1.770618073484    -1.083087871508     1.007825032230
         H           -1.059807476206    -1.866095073484     0.591038128492     1.007825032230
         H           -0.719290476206     1.528954926516     0.880481128492     1.007825032230
         H           -0.871101476206     2.020649926516    -0.826871871508     1.007825032230
         H            2.888511523794    -1.205638073484     0.371653128492     1.007825032230
         H            1.803758523794    -2.590799073484     0.481224128492     1.007825032230
         H            2.032510523794    -1.769473073484    -1.074769871508     1.007825032230
         H            2.915478523794     1.236378926516     0.054877128492     1.007825032230
         H            1.874791523794     2.619804926516    -0.280491871508     1.007825032230
         H            1.767193523794     1.791005926516     1.285121128492     1.007825032230
         H           -2.454029476206    -0.029712073484     1.445979128492     1.007825032230
         H           -3.241777476206     0.944594926516     0.169416128492     1.007825032230
         H           -3.312269476206    -0.842045073484     0.102355128492     1.007825032230

  Basis Set: AUG-CC-PVTZ
    Blend: AUG-CC-PVTZ
  Basis Set: (AUG-CC-PVTZ AUX)
    Blend: AUG-CC-PVTZ-JKFIT
	 Reference Energy          =    -328.7220468800902609 [Eh]
	 Singles Energy            =      -0.0000000000000000 [Eh]
	 Same-Spin Energy          =      -0.3498328596292906 [Eh]
	 Opposite-Spin Energy      =      -1.2530207577079437 [Eh]
	 Correlation Energy        =      -1.6028536173372343 [Eh]
	 Total Energy              =    -330.3249004974275067 [Eh]

	 ================> DF-SCS-MP2 Energies <==================
	-----------------------------------------------------------
	 SCS Same-Spin Scale       =       0.3333333333333333 [-]
	 SCS Opposite-Spin Scale   =       1.2000000000000000 [-]
	 SCS Same-Spin Energy      =      -0.1166109532097635 [Eh]
	 SCS Opposite-Spin Energy  =      -1.5036249092495324 [Eh]
	 SCS Correlation Energy    =      -1.6202358624592959 [Eh]
	 SCS Total Energy          =    -330.3422827425495711 [Eh]
	-----------------------------------------------------------

  Dipole Moment: [D]
     X:    -4.0210      Y:     0.1199      Z:    -0.9881     Total:     4.1423

*** Psi4 exiting successfully. Buy a developer a beer!
