                               Psi4 1.4a3.dev225

  ==> Input File <==

--------------------------------------------------------------------------
#psi4
#
memory 32 gb

molecule  {
1 1
  N       -1.4549350    -0.0063160    -0.3913190
  C        0.7700580    -0.6819900     0.3309590
  C        0.8387740     0.6929140    -0.3473660
  C       -0.5772670    -1.2354140    -0.1320620
  C       -0.5771770     1.2100060    -0.1498930
  C        1.9243020    -1.6239510     0.0114420
  C        1.8934400     1.6361940     0.2164580
  C       -2.7287170     0.0116090     0.3933420
  H        0.7287260    -0.5174670     1.4168530
  H        1.0195210     0.5454130    -1.4226110
  H       -1.7088400    -0.0087310    -1.3861360
  H       -0.4895840    -1.7781730    -1.0771710
  H       -1.1036680    -1.9028768     0.6303390
  H       -0.7401010     1.5214000     0.8863980
  H       -0.8919120     2.0130950    -0.8209550
  H        2.8677010    -1.2131930     0.3775700
  H        1.7829480    -2.5983540     0.4871410
  H        2.0117000    -1.7770280    -1.0688530
  H        2.8946680     1.2288240     0.0607940
  H        1.8539810     2.6122500    -0.2745750
  H        1.7463830     1.7834510     1.2910380
  H       -2.4748400    -0.0372670     1.4518960
  H       -3.2625880     0.9370400     0.1753330
  H       -3.3330800    -0.8496000     0.1082720
units angstrom
no_reorient  #important for SAPT in psi4, default
symmetry c1  #important for SAPT in psi4, default
}

set PROPERTIES_ORIGIN ["COM"]
properties('MP2/aug-cc-pvtz', properties = ['dipole'])
--------------------------------------------------------------------------

    Molecular point group: c1
  Charge       = 1
  Multiplicity = 1
  Basis Set: AUG-CC-PVTZ
    Blend: AUG-CC-PVTZ
  Basis Set: (AUG-CC-PVTZ AUX)
    Blend: AUG-CC-PVTZ-JKFIT

    Orbital Energies [Eh]
    ---------------------

    Doubly Occupied:

       1A    -15.852454     2A    -11.451432     3A    -11.448871
       4A    -11.445822     5A    -11.391141     6A    -11.390403
       7A    -11.352959     8A    -11.352529     9A     -1.489404
      10A     -1.272125    11A     -1.191551    12A     -1.142519
      13A     -1.093910    14A     -1.064605    15A     -0.985255
      16A     -0.939381    17A     -0.903307    18A     -0.843405
      19A     -0.820902    20A     -0.785534    21A     -0.760754
      22A     -0.754414    23A     -0.734225    24A     -0.713789
      25A     -0.701195    26A     -0.696102    27A     -0.676122
      28A     -0.663032    29A     -0.647075    30A     -0.628419
      31A     -0.622986    32A     -0.602584

  @DF-RHF Final Energy:  -328.75182404292883

   => Energetics <=

    Nuclear Repulsion Energy =            424.2380473377284602
    One-Electron Energy =               -1273.1433283125818434
    Two-Electron Energy =                 520.1534569319245520
    Total Energy =                       -328.7518240429288880
  Basis Set: (AUG-CC-PVTZ AUX)
    Blend: AUG-CC-PVTZ-RI
    Molecular point group: c1

    Geometry (in Angstrom), charge = 1, multiplicity = 1:

       Center              X                  Y                   Z               Mass
    ------------   -----------------  -----------------  -----------------  -----------------
         N           -1.446658865018    -0.006162078999    -0.384631442408    14.003074004430
         C            0.778334134982    -0.681836078999     0.337646557592    12.000000000000
         C            0.847050134982     0.693067921001    -0.340678442408    12.000000000000
         C           -0.568990865018    -1.235260078999    -0.125374442408    12.000000000000
         C           -0.568900865018     1.210159921001    -0.143205442408    12.000000000000
         C            1.932578134982    -1.623797078999     0.018129557592    12.000000000000
         C            1.901716134982     1.636347921001     0.223145557592    12.000000000000
         C           -2.720440865018     0.011762921001     0.400029557592    12.000000000000
         H            0.737002134982    -0.517313078999     1.423540557592     1.007825032230
         H            1.027797134982     0.545566921001    -1.415923442408     1.007825032230
         H           -1.700563865018    -0.008577078999    -1.379448442408     1.007825032230
         H           -0.481307865018    -1.778019078999    -1.070483442408     1.007825032230
         H           -1.095391865018    -1.902722878999     0.637026557592     1.007825032230
         H           -0.731824865018     1.521553921001     0.893085557592     1.007825032230
         H           -0.883635865018     2.013248921001    -0.814267442408     1.007825032230
         H            2.875977134982    -1.213039078999     0.384257557592     1.007825032230
         H            1.791224134982    -2.598200078999     0.493828557592     1.007825032230
         H            2.019976134982    -1.776874078999    -1.062165442408     1.007825032230
         H            2.902944134982     1.228977921001     0.067481557592     1.007825032230
         H            1.862257134982     2.612403921001    -0.267887442408     1.007825032230
         H            1.754659134982     1.783604921001     1.297725557592     1.007825032230
         H           -2.466563865018    -0.037113078999     1.458583557592     1.007825032230
         H           -3.254311865018     0.937193921001     0.182020557592     1.007825032230
         H           -3.324803865018    -0.849446078999     0.114959557592     1.007825032230

  Basis Set: AUG-CC-PVTZ
    Blend: AUG-CC-PVTZ
  Basis Set: (AUG-CC-PVTZ AUX)
    Blend: AUG-CC-PVTZ-JKFIT
	 Reference Energy          =    -328.7518240429288312 [Eh]
	 Singles Energy            =      -0.0000000000000000 [Eh]
	 Same-Spin Energy          =      -0.3479156778173784 [Eh]
	 Opposite-Spin Energy      =      -1.2503375235115783 [Eh]
	 Correlation Energy        =      -1.5982532013289568 [Eh]
	 Total Energy              =    -330.3500772442577613 [Eh]

	 ================> DF-SCS-MP2 Energies <==================
	-----------------------------------------------------------
	 SCS Same-Spin Scale       =       0.3333333333333333 [-]
	 SCS Opposite-Spin Scale   =       1.2000000000000000 [-]
	 SCS Same-Spin Energy      =      -0.1159718926057928 [Eh]
	 SCS Opposite-Spin Energy  =      -1.5004050282138939 [Eh]
	 SCS Correlation Energy    =      -1.6163769208196868 [Eh]
	 SCS Total Energy          =    -330.3682009637485066 [Eh]
	-----------------------------------------------------------

  Dipole Moment: [D]
     X:    -4.3477      Y:     0.0069      Z:    -0.8644     Total:     4.4328

*** Psi4 exiting successfully. Buy a developer a beer!
