                               Psi4 1.4a3.dev225

  ==> Input File <==

--------------------------------------------------------------------------
#psi4
#
memory 32 gb

molecule  {
1 1
  N       -1.4549350    -0.0063160    -0.3913190
  C        0.7700580    -0.6819900     0.3309590
  C        0.8387740     0.6929140    -0.3473660
  C       -0.5486296    -1.2755181    -0.1236027
  C       -0.5771770     1.2100060    -0.1498930
  C        1.9243020    -1.6239510     0.0114420
  C        1.8934400     1.6361940     0.2164580
  C       -2.7287170     0.0116090     0.3933420
  H        0.7287260    -0.5174670     1.4168530
  H        1.0195210     0.5454130    -1.4226110
  H       -1.7088400    -0.0087310    -1.3861360
  H       -0.4895840    -1.7781730    -1.0771710
  H       -1.0806180    -1.8736500     0.5969550
  H       -0.7401010     1.5214000     0.8863980
  H       -0.8919120     2.0130950    -0.8209550
  H        2.8677010    -1.2131930     0.3775700
  H        1.7829480    -2.5983540     0.4871410
  H        2.0117000    -1.7770280    -1.0688530
  H        2.8946680     1.2288240     0.0607940
  H        1.8539810     2.6122500    -0.2745750
  H        1.7463830     1.7834510     1.2910380
  H       -2.4748400    -0.0372670     1.4518960
  H       -3.2625880     0.9370400     0.1753330
  H       -3.3330800    -0.8496000     0.1082720
units angstrom
no_reorient  #important for SAPT in psi4, default
symmetry c1  #important for SAPT in psi4, default
}

set PROPERTIES_ORIGIN ["COM"]
properties('MP2/aug-cc-pvtz', properties = ['dipole'])
--------------------------------------------------------------------------

    Molecular point group: c1
  Charge       = 1
  Multiplicity = 1
  Basis Set: AUG-CC-PVTZ
    Blend: AUG-CC-PVTZ
  Basis Set: (AUG-CC-PVTZ AUX)
    Blend: AUG-CC-PVTZ-JKFIT

    Orbital Energies [Eh]
    ---------------------

    Doubly Occupied:

       1A    -15.847678     2A    -11.449148     3A    -11.446862
       4A    -11.444072     5A    -11.391447     6A    -11.390609
       7A    -11.353154     8A    -11.353075     9A     -1.479256
      10A     -1.272821    11A     -1.194690    12A     -1.139243
      13A     -1.093628    14A     -1.064476    15A     -0.988589
      16A     -0.940012    17A     -0.897609    18A     -0.842711
      19A     -0.818014    20A     -0.789416    21A     -0.764835
      22A     -0.755777    23A     -0.735820    24A     -0.709753
      25A     -0.701250    26A     -0.700055    27A     -0.676983
      28A     -0.660325    29A     -0.648453    30A     -0.629788
      31A     -0.624082    32A     -0.605316

  @DF-RHF Final Energy:  -328.75232476702308

   => Energetics <=

    Nuclear Repulsion Energy =            423.9339033250211628
    One-Electron Energy =               -1272.5545594490506573
    Two-Electron Energy =                 519.8683313570063547
    Total Energy =                       -328.7523247670230830
  Basis Set: (AUG-CC-PVTZ AUX)
    Blend: AUG-CC-PVTZ-RI
    Molecular point group: c1

    Geometry (in Angstrom), charge = 1, multiplicity = 1:

       Center              X                  Y                   Z               Mass
    ------------   -----------------  -----------------  -----------------  -----------------
         N           -1.449873486184    -0.002203430704    -0.385226092327    14.003074004430
         C            0.775119513816    -0.677877430704     0.337051907673    12.000000000000
         C            0.843835513816     0.697026569296    -0.341273092327    12.000000000000
         C           -0.543568086184    -1.271405530704    -0.117509792327    12.000000000000
         C           -0.572115486184     1.214118569296    -0.143800092327    12.000000000000
         C            1.929363513816    -1.619838430704     0.017534907673    12.000000000000
         C            1.898501513816     1.640306569296     0.222550907673    12.000000000000
         C           -2.723655486184     0.015721569296     0.399434907673    12.000000000000
         H            0.733787513816    -0.513354430704     1.422945907673     1.007825032230
         H            1.024582513816     0.549525569296    -1.416518092327     1.007825032230
         H           -1.703778486184    -0.004618430704    -1.380043092327     1.007825032230
         H           -0.484522486184    -1.774060430704    -1.071078092327     1.007825032230
         H           -1.075556486184    -1.869537430704     0.603047907673     1.007825032230
         H           -0.735039486184     1.525512569296     0.892490907673     1.007825032230
         H           -0.886850486184     2.017207569296    -0.814862092327     1.007825032230
         H            2.872762513816    -1.209080430704     0.383662907673     1.007825032230
         H            1.788009513816    -2.594241430704     0.493233907673     1.007825032230
         H            2.016761513816    -1.772915430704    -1.062760092327     1.007825032230
         H            2.899729513816     1.232936569296     0.066886907673     1.007825032230
         H            1.859042513816     2.616362569296    -0.268482092327     1.007825032230
         H            1.751444513816     1.787563569296     1.297130907673     1.007825032230
         H           -2.469778486184    -0.033154430704     1.457988907673     1.007825032230
         H           -3.257526486184     0.941152569296     0.181425907673     1.007825032230
         H           -3.328018486184    -0.845487430704     0.114364907673     1.007825032230

  Basis Set: AUG-CC-PVTZ
    Blend: AUG-CC-PVTZ
  Basis Set: (AUG-CC-PVTZ AUX)
    Blend: AUG-CC-PVTZ-JKFIT
	 Reference Energy          =    -328.7523247670230830 [Eh]
	 Singles Energy            =      -0.0000000000000000 [Eh]
	 Same-Spin Energy          =      -0.3477045447120076 [Eh]
	 Opposite-Spin Energy      =      -1.2500177104020351 [Eh]
	 Correlation Energy        =      -1.5977222551140429 [Eh]
	 Total Energy              =    -330.3500470221371188 [Eh]

	 ================> DF-SCS-MP2 Energies <==================
	-----------------------------------------------------------
	 SCS Same-Spin Scale       =       0.3333333333333333 [-]
	 SCS Opposite-Spin Scale   =       1.2000000000000000 [-]
	 SCS Same-Spin Energy      =      -0.1159015149040025 [Eh]
	 SCS Opposite-Spin Energy  =      -1.5000212524824421 [Eh]
	 SCS Correlation Energy    =      -1.6159227673864447 [Eh]
	 SCS Total Energy          =    -330.3682475344095337 [Eh]
	-----------------------------------------------------------

  Dipole Moment: [D]
     X:    -4.2897      Y:    -0.0567      Z:    -0.8616     Total:     4.3757

*** Psi4 exiting successfully. Buy a developer a beer!
