                               Psi4 1.4a3.dev225

  ==> Input File <==

--------------------------------------------------------------------------
#psi4
#
memory 32 gb

molecule  {
1 1
  N       -1.4549350    -0.0063160    -0.3913190
  C        0.7700580    -0.6819900     0.3309590
  C        0.8387740     0.6929140    -0.3473660
  C       -0.5772670    -1.2354140    -0.1320620
  C       -0.5771770     1.2100060    -0.1498930
  C        1.9243020    -1.6239510     0.0114420
  C        1.8934400     1.6361940     0.2164580
  C       -2.7287170     0.0116090     0.3933420
  H        0.7287260    -0.5174670     1.4168530
  H        1.0195210     0.5454130    -1.4226110
  H       -1.7088400    -0.0087310    -1.3861360
  H       -0.4895840    -1.7781730    -1.0771710
  H       -1.0806180    -1.8736500     0.5969550
  H       -0.7401010     1.5214000     0.8863980
  H       -0.8919120     2.0130950    -0.8209550
  H        2.8677010    -1.2131930     0.3775700
  H        1.7829480    -2.5983540     0.4871410
  H        2.0117000    -1.7770280    -1.0688530
  H        2.8799651     1.2283990    -0.0139995
  H        1.8539810     2.6122500    -0.2745750
  H        1.7463830     1.7834510     1.2910380
  H       -2.4748400    -0.0372670     1.4518960
  H       -3.2625880     0.9370400     0.1753330
  H       -3.3330800    -0.8496000     0.1082720
units angstrom
no_reorient  #important for SAPT in psi4, default
symmetry c1  #important for SAPT in psi4, default
}

set PROPERTIES_ORIGIN ["COM"]
properties('MP2/aug-cc-pvtz', properties = ['dipole'])
--------------------------------------------------------------------------

    Molecular point group: c1
  Charge       = 1
  Multiplicity = 1
  Basis Set: AUG-CC-PVTZ
    Blend: AUG-CC-PVTZ
  Basis Set: (AUG-CC-PVTZ AUX)
    Blend: AUG-CC-PVTZ-JKFIT

    Orbital Energies [Eh]
    ---------------------

    Doubly Occupied:

       1A    -15.851919     2A    -11.448879     3A    -11.446114
       4A    -11.445311     5A    -11.390598     6A    -11.389981
       7A    -11.353027     8A    -11.352449     9A     -1.489249
      10A     -1.272084    11A     -1.193114    12A     -1.142614
      13A     -1.094983    14A     -1.065461    15A     -0.986925
      16A     -0.939057    17A     -0.903128    18A     -0.844548
      19A     -0.822214    20A     -0.786440    21A     -0.763134
      22A     -0.754824    23A     -0.734902    24A     -0.715387
      25A     -0.703381    26A     -0.697385    27A     -0.675155
      28A     -0.661980    29A     -0.648494    30A     -0.627300
      31A     -0.623702    32A     -0.602242

  @DF-RHF Final Energy:  -328.75360626272214

   => Energetics <=

    Nuclear Repulsion Energy =            424.5242648353527670
    One-Electron Energy =               -1273.7037790159465658
    Two-Electron Energy =                 520.4259079178716547
    Total Energy =                       -328.7536062627220872
  Basis Set: (AUG-CC-PVTZ AUX)
    Blend: AUG-CC-PVTZ-RI
    Molecular point group: c1

    Geometry (in Angstrom), charge = 1, multiplicity = 1:

       Center              X                  Y                   Z               Mass
    ------------   -----------------  -----------------  -----------------  -----------------
         N           -1.446732575204    -0.006416417157    -0.383676166488    14.003074004430
         C            0.778260424796    -0.682090417157     0.338601833512    12.000000000000
         C            0.846976424796     0.692813582843    -0.339723166488    12.000000000000
         C           -0.569064575204    -1.235514417157    -0.124419166488    12.000000000000
         C           -0.568974575204     1.209905582843    -0.142250166488    12.000000000000
         C            1.932504424796    -1.624051417157     0.019084833512    12.000000000000
         C            1.901642424796     1.636093582843     0.224100833512    12.000000000000
         C           -2.720514575204     0.011508582843     0.400984833512    12.000000000000
         H            0.736928424796    -0.517567417157     1.424495833512     1.007825032230
         H            1.027723424796     0.545312582843    -1.414968166488     1.007825032230
         H           -1.700637575204    -0.008831417157    -1.378493166488     1.007825032230
         H           -0.481381575204    -1.778273417157    -1.069528166488     1.007825032230
         H           -1.072415575204    -1.873750417157     0.604597833512     1.007825032230
         H           -0.731898575204     1.521299582843     0.894040833512     1.007825032230
         H           -0.883709575204     2.012994582843    -0.813312166488     1.007825032230
         H            2.875903424796    -1.213293417157     0.385212833512     1.007825032230
         H            1.791150424796    -2.598454417157     0.494783833512     1.007825032230
         H            2.019902424796    -1.777128417157    -1.061210166488     1.007825032230
         H            2.888167524796     1.228298582843    -0.006356666488     1.007825032230
         H            1.862183424796     2.612149582843    -0.266932166488     1.007825032230
         H            1.754585424796     1.783350582843     1.298680833512     1.007825032230
         H           -2.466637575204    -0.037367417157     1.459538833512     1.007825032230
         H           -3.254385575204     0.936939582843     0.182975833512     1.007825032230
         H           -3.324877575204    -0.849700417157     0.115914833512     1.007825032230

  Basis Set: AUG-CC-PVTZ
    Blend: AUG-CC-PVTZ
  Basis Set: (AUG-CC-PVTZ AUX)
    Blend: AUG-CC-PVTZ-JKFIT
	 Reference Energy          =    -328.7536062627221440 [Eh]
	 Singles Energy            =      -0.0000000000000000 [Eh]
	 Same-Spin Energy          =      -0.3478460568058698 [Eh]
	 Opposite-Spin Energy      =      -1.2499500502836185 [Eh]
	 Correlation Energy        =      -1.5977961070894882 [Eh]
	 Total Energy              =    -330.3514023698116375 [Eh]

	 ================> DF-SCS-MP2 Energies <==================
	-----------------------------------------------------------
	 SCS Same-Spin Scale       =       0.3333333333333333 [-]
	 SCS Opposite-Spin Scale   =       1.2000000000000000 [-]
	 SCS Same-Spin Energy      =      -0.1159486856019566 [Eh]
	 SCS Opposite-Spin Energy  =      -1.4999400603403421 [Eh]
	 SCS Correlation Energy    =      -1.6158887459422986 [Eh]
	 SCS Total Energy          =    -330.3694950086644440 [Eh]
	-----------------------------------------------------------

  Dipole Moment: [D]
     X:    -4.3540      Y:     0.0111      Z:    -0.8860     Total:     4.4433

*** Psi4 exiting successfully. Buy a developer a beer!
