                               Psi4 1.4a3.dev225

  ==> Input File <==

--------------------------------------------------------------------------
#psi4
#
memory 32 gb

molecule  {
1 1
  N       -1.4549350    -0.0063160    -0.3913190
  C        0.7700580    -0.6819900     0.3309590
  C        0.8387740     0.6929140    -0.3473660
  C       -0.5772670    -1.2354140    -0.1320620
  C       -0.5771770     1.2100060    -0.1498930
  C        1.9243020    -1.6239510     0.0114420
  C        1.8934400     1.6361940     0.2164580
  C       -2.7287170     0.0116090     0.3933420
  H        0.7287260    -0.5174670     1.4168530
  H        1.0195210     0.5454130    -1.4226110
  H       -1.7088400    -0.0087310    -1.3861360
  H       -0.4895840    -1.7781730    -1.0771710
  H       -0.9884179    -1.7567427     0.4634191
  H       -0.7401010     1.5214000     0.8863980
  H       -0.8919120     2.0130950    -0.8209550
  H        2.8677010    -1.2131930     0.3775700
  H        1.7829480    -2.5983540     0.4871410
  H        2.0117000    -1.7770280    -1.0688530
  H        2.8946680     1.2288240     0.0607940
  H        1.8539810     2.6122500    -0.2745750
  H        1.7463830     1.7834510     1.2910380
  H       -2.4748400    -0.0372670     1.4518960
  H       -3.2625880     0.9370400     0.1753330
  H       -3.3330800    -0.8496000     0.1082720
units angstrom
no_reorient  #important for SAPT in psi4, default
symmetry c1  #important for SAPT in psi4, default
}

set PROPERTIES_ORIGIN ["COM"]
properties('MP2/aug-cc-pvtz', properties = ['dipole'])
--------------------------------------------------------------------------

    Molecular point group: c1
  Charge       = 1
  Multiplicity = 1
  Basis Set: AUG-CC-PVTZ
    Blend: AUG-CC-PVTZ
  Basis Set: (AUG-CC-PVTZ AUX)
    Blend: AUG-CC-PVTZ-JKFIT

    Orbital Energies [Eh]
    ---------------------

    Doubly Occupied:

       1A    -15.851424     2A    -11.449534     3A    -11.445315
       4A    -11.424087     5A    -11.390355     6A    -11.389600
       7A    -11.352436     8A    -11.352376     9A     -1.490311
      10A     -1.272680    11A     -1.204791    12A     -1.143516
      13A     -1.101540    14A     -1.069898    15A     -0.997775
      16A     -0.940800    17A     -0.903873    18A     -0.854878
      19A     -0.827233    20A     -0.791841    21A     -0.772910
      22A     -0.755588    23A     -0.738679    24A     -0.719385
      25A     -0.701008    26A     -0.699493    27A     -0.676770
      28A     -0.662842    29A     -0.648295    30A     -0.628368
      31A     -0.622968    32A     -0.604064

  @DF-RHF Final Energy:  -328.72061284230949

   => Energetics <=

    Nuclear Repulsion Energy =            425.6418193641042080
    One-Electron Energy =               -1275.7556031329349935
    Two-Electron Energy =                 521.3931709265212930
    Total Energy =                       -328.7206128423094924
  Basis Set: (AUG-CC-PVTZ AUX)
    Blend: AUG-CC-PVTZ-RI
    Molecular point group: c1

    Geometry (in Angstrom), charge = 1, multiplicity = 1:

       Center              X                  Y                   Z               Mass
    ------------   -----------------  -----------------  -----------------  -----------------
         N           -1.447676596480    -0.007452535765    -0.383157433848    14.003074004430
         C            0.777316403520    -0.683126535765     0.339120566152    12.000000000000
         C            0.846032403520     0.691777464235    -0.339204433848    12.000000000000
         C           -0.570008596480    -1.236550535765    -0.123900433848    12.000000000000
         C           -0.569918596480     1.208869464235    -0.141731433848    12.000000000000
         C            1.931560403520    -1.625087535765     0.019603566152    12.000000000000
         C            1.900698403520     1.635057464235     0.224619566152    12.000000000000
         C           -2.721458596480     0.010472464235     0.401503566152    12.000000000000
         H            0.735984403520    -0.518603535765     1.425014566152     1.007825032230
         H            1.026779403520     0.544276464235    -1.414449433848     1.007825032230
         H           -1.701581596480    -0.009867535765    -1.377974433848     1.007825032230
         H           -0.482325596480    -1.779309535765    -1.069009433848     1.007825032230
         H           -0.981159496480    -1.757879235765     0.471580666152     1.007825032230
         H           -0.732842596480     1.520263464235     0.894559566152     1.007825032230
         H           -0.884653596480     2.011958464235    -0.812793433848     1.007825032230
         H            2.874959403520    -1.214329535765     0.385731566152     1.007825032230
         H            1.790206403520    -2.599490535765     0.495302566152     1.007825032230
         H            2.018958403520    -1.778164535765    -1.060691433848     1.007825032230
         H            2.901926403520     1.227687464235     0.068955566152     1.007825032230
         H            1.861239403520     2.611113464235    -0.266413433848     1.007825032230
         H            1.753641403520     1.782314464235     1.299199566152     1.007825032230
         H           -2.467581596480    -0.038403535765     1.460057566152     1.007825032230
         H           -3.255329596480     0.935903464235     0.183494566152     1.007825032230
         H           -3.325821596480    -0.850736535765     0.116433566152     1.007825032230

  Basis Set: AUG-CC-PVTZ
    Blend: AUG-CC-PVTZ
  Basis Set: (AUG-CC-PVTZ AUX)
    Blend: AUG-CC-PVTZ-JKFIT
	 Reference Energy          =    -328.7206128423094924 [Eh]
	 Singles Energy            =      -0.0000000000000000 [Eh]
	 Same-Spin Energy          =      -0.3475285434218570 [Eh]
	 Opposite-Spin Energy      =      -1.2487418054214048 [Eh]
	 Correlation Energy        =      -1.5962703488432619 [Eh]
	 Total Energy              =    -330.3168831911527263 [Eh]

	 ================> DF-SCS-MP2 Energies <==================
	-----------------------------------------------------------
	 SCS Same-Spin Scale       =       0.3333333333333333 [-]
	 SCS Opposite-Spin Scale   =       1.2000000000000000 [-]
	 SCS Same-Spin Energy      =      -0.1158428478072857 [Eh]
	 SCS Opposite-Spin Energy  =      -1.4984901665056858 [Eh]
	 SCS Correlation Energy    =      -1.6143330143129715 [Eh]
	 SCS Total Energy          =    -330.3349458566224826 [Eh]
	-----------------------------------------------------------

  Dipole Moment: [D]
     X:    -4.3805      Y:    -0.0036      Z:    -0.8839     Total:     4.4688

*** Psi4 exiting successfully. Buy a developer a beer!
