                               Psi4 1.4a3.dev225

  ==> Input File <==

--------------------------------------------------------------------------
#psi4
#
memory 32 gb

molecule  {
1 1
  N       -1.4549350    -0.0063160    -0.3913190
  C        0.7700580    -0.6819900     0.3309590
  C        0.8387740     0.6929140    -0.3473660
  C       -0.5772670    -1.2354140    -0.1320620
  C       -0.5771770     1.2100060    -0.1498930
  C        1.9243020    -1.6239510     0.0114420
  C        1.8934400     1.6361940     0.2164580
  C       -2.7287170     0.0116090     0.3933420
  H        0.7287260    -0.5174670     1.4168530
  H        1.0195210     0.5454130    -1.4226110
  H       -1.6593801    -0.0082606    -1.1923488
  H       -0.4895840    -1.7781730    -1.0771710
  H       -1.0806180    -1.8736500     0.5969550
  H       -0.7401010     1.5214000     0.8863980
  H       -0.8919120     2.0130950    -0.8209550
  H        2.8677010    -1.2131930     0.3775700
  H        1.7829480    -2.5983540     0.4871410
  H        2.0117000    -1.7770280    -1.0688530
  H        2.8946680     1.2288240     0.0607940
  H        1.8539810     2.6122500    -0.2745750
  H        1.7463830     1.7834510     1.2910380
  H       -2.4748400    -0.0372670     1.4518960
  H       -3.2625880     0.9370400     0.1753330
  H       -3.3330800    -0.8496000     0.1082720
units angstrom
no_reorient  #important for SAPT in psi4, default
symmetry c1  #important for SAPT in psi4, default
}

set PROPERTIES_ORIGIN ["COM"]
properties('MP2/aug-cc-pvtz', properties = ['dipole'])
--------------------------------------------------------------------------

    Molecular point group: c1
  Charge       = 1
  Multiplicity = 1
  Basis Set: AUG-CC-PVTZ
    Blend: AUG-CC-PVTZ
  Basis Set: (AUG-CC-PVTZ AUX)
    Blend: AUG-CC-PVTZ-JKFIT

    Orbital Energies [Eh]
    ---------------------

    Doubly Occupied:

       1A    -15.833327     2A    -11.450603     3A    -11.447983
       4A    -11.447342     5A    -11.391997     6A    -11.391282
       7A    -11.353611     8A    -11.353197     9A     -1.525065
      10A     -1.278937    11A     -1.194893    12A     -1.149390
      13A     -1.098174    14A     -1.095396    15A     -0.996096
      16A     -0.942240    17A     -0.917373    18A     -0.848338
      19A     -0.826328    20A     -0.788103    21A     -0.765418
      22A     -0.758944    23A     -0.739344    24A     -0.719348
      25A     -0.705171    26A     -0.701485    27A     -0.677195
      28A     -0.664658    29A     -0.648649    30A     -0.629801
      31A     -0.624155    32A     -0.603995

  @DF-RHF Final Energy:  -328.71491160824098

   => Energetics <=

    Nuclear Repulsion Energy =            425.9081548284348173
    One-Electron Energy =               -1276.1104558557922246
    Two-Electron Energy =                 521.4873894191164254
    Total Energy =                       -328.7149116082409819
  Basis Set: (AUG-CC-PVTZ AUX)
    Blend: AUG-CC-PVTZ-RI
    Molecular point group: c1

    Geometry (in Angstrom), charge = 1, multiplicity = 1:

       Center              X                  Y                   Z               Mass
    ------------   -----------------  -----------------  -----------------  -----------------
         N           -1.447299173413    -0.006424324106    -0.386047904375    14.003074004430
         C            0.777693826587    -0.682098324106     0.336230095625    12.000000000000
         C            0.846409826587     0.692805675894    -0.342094904375    12.000000000000
         C           -0.569631173413    -1.235522324106    -0.126790904375    12.000000000000
         C           -0.569541173413     1.209897675894    -0.144621904375    12.000000000000
         C            1.931937826587    -1.624059324106     0.016713095625    12.000000000000
         C            1.901075826587     1.636085675894     0.221729095625    12.000000000000
         C           -2.721081173413     0.011500675894     0.398613095625    12.000000000000
         H            0.736361826587    -0.517575324106     1.422124095625     1.007825032230
         H            1.027156826587     0.545304675894    -1.417339904375     1.007825032230
         H           -1.651744273413    -0.008368924106    -1.187077704375     1.007825032230
         H           -0.481948173413    -1.778281324106    -1.071899904375     1.007825032230
         H           -1.072982173413    -1.873758324106     0.602226095625     1.007825032230
         H           -0.732465173413     1.521291675894     0.891669095625     1.007825032230
         H           -0.884276173413     2.012986675894    -0.815683904375     1.007825032230
         H            2.875336826587    -1.213301324106     0.382841095625     1.007825032230
         H            1.790583826587    -2.598462324106     0.492412095625     1.007825032230
         H            2.019335826587    -1.777136324106    -1.063581904375     1.007825032230
         H            2.902303826587     1.228715675894     0.066065095625     1.007825032230
         H            1.861616826587     2.612141675894    -0.269303904375     1.007825032230
         H            1.754018826587     1.783342675894     1.296309095625     1.007825032230
         H           -2.467204173413    -0.037375324106     1.457167095625     1.007825032230
         H           -3.254952173413     0.936931675894     0.180604095625     1.007825032230
         H           -3.325444173413    -0.849708324106     0.113543095625     1.007825032230

  Basis Set: AUG-CC-PVTZ
    Blend: AUG-CC-PVTZ
  Basis Set: (AUG-CC-PVTZ AUX)
    Blend: AUG-CC-PVTZ-JKFIT
	 Reference Energy          =    -328.7149116082409819 [Eh]
	 Singles Energy            =      -0.0000000000000000 [Eh]
	 Same-Spin Energy          =      -0.3465077711271776 [Eh]
	 Opposite-Spin Energy      =      -1.2463680996195206 [Eh]
	 Correlation Energy        =      -1.5928758707466981 [Eh]
	 Total Energy              =    -330.3077874789876773 [Eh]

	 ================> DF-SCS-MP2 Energies <==================
	-----------------------------------------------------------
	 SCS Same-Spin Scale       =       0.3333333333333333 [-]
	 SCS Opposite-Spin Scale   =       1.2000000000000000 [-]
	 SCS Same-Spin Energy      =      -0.1155025903757259 [Eh]
	 SCS Opposite-Spin Energy  =      -1.4956417195434246 [Eh]
	 SCS Correlation Energy    =      -1.6111443099191505 [Eh]
	 SCS Total Energy          =    -330.3260559181601366 [Eh]
	-----------------------------------------------------------

  Dipole Moment: [D]
     X:    -4.2754      Y:     0.0026      Z:    -0.6544     Total:     4.3252

*** Psi4 exiting successfully. Buy a developer a beer!
