                               Psi4 1.4a3.dev225

  ==> Input File <==

--------------------------------------------------------------------------
#psi4
#
memory 32 gb

molecule  {
1 1
  N       -1.4549350    -0.0063160    -0.3913190
  C        0.7700580    -0.6819900     0.3309590
  C        0.8844251     0.7048115    -0.4426404
  C       -0.5772670    -1.2354140    -0.1320620
  C       -0.5771770     1.2100060    -0.1498930
  C        1.9243020    -1.6239510     0.0114420
  C        1.8934400     1.6361940     0.2164580
  C       -2.7287170     0.0116090     0.3933420
  H        0.7287260    -0.5174670     1.4168530
  H        1.0195210     0.5454130    -1.4226110
  H       -1.7088400    -0.0087310    -1.3861360
  H       -0.4895840    -1.7781730    -1.0771710
  H       -1.0806180    -1.8736500     0.5969550
  H       -0.7401010     1.5214000     0.8863980
  H       -0.8919120     2.0130950    -0.8209550
  H        2.8677010    -1.2131930     0.3775700
  H        1.7829480    -2.5983540     0.4871410
  H        2.0117000    -1.7770280    -1.0688530
  H        2.8946680     1.2288240     0.0607940
  H        1.8539810     2.6122500    -0.2745750
  H        1.7463830     1.7834510     1.2910380
  H       -2.4748400    -0.0372670     1.4518960
  H       -3.2625880     0.9370400     0.1753330
  H       -3.3330800    -0.8496000     0.1082720
units angstrom
no_reorient  #important for SAPT in psi4, default
symmetry c1  #important for SAPT in psi4, default
}

set PROPERTIES_ORIGIN ["COM"]
properties('MP2/aug-cc-pvtz', properties = ['dipole'])
--------------------------------------------------------------------------

    Molecular point group: c1
  Charge       = 1
  Multiplicity = 1
  Basis Set: AUG-CC-PVTZ
    Blend: AUG-CC-PVTZ
  Basis Set: (AUG-CC-PVTZ AUX)
    Blend: AUG-CC-PVTZ-JKFIT

    Orbital Energies [Eh]
    ---------------------

    Doubly Occupied:

       1A    -15.851186     2A    -11.448396     3A    -11.446150
       4A    -11.445347     5A    -11.392161     6A    -11.389764
       7A    -11.352710     8A    -11.350988     9A     -1.486916
      10A     -1.263817    11A     -1.189513    12A     -1.141461
      13A     -1.094631    14A     -1.062135    15A     -0.987875
      16A     -0.944221    17A     -0.903623    18A     -0.840912
      19A     -0.826359    20A     -0.785080    21A     -0.759024
      22A     -0.751987    23A     -0.732575    24A     -0.714943
      25A     -0.705626    26A     -0.696393    27A     -0.674959
      28A     -0.669079    29A     -0.654231    30A     -0.632583
      31A     -0.620450    32A     -0.584936

  @DF-RHF Final Energy:  -328.74140585306930

   => Energetics <=

    Nuclear Repulsion Energy =            423.2811221610378993
    One-Electron Energy =               -1271.2449994785056333
    Two-Electron Energy =                 519.2224714643983816
    Total Energy =                       -328.7414058530692955
  Basis Set: (AUG-CC-PVTZ AUX)
    Blend: AUG-CC-PVTZ-RI
    Molecular point group: c1

    Geometry (in Angstrom), charge = 1, multiplicity = 1:

       Center              X                  Y                   Z               Mass
    ------------   -----------------  -----------------  -----------------  -----------------
         N           -1.451662389073    -0.007671130997    -0.374319028278    14.003074004430
         C            0.773330610927    -0.683345130997     0.347958971722    12.000000000000
         C            0.887697710927     0.703456369003    -0.425640428278    12.000000000000
         C           -0.573994389073    -1.236769130997    -0.115062028278    12.000000000000
         C           -0.573904389073     1.208650869003    -0.132893028278    12.000000000000
         C            1.927574610927    -1.625306130997     0.028441971722    12.000000000000
         C            1.896712610927     1.634838869003     0.233457971722    12.000000000000
         C           -2.725444389073     0.010253869003     0.410341971722    12.000000000000
         H            0.731998610927    -0.518822130997     1.433852971722     1.007825032230
         H            1.022793610927     0.544057869003    -1.405611028278     1.007825032230
         H           -1.705567389073    -0.010086130997    -1.369136028278     1.007825032230
         H           -0.486311389073    -1.779528130997    -1.060171028278     1.007825032230
         H           -1.077345389073    -1.875005130997     0.613954971722     1.007825032230
         H           -0.736828389073     1.520044869003     0.903397971722     1.007825032230
         H           -0.888639389073     2.011739869003    -0.803955028278     1.007825032230
         H            2.870973610927    -1.214548130997     0.394569971722     1.007825032230
         H            1.786220610927    -2.599709130997     0.504140971722     1.007825032230
         H            2.014972610927    -1.778383130997    -1.051853028278     1.007825032230
         H            2.897940610927     1.227468869003     0.077793971722     1.007825032230
         H            1.857253610927     2.610894869003    -0.257575028278     1.007825032230
         H            1.749655610927     1.782095869003     1.308037971722     1.007825032230
         H           -2.471567389073    -0.038622130997     1.468895971722     1.007825032230
         H           -3.259315389073     0.935684869003     0.192332971722     1.007825032230
         H           -3.329807389073    -0.850955130997     0.125271971722     1.007825032230

  Basis Set: AUG-CC-PVTZ
    Blend: AUG-CC-PVTZ
  Basis Set: (AUG-CC-PVTZ AUX)
    Blend: AUG-CC-PVTZ-JKFIT
	 Reference Energy          =    -328.7414058530692955 [Eh]
	 Singles Energy            =      -0.0000000000000000 [Eh]
	 Same-Spin Energy          =      -0.3474799741471548 [Eh]
	 Opposite-Spin Energy      =      -1.2501313044394635 [Eh]
	 Correlation Energy        =      -1.5976112785866183 [Eh]
	 Total Energy              =    -330.3390171316559076 [Eh]

	 ================> DF-SCS-MP2 Energies <==================
	-----------------------------------------------------------
	 SCS Same-Spin Scale       =       0.3333333333333333 [-]
	 SCS Opposite-Spin Scale   =       1.2000000000000000 [-]
	 SCS Same-Spin Energy      =      -0.1158266580490516 [Eh]
	 SCS Opposite-Spin Energy  =      -1.5001575653273562 [Eh]
	 SCS Correlation Energy    =      -1.6159842233764079 [Eh]
	 SCS Total Energy          =    -330.3573900764457107 [Eh]
	-----------------------------------------------------------

  Dipole Moment: [D]
     X:    -4.3530      Y:     0.0047      Z:    -0.8463     Total:     4.4345

*** Psi4 exiting successfully. Buy a developer a beer!
