                               Psi4 1.4a3.dev225

  ==> Input File <==

--------------------------------------------------------------------------
#psi4
#
memory 32 gb

molecule  {
1 1
  N       -1.4549350    -0.0063160    -0.3913190
  C        0.7700580    -0.6819900     0.3309590
  C        0.8307661     0.7121264    -0.3639024
  C       -0.5772670    -1.2354140    -0.1320620
  C       -0.5771770     1.2100060    -0.1498930
  C        1.9243020    -1.6239510     0.0114420
  C        1.8934400     1.6361940     0.2164580
  C       -2.7287170     0.0116090     0.3933420
  H        0.7287260    -0.5174670     1.4168530
  H        1.0195210     0.5454130    -1.4226110
  H       -1.7088400    -0.0087310    -1.3861360
  H       -0.4895840    -1.7781730    -1.0771710
  H       -1.0806180    -1.8736500     0.5969550
  H       -0.7401010     1.5214000     0.8863980
  H       -0.8919120     2.0130950    -0.8209550
  H        2.8677010    -1.2131930     0.3775700
  H        1.7829480    -2.5983540     0.4871410
  H        2.0117000    -1.7770280    -1.0688530
  H        2.8946680     1.2288240     0.0607940
  H        1.8539810     2.6122500    -0.2745750
  H        1.7463830     1.7834510     1.2910380
  H       -2.4748400    -0.0372670     1.4518960
  H       -3.2625880     0.9370400     0.1753330
  H       -3.3330800    -0.8496000     0.1082720
units angstrom
no_reorient  #important for SAPT in psi4, default
symmetry c1  #important for SAPT in psi4, default
}

set PROPERTIES_ORIGIN ["COM"]
properties('MP2/aug-cc-pvtz', properties = ['dipole'])
--------------------------------------------------------------------------

    Molecular point group: c1
  Charge       = 1
  Multiplicity = 1
  Basis Set: AUG-CC-PVTZ
    Blend: AUG-CC-PVTZ
  Basis Set: (AUG-CC-PVTZ AUX)
    Blend: AUG-CC-PVTZ-JKFIT

    Orbital Energies [Eh]
    ---------------------

    Doubly Occupied:

       1A    -15.852252     2A    -11.449099     3A    -11.445823
       4A    -11.445649     5A    -11.391039     6A    -11.390058
       7A    -11.352802     8A    -11.352302     9A     -1.489516
      10A     -1.270100    11A     -1.194323    12A     -1.142293
      13A     -1.094855    14A     -1.065359    15A     -0.985023
      16A     -0.940993    17A     -0.903405    18A     -0.844775
      19A     -0.823105    20A     -0.786562    21A     -0.762668
      22A     -0.754086    23A     -0.735088    24A     -0.715523
      25A     -0.701646    26A     -0.697171    27A     -0.675831
      28A     -0.662676    29A     -0.648268    30A     -0.630520
      31A     -0.625951    32A     -0.596580

  @DF-RHF Final Energy:  -328.75367826242518

   => Energetics <=

    Nuclear Repulsion Energy =            424.3023082101683485
    One-Electron Energy =               -1273.2612931541207217
    Two-Electron Energy =                 520.2053066815271904
    Total Energy =                       -328.7536782624251828
  Basis Set: (AUG-CC-PVTZ AUX)
    Blend: AUG-CC-PVTZ-RI
    Molecular point group: c1

    Geometry (in Angstrom), charge = 1, multiplicity = 1:

       Center              X                  Y                   Z               Mass
    ------------   -----------------  -----------------  -----------------  -----------------
         N           -1.446020421711    -0.008440255041    -0.382597923266    14.003074004430
         C            0.778972578289    -0.684114255041     0.339680076734    12.000000000000
         C            0.839680678289     0.710002144959    -0.355181323266    12.000000000000
         C           -0.568352421711    -1.237538255041    -0.123340923266    12.000000000000
         C           -0.568262421711     1.207881744959    -0.141171923266    12.000000000000
         C            1.933216578289    -1.626075255041     0.020163076734    12.000000000000
         C            1.902354578289     1.634069744959     0.225179076734    12.000000000000
         C           -2.719802421711     0.009484744959     0.402063076734    12.000000000000
         H            0.737640578289    -0.519591255041     1.425574076734     1.007825032230
         H            1.028435578289     0.543288744959    -1.413889923266     1.007825032230
         H           -1.699925421711    -0.010855255041    -1.377414923266     1.007825032230
         H           -0.480669421711    -1.780297255041    -1.068449923266     1.007825032230
         H           -1.071703421711    -1.875774255041     0.605676076734     1.007825032230
         H           -0.731186421711     1.519275744959     0.895119076734     1.007825032230
         H           -0.882997421711     2.010970744959    -0.812233923266     1.007825032230
         H            2.876615578289    -1.215317255041     0.386291076734     1.007825032230
         H            1.791862578289    -2.600478255041     0.495862076734     1.007825032230
         H            2.020614578289    -1.779152255041    -1.060131923266     1.007825032230
         H            2.903582578289     1.226699744959     0.069515076734     1.007825032230
         H            1.862895578289     2.610125744959    -0.265853923266     1.007825032230
         H            1.755297578289     1.781326744959     1.299759076734     1.007825032230
         H           -2.465925421711    -0.039391255041     1.460617076734     1.007825032230
         H           -3.253673421711     0.934915744959     0.184054076734     1.007825032230
         H           -3.324165421711    -0.851724255041     0.116993076734     1.007825032230

  Basis Set: AUG-CC-PVTZ
    Blend: AUG-CC-PVTZ
  Basis Set: (AUG-CC-PVTZ AUX)
    Blend: AUG-CC-PVTZ-JKFIT
	 Reference Energy          =    -328.7536782624251828 [Eh]
	 Singles Energy            =      -0.0000000000000000 [Eh]
	 Same-Spin Energy          =      -0.3477782689674718 [Eh]
	 Opposite-Spin Energy      =      -1.2498517908688940 [Eh]
	 Correlation Energy        =      -1.5976300598363657 [Eh]
	 Total Energy              =    -330.3513083222615592 [Eh]

	 ================> DF-SCS-MP2 Energies <==================
	-----------------------------------------------------------
	 SCS Same-Spin Scale       =       0.3333333333333333 [-]
	 SCS Opposite-Spin Scale   =       1.2000000000000000 [-]
	 SCS Same-Spin Energy      =      -0.1159260896558239 [Eh]
	 SCS Opposite-Spin Energy  =      -1.4998221490426726 [Eh]
	 SCS Correlation Energy    =      -1.6157482386984965 [Eh]
	 SCS Total Energy          =    -330.3694265011236553 [Eh]
	-----------------------------------------------------------

  Dipole Moment: [D]
     X:    -4.3507      Y:    -0.0050      Z:    -0.8625     Total:     4.4353

*** Psi4 exiting successfully. Buy a developer a beer!
