                               Psi4 1.4a3.dev225

  ==> Input File <==

--------------------------------------------------------------------------
#psi4
#
memory 32 gb

molecule  {
1 1
  N       -1.4549350    -0.0063160    -0.3913190
  C        0.7700580    -0.6819900     0.3309590
  C        0.8387740     0.6929140    -0.3473660
  C       -0.5772670    -1.2354140    -0.1320620
  C       -0.5771770     1.2100060    -0.1498930
  C        1.9243020    -1.6239510     0.0114420
  C        1.8934400     1.6361940     0.2164580
  C       -2.7287170     0.0116090     0.3933420
  H        0.7287260    -0.5174670     1.4168530
  H        1.0195210     0.5454130    -1.4226110
  H       -1.7038940    -0.0086840    -1.3667573
  H       -0.4895840    -1.7781730    -1.0771710
  H       -1.0806180    -1.8736500     0.5969550
  H       -0.7401010     1.5214000     0.8863980
  H       -0.8919120     2.0130950    -0.8209550
  H        2.8677010    -1.2131930     0.3775700
  H        1.7829480    -2.5983540     0.4871410
  H        2.0117000    -1.7770280    -1.0688530
  H        2.8946680     1.2288240     0.0607940
  H        1.8539810     2.6122500    -0.2745750
  H        1.7463830     1.7834510     1.2910380
  H       -2.4748400    -0.0372670     1.4518960
  H       -3.2625880     0.9370400     0.1753330
  H       -3.3330800    -0.8496000     0.1082720
units angstrom
no_reorient  #important for SAPT in psi4, default
symmetry c1  #important for SAPT in psi4, default
}

set PROPERTIES_ORIGIN ["COM"]
properties('MP2/aug-cc-pvtz', properties = ['dipole'])
--------------------------------------------------------------------------

    Molecular point group: c1
  Charge       = 1
  Multiplicity = 1
  Basis Set: AUG-CC-PVTZ
    Blend: AUG-CC-PVTZ
  Basis Set: (AUG-CC-PVTZ AUX)
    Blend: AUG-CC-PVTZ-JKFIT

    Orbital Energies [Eh]
    ---------------------

    Doubly Occupied:

       1A    -15.850502     2A    -11.449157     3A    -11.446365
       4A    -11.445823     5A    -11.391025     6A    -11.390273
       7A    -11.352882     8A    -11.352561     9A     -1.492065
      10A     -1.272632    11A     -1.193328    12A     -1.143081
      13A     -1.094949    14A     -1.068122    15A     -0.988161
      16A     -0.939843    17A     -0.905039    18A     -0.845110
      19A     -0.822466    20A     -0.786523    21A     -0.763405
      22A     -0.755300    23A     -0.735718    24A     -0.715785
      25A     -0.701316    26A     -0.698065    27A     -0.676420
      28A     -0.663148    29A     -0.647537    30A     -0.628528
      31A     -0.623095    32A     -0.603076

  @DF-RHF Final Energy:  -328.75472118515069

   => Energetics <=

    Nuclear Repulsion Energy =            424.6128984653199154
    One-Electron Energy =               -1273.8526416607035117
    Two-Electron Energy =                 520.4850220102330240
    Total Energy =                       -328.7547211851506290
  Basis Set: (AUG-CC-PVTZ AUX)
    Blend: AUG-CC-PVTZ-RI
    Molecular point group: c1

    Geometry (in Angstrom), charge = 1, multiplicity = 1:

       Center              X                  Y                   Z               Mass
    ------------   -----------------  -----------------  -----------------  -----------------
         N           -1.446906087450    -0.006420585216    -0.384507766729    14.003074004430
         C            0.778086912550    -0.682094585216     0.337770233271    12.000000000000
         C            0.846802912550     0.692809414784    -0.340554766729    12.000000000000
         C           -0.569238087450    -1.235518585216    -0.125250766729    12.000000000000
         C           -0.569148087450     1.209901414784    -0.143081766729    12.000000000000
         C            1.932330912550    -1.624055585216     0.018253233271    12.000000000000
         C            1.901468912550     1.636089414784     0.223269233271    12.000000000000
         C           -2.720688087450     0.011504414784     0.400153233271    12.000000000000
         H            0.736754912550    -0.517571585216     1.423664233271     1.007825032230
         H            1.027549912550     0.545308414784    -1.415799766729     1.007825032230
         H           -1.695865087450    -0.008788585216    -1.359946066729     1.007825032230
         H           -0.481555087450    -1.778277585216    -1.070359766729     1.007825032230
         H           -1.072589087450    -1.873754585216     0.603766233271     1.007825032230
         H           -0.732072087450     1.521295414784     0.893209233271     1.007825032230
         H           -0.883883087450     2.012990414784    -0.814143766729     1.007825032230
         H            2.875729912550    -1.213297585216     0.384381233271     1.007825032230
         H            1.790976912550    -2.598458585216     0.493952233271     1.007825032230
         H            2.019728912550    -1.777132585216    -1.062041766729     1.007825032230
         H            2.902696912550     1.228719414784     0.067605233271     1.007825032230
         H            1.862009912550     2.612145414784    -0.267763766729     1.007825032230
         H            1.754411912550     1.783346414784     1.297849233271     1.007825032230
         H           -2.466811087450    -0.037371585216     1.458707233271     1.007825032230
         H           -3.254559087450     0.936935414784     0.182144233271     1.007825032230
         H           -3.325051087450    -0.849704585216     0.115083233271     1.007825032230

  Basis Set: AUG-CC-PVTZ
    Blend: AUG-CC-PVTZ
  Basis Set: (AUG-CC-PVTZ AUX)
    Blend: AUG-CC-PVTZ-JKFIT
	 Reference Energy          =    -328.7547211851506859 [Eh]
	 Singles Energy            =      -0.0000000000000000 [Eh]
	 Same-Spin Energy          =      -0.3476578234255847 [Eh]
	 Opposite-Spin Energy      =      -1.2494461507294754 [Eh]
	 Correlation Energy        =      -1.5971039741550601 [Eh]
	 Total Energy              =    -330.3518251593057471 [Eh]

	 ================> DF-SCS-MP2 Energies <==================
	-----------------------------------------------------------
	 SCS Same-Spin Scale       =       0.3333333333333333 [-]
	 SCS Opposite-Spin Scale   =       1.2000000000000000 [-]
	 SCS Same-Spin Energy      =      -0.1158859411418615 [Eh]
	 SCS Opposite-Spin Energy  =      -1.4993353808753704 [Eh]
	 SCS Correlation Energy    =      -1.6152213220172320 [Eh]
	 SCS Total Energy          =    -330.3699425071679343 [Eh]
	-----------------------------------------------------------

  Dipole Moment: [D]
     X:    -4.3482      Y:     0.0013      Z:    -0.8452     Total:     4.4296

*** Psi4 exiting successfully. Buy a developer a beer!
