                               Psi4 1.4a3.dev225

  ==> Input File <==

--------------------------------------------------------------------------
#psi4
#
memory 32 gb

molecule  {
1 1
  N       -1.4549350    -0.0063160    -0.3913190
  C        0.7700580    -0.6819900     0.3309590
  C        0.8387740     0.6929140    -0.3473660
  C       -0.5772670    -1.2354140    -0.1320620
  C       -0.5771770     1.2100060    -0.1498930
  C        1.9243020    -1.6239510     0.0114420
  C        1.8934400     1.6361940     0.2164580
  C       -2.7287170     0.0116090     0.3933420
  H        0.7287260    -0.5174670     1.4168530
  H        1.0195210     0.5454130    -1.4226110
  H       -1.7088400    -0.0087310    -1.3861360
  H       -0.4895840    -1.7781730    -1.0771710
  H       -1.0806180    -1.8736500     0.5969550
  H       -0.7401010     1.5214000     0.8863980
  H       -0.8919120     2.0130950    -0.8209550
  H        2.8677010    -1.2131930     0.3775700
  H        1.7829480    -2.5983540     0.4871410
  H        2.0117000    -1.7770280    -1.0688530
  H        2.8946680     1.2288240     0.0607940
  H        1.8539810     2.6122500    -0.2745750
  H        1.7195122     1.8103584     1.4873896
  H       -2.4748400    -0.0372670     1.4518960
  H       -3.2625880     0.9370400     0.1753330
  H       -3.3330800    -0.8496000     0.1082720
units angstrom
no_reorient  #important for SAPT in psi4, default
symmetry c1  #important for SAPT in psi4, default
}

set PROPERTIES_ORIGIN ["COM"]
properties('MP2/aug-cc-pvtz', properties = ['dipole'])
--------------------------------------------------------------------------

    Molecular point group: c1
  Charge       = 1
  Multiplicity = 1
  Basis Set: AUG-CC-PVTZ
    Blend: AUG-CC-PVTZ
  Basis Set: (AUG-CC-PVTZ AUX)
    Blend: AUG-CC-PVTZ-JKFIT

    Orbital Energies [Eh]
    ---------------------

    Doubly Occupied:

       1A    -15.852330     2A    -11.449073     3A    -11.446389
       4A    -11.445830     5A    -11.393250     6A    -11.390452
       7A    -11.375239     8A    -11.352777     9A     -1.489650
      10A     -1.272059    11A     -1.192738    12A     -1.141853
      13A     -1.091025    14A     -1.063172    15A     -0.984018
      16A     -0.937082    17A     -0.902989    18A     -0.844752
      19A     -0.820549    20A     -0.786052    21A     -0.763595
      22A     -0.755265    23A     -0.736260    24A     -0.714168
      25A     -0.697878    26A     -0.688943    27A     -0.677658
      28A     -0.664497    29A     -0.634724    30A     -0.628780
      31A     -0.613692    32A     -0.600419

  @DF-RHF Final Energy:  -328.73431242646899

   => Energetics <=

    Nuclear Repulsion Energy =            423.7308653012174773
    One-Electron Energy =               -1272.1160428146929462
    Two-Electron Energy =                 519.6508650870064230
    Total Energy =                       -328.7343124264690459
  Basis Set: (AUG-CC-PVTZ AUX)
    Blend: AUG-CC-PVTZ-RI
    Molecular point group: c1

    Geometry (in Angstrom), charge = 1, multiplicity = 1:

       Center              X                  Y                   Z               Mass
    ------------   -----------------  -----------------  -----------------  -----------------
         N           -1.446625124931    -0.006657779580    -0.386070549653    14.003074004430
         C            0.778367875069    -0.682331779580     0.336207450347    12.000000000000
         C            0.847083875069     0.692572220420    -0.342117549653    12.000000000000
         C           -0.568957124931    -1.235755779580    -0.126813549653    12.000000000000
         C           -0.568867124931     1.209664220420    -0.144644549653    12.000000000000
         C            1.932611875069    -1.624292779580     0.016690450347    12.000000000000
         C            1.901749875069     1.635852220420     0.221706450347    12.000000000000
         C           -2.720407124931     0.011267220420     0.398590450347    12.000000000000
         H            0.737035875069    -0.517808779580     1.422101450347     1.007825032230
         H            1.027830875069     0.545071220420    -1.417362549653     1.007825032230
         H           -1.700530124931    -0.009072779580    -1.380887549653     1.007825032230
         H           -0.481274124931    -1.778514779580    -1.071922549653     1.007825032230
         H           -1.072308124931    -1.873991779580     0.602203450347     1.007825032230
         H           -0.731791124931     1.521058220420     0.891646450347     1.007825032230
         H           -0.883602124931     2.012753220420    -0.815706549653     1.007825032230
         H            2.876010875069    -1.213534779580     0.382818450347     1.007825032230
         H            1.791257875069    -2.598695779580     0.492389450347     1.007825032230
         H            2.020009875069    -1.777369779580    -1.063604549653     1.007825032230
         H            2.902977875069     1.228482220420     0.066042450347     1.007825032230
         H            1.862290875069     2.611908220420    -0.269326549653     1.007825032230
         H            1.727822075069     1.810016620420     1.492638050347     1.007825032230
         H           -2.466530124931    -0.037608779580     1.457144450347     1.007825032230
         H           -3.254278124931     0.936698220420     0.180581450347     1.007825032230
         H           -3.324770124931    -0.849941779580     0.113520450347     1.007825032230

  Basis Set: AUG-CC-PVTZ
    Blend: AUG-CC-PVTZ
  Basis Set: (AUG-CC-PVTZ AUX)
    Blend: AUG-CC-PVTZ-JKFIT
	 Reference Energy          =    -328.7343124264689891 [Eh]
	 Singles Energy            =      -0.0000000000000000 [Eh]
	 Same-Spin Energy          =      -0.3478446393277027 [Eh]
	 Opposite-Spin Energy      =      -1.2514452413233079 [Eh]
	 Correlation Energy        =      -1.5992898806510105 [Eh]
	 Total Energy              =    -330.3336023071199747 [Eh]

	 ================> DF-SCS-MP2 Energies <==================
	-----------------------------------------------------------
	 SCS Same-Spin Scale       =       0.3333333333333333 [-]
	 SCS Opposite-Spin Scale   =       1.2000000000000000 [-]
	 SCS Same-Spin Energy      =      -0.1159482131092342 [Eh]
	 SCS Opposite-Spin Energy  =      -1.5017342895879695 [Eh]
	 SCS Correlation Energy    =      -1.6176825026972037 [Eh]
	 SCS Total Energy          =    -330.3519949291662101 [Eh]
	-----------------------------------------------------------

  Dipole Moment: [D]
     X:    -4.3479      Y:    -0.0224      Z:    -0.9640     Total:     4.4536

*** Psi4 exiting successfully. Buy a developer a beer!
