                               Psi4 1.4a3.dev225

  ==> Input File <==

--------------------------------------------------------------------------
#psi4
#
memory 32 gb

molecule  {
1 1
  N       -1.4549350    -0.0063160    -0.3913190
  C        0.7700580    -0.6819900     0.3309590
  C        0.8387740     0.6929140    -0.3473660
  C       -0.5772670    -1.2354140    -0.1320620
  C       -0.5771770     1.2100060    -0.1498930
  C        1.9243020    -1.6239510     0.0114420
  C        1.8934400     1.6361940     0.2164580
  C       -2.7422179     0.0116395     0.3709901
  H        0.7287260    -0.5174670     1.4168530
  H        1.0195210     0.5454130    -1.4226110
  H       -1.7088400    -0.0087310    -1.3861360
  H       -0.4895840    -1.7781730    -1.0771710
  H       -1.0806180    -1.8736500     0.5969550
  H       -0.7401010     1.5214000     0.8863980
  H       -0.8919120     2.0130950    -0.8209550
  H        2.8677010    -1.2131930     0.3775700
  H        1.7829480    -2.5983540     0.4871410
  H        2.0117000    -1.7770280    -1.0688530
  H        2.8946680     1.2288240     0.0607940
  H        1.8539810     2.6122500    -0.2745750
  H        1.7463830     1.7834510     1.2910380
  H       -2.4748400    -0.0372670     1.4518960
  H       -3.2625880     0.9370400     0.1753330
  H       -3.3330800    -0.8496000     0.1082720
units angstrom
no_reorient  #important for SAPT in psi4, default
symmetry c1  #important for SAPT in psi4, default
}

set PROPERTIES_ORIGIN ["COM"]
properties('MP2/aug-cc-pvtz', properties = ['dipole'])
--------------------------------------------------------------------------

    Molecular point group: c1
  Charge       = 1
  Multiplicity = 1
  Basis Set: AUG-CC-PVTZ
    Blend: AUG-CC-PVTZ
  Basis Set: (AUG-CC-PVTZ AUX)
    Blend: AUG-CC-PVTZ-JKFIT

    Orbital Energies [Eh]
    ---------------------

    Doubly Occupied:

       1A    -15.852129     2A    -11.449088     3A    -11.446374
       4A    -11.445841     5A    -11.391012     6A    -11.390236
       7A    -11.352854     8A    -11.352531     9A     -1.489375
      10A     -1.272351    11A     -1.193173    12A     -1.142788
      13A     -1.094816    14A     -1.064819    15A     -0.987267
      16A     -0.939792    17A     -0.903257    18A     -0.845177
      19A     -0.823365    20A     -0.786479    21A     -0.765576
      22A     -0.750940    23A     -0.732484    24A     -0.716743
      25A     -0.701786    26A     -0.696774    27A     -0.676382
      28A     -0.663462    29A     -0.647471    30A     -0.628645
      31A     -0.623034    32A     -0.603019

  @DF-RHF Final Energy:  -328.75344044769849

   => Energetics <=

    Nuclear Repulsion Energy =            424.3815022984489360
    One-Electron Energy =               -1273.4118062873749295
    Two-Electron Energy =                 520.2768635412274989
    Total Energy =                       -328.7534404476984946
  Basis Set: (AUG-CC-PVTZ AUX)
    Blend: AUG-CC-PVTZ-RI
    Molecular point group: c1

    Geometry (in Angstrom), charge = 1, multiplicity = 1:

       Center              X                  Y                   Z               Mass
    ------------   -----------------  -----------------  -----------------  -----------------
         N           -1.445442861064    -0.006423377094    -0.381986453407    14.003074004430
         C            0.779550138936    -0.682097377094     0.340291546593    12.000000000000
         C            0.848266138936     0.692806622906    -0.338033453407    12.000000000000
         C           -0.567774861064    -1.235521377094    -0.122729453407    12.000000000000
         C           -0.567684861064     1.209898622906    -0.140560453407    12.000000000000
         C            1.933794138936    -1.624058377094     0.020774546593    12.000000000000
         C            1.902932138936     1.636086622906     0.225790546593    12.000000000000
         C           -2.732725761064     0.011532122906     0.380322646593    12.000000000000
         H            0.738218138936    -0.517574377094     1.426185546593     1.007825032230
         H            1.029013138936     0.545305622906    -1.413278453407     1.007825032230
         H           -1.699347861064    -0.008838377094    -1.376803453407     1.007825032230
         H           -0.480091861064    -1.778280377094    -1.067838453407     1.007825032230
         H           -1.071125861064    -1.873757377094     0.606287546593     1.007825032230
         H           -0.730608861064     1.521292622906     0.895730546593     1.007825032230
         H           -0.882419861064     2.012987622906    -0.811622453407     1.007825032230
         H            2.877193138936    -1.213300377094     0.386902546593     1.007825032230
         H            1.792440138936    -2.598461377094     0.496473546593     1.007825032230
         H            2.021192138936    -1.777135377094    -1.059520453407     1.007825032230
         H            2.904160138936     1.228716622906     0.070126546593     1.007825032230
         H            1.863473138936     2.612142622906    -0.265242453407     1.007825032230
         H            1.755875138936     1.783343622906     1.300370546593     1.007825032230
         H           -2.465347861064    -0.037374377094     1.461228546593     1.007825032230
         H           -3.253095861064     0.936932622906     0.184665546593     1.007825032230
         H           -3.323587861064    -0.849707377094     0.117604546593     1.007825032230

  Basis Set: AUG-CC-PVTZ
    Blend: AUG-CC-PVTZ
  Basis Set: (AUG-CC-PVTZ AUX)
    Blend: AUG-CC-PVTZ-JKFIT
	 Reference Energy          =    -328.7534404476984946 [Eh]
	 Singles Energy            =      -0.0000000000000000 [Eh]
	 Same-Spin Energy          =      -0.3478134663186601 [Eh]
	 Opposite-Spin Energy      =      -1.2498595341364935 [Eh]
	 Correlation Energy        =      -1.5976730004551536 [Eh]
	 Total Energy              =    -330.3511134481536260 [Eh]

	 ================> DF-SCS-MP2 Energies <==================
	-----------------------------------------------------------
	 SCS Same-Spin Scale       =       0.3333333333333333 [-]
	 SCS Opposite-Spin Scale   =       1.2000000000000000 [-]
	 SCS Same-Spin Energy      =      -0.1159378221062200 [Eh]
	 SCS Opposite-Spin Energy  =      -1.4998314409637923 [Eh]
	 SCS Correlation Energy    =      -1.6157692630700122 [Eh]
	 SCS Total Energy          =    -330.3692097107685299 [Eh]
	-----------------------------------------------------------

  Dipole Moment: [D]
     X:    -4.3494      Y:     0.0013      Z:    -0.8674     Total:     4.4351

*** Psi4 exiting successfully. Buy a developer a beer!
