                               Psi4 1.4a3.dev225

  ==> Input File <==

--------------------------------------------------------------------------
#psi4
#
memory 32 gb

molecule  {
1 1
  N       -1.4549350    -0.0063160    -0.3913190
  C        0.7700580    -0.6819900     0.3309590
  C        0.8387740     0.6929140    -0.3473660
  C       -0.5772670    -1.2354140    -0.1320620
  C       -0.5771770     1.2100060    -0.1498930
  C        1.9243020    -1.6239510     0.0114420
  C        1.8934400     1.6361940     0.2164580
  C       -2.7287170     0.0116090     0.3933420
  H        0.7287260    -0.5174670     1.4168530
  H        1.0195210     0.5454130    -1.4226110
  H       -1.7088400    -0.0087310    -1.3861360
  H       -0.4895840    -1.7781730    -1.0771710
  H       -1.0806180    -1.8736500     0.5969550
  H       -0.7371232     1.5157086     0.8674575
  H       -0.8919120     2.0130950    -0.8209550
  H        2.8677010    -1.2131930     0.3775700
  H        1.7829480    -2.5983540     0.4871410
  H        2.0117000    -1.7770280    -1.0688530
  H        2.8946680     1.2288240     0.0607940
  H        1.8539810     2.6122500    -0.2745750
  H        1.7463830     1.7834510     1.2910380
  H       -2.4748400    -0.0372670     1.4518960
  H       -3.2625880     0.9370400     0.1753330
  H       -3.3330800    -0.8496000     0.1082720
units angstrom
no_reorient  #important for SAPT in psi4, default
symmetry c1  #important for SAPT in psi4, default
}

set PROPERTIES_ORIGIN ["COM"]
properties('MP2/aug-cc-pvtz', properties = ['dipole'])
--------------------------------------------------------------------------

    Molecular point group: c1
  Charge       = 1
  Multiplicity = 1
  Basis Set: AUG-CC-PVTZ
    Blend: AUG-CC-PVTZ
  Basis Set: (AUG-CC-PVTZ AUX)
    Blend: AUG-CC-PVTZ-JKFIT

    Orbital Energies [Eh]
    ---------------------

    Doubly Occupied:

       1A    -15.852008     2A    -11.449049     3A    -11.446173
       4A    -11.443473     5A    -11.390813     6A    -11.390130
       7A    -11.352807     8A    -11.352490     9A     -1.489473
      10A     -1.272175    11A     -1.193820    12A     -1.142660
      13A     -1.095215    14A     -1.065945    15A     -0.988210
      16A     -0.939572    17A     -0.903311    18A     -0.845298
      19A     -0.822104    20A     -0.787936    21A     -0.763354
      22A     -0.754898    23A     -0.735310    24A     -0.715415
      25A     -0.702540    26A     -0.697702    27A     -0.676328
      28A     -0.662945    29A     -0.647646    30A     -0.628346
      31A     -0.622973    32A     -0.602939

  @DF-RHF Final Energy:  -328.75432450689152

   => Energetics <=

    Nuclear Repulsion Energy =            424.5870010733233926
    One-Electron Energy =               -1273.8165298487144810
    Two-Electron Energy =                 520.4752042684996240
    Total Energy =                       -328.7543245068915212
  Basis Set: (AUG-CC-PVTZ AUX)
    Blend: AUG-CC-PVTZ-RI
    Molecular point group: c1

    Geometry (in Angstrom), charge = 1, multiplicity = 1:

       Center              X                  Y                   Z               Mass
    ------------   -----------------  -----------------  -----------------  -----------------
         N           -1.446888706996    -0.006369911505    -0.384169383895    14.003074004430
         C            0.778104293004    -0.682043911505     0.338108616105    12.000000000000
         C            0.846820293004     0.692860088495    -0.340216383895    12.000000000000
         C           -0.569220706996    -1.235467911505    -0.124912383895    12.000000000000
         C           -0.569130706996     1.209952088495    -0.142743383895    12.000000000000
         C            1.932348293004    -1.624004911505     0.018591616105    12.000000000000
         C            1.901486293004     1.636140088495     0.223607616105    12.000000000000
         C           -2.720670706996     0.011555088495     0.400491616105    12.000000000000
         H            0.736772293004    -0.517520911505     1.424002616105     1.007825032230
         H            1.027567293004     0.545359088495    -1.415461383895     1.007825032230
         H           -1.700793706996    -0.008784911505    -1.378986383895     1.007825032230
         H           -0.481537706996    -1.778226911505    -1.070021383895     1.007825032230
         H           -1.072571706996    -1.873703911505     0.604104616105     1.007825032230
         H           -0.729076906996     1.515654688495     0.874607116105     1.007825032230
         H           -0.883865706996     2.013041088495    -0.813805383895     1.007825032230
         H            2.875747293004    -1.213246911505     0.384719616105     1.007825032230
         H            1.790994293004    -2.598407911505     0.494290616105     1.007825032230
         H            2.019746293004    -1.777081911505    -1.061703383895     1.007825032230
         H            2.902714293004     1.228770088495     0.067943616105     1.007825032230
         H            1.862027293004     2.612196088495    -0.267425383895     1.007825032230
         H            1.754429293004     1.783397088495     1.298187616105     1.007825032230
         H           -2.466793706996    -0.037320911505     1.459045616105     1.007825032230
         H           -3.254541706996     0.936986088495     0.182482616105     1.007825032230
         H           -3.325033706996    -0.849653911505     0.115421616105     1.007825032230

  Basis Set: AUG-CC-PVTZ
    Blend: AUG-CC-PVTZ
  Basis Set: (AUG-CC-PVTZ AUX)
    Blend: AUG-CC-PVTZ-JKFIT
	 Reference Energy          =    -328.7543245068915212 [Eh]
	 Singles Energy            =      -0.0000000000000000 [Eh]
	 Same-Spin Energy          =      -0.3477554111513350 [Eh]
	 Opposite-Spin Energy      =      -1.2496960496286402 [Eh]
	 Correlation Energy        =      -1.5974514607799752 [Eh]
	 Total Energy              =    -330.3517759676714718 [Eh]

	 ================> DF-SCS-MP2 Energies <==================
	-----------------------------------------------------------
	 SCS Same-Spin Scale       =       0.3333333333333333 [-]
	 SCS Opposite-Spin Scale   =       1.2000000000000000 [-]
	 SCS Same-Spin Energy      =      -0.1159184703837783 [Eh]
	 SCS Opposite-Spin Energy  =      -1.4996352595543683 [Eh]
	 SCS Correlation Energy    =      -1.6155537299381466 [Eh]
	 SCS Total Energy          =    -330.3698782368296634 [Eh]
	-----------------------------------------------------------

  Dipole Moment: [D]
     X:    -4.3585      Y:     0.0014      Z:    -0.8645     Total:     4.4434

*** Psi4 exiting successfully. Buy a developer a beer!
