                               Psi4 1.4a3.dev225

  ==> Input File <==

--------------------------------------------------------------------------
#psi4
#
memory 32 gb

molecule  {
1 1
  N       -1.4181331     0.0115289    -0.4257878
  C        0.7700580    -0.6819900     0.3309590
  C        0.8387740     0.6929140    -0.3473660
  C       -0.5772670    -1.2354140    -0.1320620
  C       -0.5771770     1.2100060    -0.1498930
  C        1.9243020    -1.6239510     0.0114420
  C        1.8934400     1.6361940     0.2164580
  C       -2.7287170     0.0116090     0.3933420
  H        0.7287260    -0.5174670     1.4168530
  H        1.0195210     0.5454130    -1.4226110
  H       -1.7088400    -0.0087310    -1.3861360
  H       -0.4895840    -1.7781730    -1.0771710
  H       -1.0806180    -1.8736500     0.5969550
  H       -0.7401010     1.5214000     0.8863980
  H       -0.8919120     2.0130950    -0.8209550
  H        2.8677010    -1.2131930     0.3775700
  H        1.7829480    -2.5983540     0.4871410
  H        2.0117000    -1.7770280    -1.0688530
  H        2.8946680     1.2288240     0.0607940
  H        1.8539810     2.6122500    -0.2745750
  H        1.7463830     1.7834510     1.2910380
  H       -2.4748400    -0.0372670     1.4518960
  H       -3.2625880     0.9370400     0.1753330
  H       -3.3330800    -0.8496000     0.1082720
units angstrom
no_reorient  #important for SAPT in psi4, default
symmetry c1  #important for SAPT in psi4, default
}

set PROPERTIES_ORIGIN ["COM"]
properties('MP2/aug-cc-pvtz', properties = ['dipole'])
--------------------------------------------------------------------------

    Molecular point group: c1
  Charge       = 1
  Multiplicity = 1
  Basis Set: AUG-CC-PVTZ
    Blend: AUG-CC-PVTZ
  Basis Set: (AUG-CC-PVTZ AUX)
    Blend: AUG-CC-PVTZ-JKFIT

    Orbital Energies [Eh]
    ---------------------

    Doubly Occupied:

       1A    -15.850779     2A    -11.453990     3A    -11.445862
       4A    -11.442653     5A    -11.389635     6A    -11.389023
       7A    -11.351827     8A    -11.351476     9A     -1.490208
      10A     -1.268851    11A     -1.194257    12A     -1.140062
      13A     -1.095182    14A     -1.069614    15A     -0.987632
      16A     -0.938887    17A     -0.903874    18A     -0.844451
      19A     -0.818116    20A     -0.786900    21A     -0.762080
      22A     -0.754564    23A     -0.736810    24A     -0.720849
      25A     -0.700616    26A     -0.696891    27A     -0.675710
      28A     -0.659398    29A     -0.646520    30A     -0.627417
      31A     -0.622095    32A     -0.602093

  @DF-RHF Final Energy:  -328.75175798168834

   => Energetics <=

    Nuclear Repulsion Energy =            424.6704982292952195
    One-Electron Energy =               -1274.0078684566547054
    Two-Electron Energy =                 520.5856122456712001
    Total Energy =                       -328.7517579816883426
  Basis Set: (AUG-CC-PVTZ AUX)
    Blend: AUG-CC-PVTZ-RI
    Molecular point group: c1

    Geometry (in Angstrom), charge = 1, multiplicity = 1:

       Center              X                  Y                   Z               Mass
    ------------   -----------------  -----------------  -----------------  -----------------
         N           -1.414575954229     0.009235233344    -0.414576259282    14.003074004430
         C            0.773615145771    -0.684283666656     0.342170540718    12.000000000000
         C            0.842331145771     0.690620333344    -0.336154459282    12.000000000000
         C           -0.573709854229    -1.237707666656    -0.120850459282    12.000000000000
         C           -0.573619854229     1.207712333344    -0.138681459282    12.000000000000
         C            1.927859145771    -1.626244666656     0.022653540718    12.000000000000
         C            1.896997145771     1.633900333344     0.227669540718    12.000000000000
         C           -2.725159854229     0.009315333344     0.404553540718    12.000000000000
         H            0.732283145771    -0.519760666656     1.428064540718     1.007825032230
         H            1.023078145771     0.543119333344    -1.411399459282     1.007825032230
         H           -1.705282854229    -0.011024666656    -1.374924459282     1.007825032230
         H           -0.486026854229    -1.780466666656    -1.065959459282     1.007825032230
         H           -1.077060854229    -1.875943666656     0.608166540718     1.007825032230
         H           -0.736543854229     1.519106333344     0.897609540718     1.007825032230
         H           -0.888354854229     2.010801333344    -0.809743459282     1.007825032230
         H            2.871258145771    -1.215486666656     0.388781540718     1.007825032230
         H            1.786505145771    -2.600647666656     0.498352540718     1.007825032230
         H            2.015257145771    -1.779321666656    -1.057641459282     1.007825032230
         H            2.898225145771     1.226530333344     0.072005540718     1.007825032230
         H            1.857538145771     2.609956333344    -0.263363459282     1.007825032230
         H            1.749940145771     1.781157333344     1.302249540718     1.007825032230
         H           -2.471282854229    -0.039560666656     1.463107540718     1.007825032230
         H           -3.259030854229     0.934746333344     0.186544540718     1.007825032230
         H           -3.329522854229    -0.851893666656     0.119483540718     1.007825032230

  Basis Set: AUG-CC-PVTZ
    Blend: AUG-CC-PVTZ
  Basis Set: (AUG-CC-PVTZ AUX)
    Blend: AUG-CC-PVTZ-JKFIT
	 Reference Energy          =    -328.7517579816883426 [Eh]
	 Singles Energy            =      -0.0000000000000000 [Eh]
	 Same-Spin Energy          =      -0.3476744578867539 [Eh]
	 Opposite-Spin Energy      =      -1.2497776439855639 [Eh]
	 Correlation Energy        =      -1.5974521018723178 [Eh]
	 Total Energy              =    -330.3492100835606493 [Eh]

	 ================> DF-SCS-MP2 Energies <==================
	-----------------------------------------------------------
	 SCS Same-Spin Scale       =       0.3333333333333333 [-]
	 SCS Opposite-Spin Scale   =       1.2000000000000000 [-]
	 SCS Same-Spin Energy      =      -0.1158914859622513 [Eh]
	 SCS Opposite-Spin Energy  =      -1.4997331727826766 [Eh]
	 SCS Correlation Energy    =      -1.6156246587449279 [Eh]
	 SCS Total Energy          =    -330.3673826404332772 [Eh]
	-----------------------------------------------------------

  Dipole Moment: [D]
     X:    -4.4704      Y:    -0.0329      Z:    -0.8207     Total:     4.5452

*** Psi4 exiting successfully. Buy a developer a beer!
