                               Psi4 1.4a3.dev225

  ==> Input File <==

--------------------------------------------------------------------------
#psi4
#
memory 32 gb

molecule  {
1 1
  N       -1.4549350    -0.0063160    -0.3913190
  C        0.7700580    -0.6819900     0.3309590
  C        0.8739924     0.6189951    -0.2795542
  C       -0.5772670    -1.2354140    -0.1320620
  C       -0.5771770     1.2100060    -0.1498930
  C        1.9243020    -1.6239510     0.0114420
  C        1.8934400     1.6361940     0.2164580
  C       -2.7287170     0.0116090     0.3933420
  H        0.7287260    -0.5174670     1.4168530
  H        1.0195210     0.5454130    -1.4226110
  H       -1.7088400    -0.0087310    -1.3861360
  H       -0.4895840    -1.7781730    -1.0771710
  H       -1.0806180    -1.8736500     0.5969550
  H       -0.7401010     1.5214000     0.8863980
  H       -0.8919120     2.0130950    -0.8209550
  H        2.8677010    -1.2131930     0.3775700
  H        1.7829480    -2.5983540     0.4871410
  H        2.0117000    -1.7770280    -1.0688530
  H        2.8946680     1.2288240     0.0607940
  H        1.8539810     2.6122500    -0.2745750
  H        1.7463830     1.7834510     1.2910380
  H       -2.4748400    -0.0372670     1.4518960
  H       -3.2625880     0.9370400     0.1753330
  H       -3.3330800    -0.8496000     0.1082720
units angstrom
no_reorient  #important for SAPT in psi4, default
symmetry c1  #important for SAPT in psi4, default
}

set PROPERTIES_ORIGIN ["COM"]
properties('MP2/aug-cc-pvtz', properties = ['dipole'])
--------------------------------------------------------------------------

    Molecular point group: c1
  Charge       = 1
  Multiplicity = 1
  Basis Set: AUG-CC-PVTZ
    Blend: AUG-CC-PVTZ
  Basis Set: (AUG-CC-PVTZ AUX)
    Blend: AUG-CC-PVTZ-JKFIT

    Orbital Energies [Eh]
    ---------------------

    Doubly Occupied:

       1A    -15.851687     2A    -11.448592     3A    -11.447958
       4A    -11.445809     5A    -11.394975     6A    -11.387346
       7A    -11.353725     8A    -11.353471     9A     -1.488944
      10A     -1.282403    11A     -1.188190    12A     -1.144130
      13A     -1.094965    14A     -1.066224    15A     -0.998336
      16A     -0.932704    17A     -0.902751    18A     -0.845053
      19A     -0.818427    20A     -0.784888    21A     -0.765782
      22A     -0.758893    23A     -0.736590    24A     -0.714896
      25A     -0.702137    26A     -0.696474    27A     -0.679441
      28A     -0.666007    29A     -0.646406    30A     -0.629698
      31A     -0.614278    32A     -0.602772

  @DF-RHF Final Energy:  -328.74229735826759

   => Energetics <=

    Nuclear Repulsion Energy =            425.1833125468670573
    One-Electron Energy =               -1274.9633146231981300
    Two-Electron Energy =                 521.0377047180635373
    Total Energy =                       -328.7422973582675922
  Basis Set: (AUG-CC-PVTZ AUX)
    Blend: AUG-CC-PVTZ-RI
    Molecular point group: c1

    Geometry (in Angstrom), charge = 1, multiplicity = 1:

       Center              X                  Y                   Z               Mass
    ------------   -----------------  -----------------  -----------------  -----------------
         N           -1.450565444425     0.001352021279    -0.391466701878    14.003074004430
         C            0.774427555575    -0.674321978721     0.330811298122    12.000000000000
         C            0.878361955575     0.626663121279    -0.279701901878    12.000000000000
         C           -0.572897444425    -1.227745978721    -0.132209701878    12.000000000000
         C           -0.572807444425     1.217674021279    -0.150040701878    12.000000000000
         C            1.928671555575    -1.616282978721     0.011294298122    12.000000000000
         C            1.897809555575     1.643862021279     0.216310298122    12.000000000000
         C           -2.724347444425     0.019277021279     0.393194298122    12.000000000000
         H            0.733095555575    -0.509798978721     1.416705298122     1.007825032230
         H            1.023890555575     0.553081021279    -1.422758701878     1.007825032230
         H           -1.704470444425    -0.001062978721    -1.386283701878     1.007825032230
         H           -0.485214444425    -1.770504978721    -1.077318701878     1.007825032230
         H           -1.076248444425    -1.865981978721     0.596807298122     1.007825032230
         H           -0.735731444425     1.529068021279     0.886250298122     1.007825032230
         H           -0.887542444425     2.020763021279    -0.821102701878     1.007825032230
         H            2.872070555575    -1.205524978721     0.377422298122     1.007825032230
         H            1.787317555575    -2.590685978721     0.486993298122     1.007825032230
         H            2.016069555575    -1.769359978721    -1.069000701878     1.007825032230
         H            2.899037555575     1.236492021279     0.060646298122     1.007825032230
         H            1.858350555575     2.619918021279    -0.274722701878     1.007825032230
         H            1.750752555575     1.791119021279     1.290890298122     1.007825032230
         H           -2.470470444425    -0.029598978721     1.451748298122     1.007825032230
         H           -3.258218444425     0.944708021279     0.175185298122     1.007825032230
         H           -3.328710444425    -0.841931978721     0.108124298122     1.007825032230

  Basis Set: AUG-CC-PVTZ
    Blend: AUG-CC-PVTZ
  Basis Set: (AUG-CC-PVTZ AUX)
    Blend: AUG-CC-PVTZ-JKFIT
	 Reference Energy          =    -328.7422973582675922 [Eh]
	 Singles Energy            =      -0.0000000000000000 [Eh]
	 Same-Spin Energy          =      -0.3485164461433891 [Eh]
	 Opposite-Spin Energy      =      -1.2510370459519664 [Eh]
	 Correlation Energy        =      -1.5995534920953554 [Eh]
	 Total Energy              =    -330.3418508503629596 [Eh]

	 ================> DF-SCS-MP2 Energies <==================
	-----------------------------------------------------------
	 SCS Same-Spin Scale       =       0.3333333333333333 [-]
	 SCS Opposite-Spin Scale   =       1.2000000000000000 [-]
	 SCS Same-Spin Energy      =      -0.1161721487144630 [Eh]
	 SCS Opposite-Spin Energy  =      -1.5012444551423596 [Eh]
	 SCS Correlation Energy    =      -1.6174166038568225 [Eh]
	 SCS Total Energy          =    -330.3597139621244310 [Eh]
	-----------------------------------------------------------

  Dipole Moment: [D]
     X:    -4.3675      Y:     0.0172      Z:    -0.8708     Total:     4.4535

*** Psi4 exiting successfully. Buy a developer a beer!
