                               Psi4 1.4a3.dev225

  ==> Input File <==

--------------------------------------------------------------------------
#psi4
#
memory 32 gb

molecule  {
1 1
  N       -1.4549350    -0.0063160    -0.3913190
  C        0.7700580    -0.6819900     0.3309590
  C        0.8178623     0.6886858    -0.2986692
  C       -0.5772670    -1.2354140    -0.1320620
  C       -0.5771770     1.2100060    -0.1498930
  C        1.9243020    -1.6239510     0.0114420
  C        1.8934400     1.6361940     0.2164580
  C       -2.7287170     0.0116090     0.3933420
  H        0.7287260    -0.5174670     1.4168530
  H        1.0195210     0.5454130    -1.4226110
  H       -1.7088400    -0.0087310    -1.3861360
  H       -0.4895840    -1.7781730    -1.0771710
  H       -1.0806180    -1.8736500     0.5969550
  H       -0.7401010     1.5214000     0.8863980
  H       -0.8919120     2.0130950    -0.8209550
  H        2.8677010    -1.2131930     0.3775700
  H        1.7829480    -2.5983540     0.4871410
  H        2.0117000    -1.7770280    -1.0688530
  H        2.8946680     1.2288240     0.0607940
  H        1.8539810     2.6122500    -0.2745750
  H        1.7463830     1.7834510     1.2910380
  H       -2.4748400    -0.0372670     1.4518960
  H       -3.2625880     0.9370400     0.1753330
  H       -3.3330800    -0.8496000     0.1082720
units angstrom
no_reorient  #important for SAPT in psi4, default
symmetry c1  #important for SAPT in psi4, default
}

set PROPERTIES_ORIGIN ["COM"]
properties('MP2/aug-cc-pvtz', properties = ['dipole'])
--------------------------------------------------------------------------

    Molecular point group: c1
  Charge       = 1
  Multiplicity = 1
  Basis Set: AUG-CC-PVTZ
    Blend: AUG-CC-PVTZ
  Basis Set: (AUG-CC-PVTZ AUX)
    Blend: AUG-CC-PVTZ-JKFIT

    Orbital Energies [Eh]
    ---------------------

    Doubly Occupied:

       1A    -15.852679     2A    -11.449317     3A    -11.446728
       4A    -11.445733     5A    -11.392356     6A    -11.389804
       7A    -11.353458     8A    -11.353351     9A     -1.490741
      10A     -1.276556    11A     -1.195297    12A     -1.143306
      13A     -1.095136    14A     -1.067298    15A     -0.989397
      16A     -0.937058    17A     -0.903438    18A     -0.846956
      19A     -0.819634    20A     -0.786836    21A     -0.765420
      22A     -0.756555    23A     -0.736766    24A     -0.715942
      25A     -0.699472    26A     -0.697155    27A     -0.677507
      28A     -0.666823    29A     -0.643845    30A     -0.631461
      31A     -0.617550    32A     -0.603469

  @DF-RHF Final Energy:  -328.75060552403937

   => Energetics <=

    Nuclear Repulsion Energy =            425.0404376149370478
    One-Electron Energy =               -1274.6879965341645402
    Two-Electron Energy =                 520.8969533951881203
    Total Energy =                       -328.7506055240394289
  Basis Set: (AUG-CC-PVTZ AUX)
    Blend: AUG-CC-PVTZ-RI
    Molecular point group: c1

    Geometry (in Angstrom), charge = 1, multiplicity = 1:

       Center              X                  Y                   Z               Mass
    ------------   -----------------  -----------------  -----------------  -----------------
         N           -1.444663653630    -0.005975596733    -0.389456858121    14.003074004430
         C            0.780329346370    -0.681649596733     0.332821141879    12.000000000000
         C            0.828133646370     0.689026203267    -0.296807058121    12.000000000000
         C           -0.566995653630    -1.235073596733    -0.130199858121    12.000000000000
         C           -0.566905653630     1.210346403267    -0.148030858121    12.000000000000
         C            1.934573346370    -1.623610596733     0.013304141879    12.000000000000
         C            1.903711346370     1.636534403267     0.218320141879    12.000000000000
         C           -2.718445653630     0.011949403267     0.395204141879    12.000000000000
         H            0.738997346370    -0.517126596733     1.418715141879     1.007825032230
         H            1.029792346370     0.545753403267    -1.420748858121     1.007825032230
         H           -1.698568653630    -0.008390596733    -1.384273858121     1.007825032230
         H           -0.479312653630    -1.777832596733    -1.075308858121     1.007825032230
         H           -1.070346653630    -1.873309596733     0.598817141879     1.007825032230
         H           -0.729829653630     1.521740403267     0.888260141879     1.007825032230
         H           -0.881640653630     2.013435403267    -0.819092858121     1.007825032230
         H            2.877972346370    -1.212852596733     0.379432141879     1.007825032230
         H            1.793219346370    -2.598013596733     0.489003141879     1.007825032230
         H            2.021971346370    -1.776687596733    -1.066990858121     1.007825032230
         H            2.904939346370     1.229164403267     0.062656141879     1.007825032230
         H            1.864252346370     2.612590403267    -0.272712858121     1.007825032230
         H            1.756654346370     1.783791403267     1.292900141879     1.007825032230
         H           -2.464568653630    -0.036926596733     1.453758141879     1.007825032230
         H           -3.252316653630     0.937380403267     0.177195141879     1.007825032230
         H           -3.322808653630    -0.849259596733     0.110134141879     1.007825032230

  Basis Set: AUG-CC-PVTZ
    Blend: AUG-CC-PVTZ
  Basis Set: (AUG-CC-PVTZ AUX)
    Blend: AUG-CC-PVTZ-JKFIT
	 Reference Energy          =    -328.7506055240393721 [Eh]
	 Singles Energy            =      -0.0000000000000000 [Eh]
	 Same-Spin Energy          =      -0.3481735555337687 [Eh]
	 Opposite-Spin Energy      =      -1.2502829255567318 [Eh]
	 Correlation Energy        =      -1.5984564810905004 [Eh]
	 Total Energy              =    -330.3490620051298947 [Eh]

	 ================> DF-SCS-MP2 Energies <==================
	-----------------------------------------------------------
	 SCS Same-Spin Scale       =       0.3333333333333333 [-]
	 SCS Opposite-Spin Scale   =       1.2000000000000000 [-]
	 SCS Same-Spin Energy      =      -0.1160578518445896 [Eh]
	 SCS Opposite-Spin Energy  =      -1.5003395106680781 [Eh]
	 SCS Correlation Energy    =      -1.6163973625126677 [Eh]
	 SCS Total Energy          =    -330.3670028865520294 [Eh]
	-----------------------------------------------------------

  Dipole Moment: [D]
     X:    -4.3554      Y:    -0.0001      Z:    -0.8654     Total:     4.4406

*** Psi4 exiting successfully. Buy a developer a beer!
