                               Psi4 1.4a3.dev225

  ==> Input File <==

--------------------------------------------------------------------------
#psi4
#
memory 32 gb

molecule  {
1 1
  N       -1.4549350    -0.0063160    -0.3913190
  C        0.7700580    -0.6819900     0.3309590
  C        0.7799942     0.6836964    -0.1994528
  C       -0.5772670    -1.2354140    -0.1320620
  C       -0.5771770     1.2100060    -0.1498930
  C        1.9243020    -1.6239510     0.0114420
  C        1.8934400     1.6361940     0.2164580
  C       -2.7287170     0.0116090     0.3933420
  H        0.7287260    -0.5174670     1.4168530
  H        1.0195210     0.5454130    -1.4226110
  H       -1.7088400    -0.0087310    -1.3861360
  H       -0.4895840    -1.7781730    -1.0771710
  H       -1.0806180    -1.8736500     0.5969550
  H       -0.7401010     1.5214000     0.8863980
  H       -0.8919120     2.0130950    -0.8209550
  H        2.8677010    -1.2131930     0.3775700
  H        1.7829480    -2.5983540     0.4871410
  H        2.0117000    -1.7770280    -1.0688530
  H        2.8946680     1.2288240     0.0607940
  H        1.8539810     2.6122500    -0.2745750
  H        1.7463830     1.7834510     1.2910380
  H       -2.4748400    -0.0372670     1.4518960
  H       -3.2625880     0.9370400     0.1753330
  H       -3.3330800    -0.8496000     0.1082720
units angstrom
no_reorient  #important for SAPT in psi4, default
symmetry c1  #important for SAPT in psi4, default
}

set PROPERTIES_ORIGIN ["COM"]
properties('MP2/aug-cc-pvtz', properties = ['dipole'])
--------------------------------------------------------------------------

    Molecular point group: c1
  Charge       = 1
  Multiplicity = 1
  Basis Set: AUG-CC-PVTZ
    Blend: AUG-CC-PVTZ
  Basis Set: (AUG-CC-PVTZ AUX)
    Blend: AUG-CC-PVTZ-JKFIT

    Orbital Energies [Eh]
    ---------------------

    Doubly Occupied:

       1A    -15.853908     2A    -11.449982     3A    -11.448028
       4A    -11.446744     5A    -11.397818     6A    -11.390025
       7A    -11.355953     8A    -11.355264     9A     -1.493441
      10A     -1.285901    11A     -1.200060    12A     -1.144901
      13A     -1.096424    14A     -1.071182    15A     -0.996297
      16A     -0.932904    17A     -0.904457    18A     -0.851768
      19A     -0.815149    20A     -0.787952    21A     -0.769712
      22A     -0.760267    23A     -0.739743    24A     -0.717223
      25A     -0.699867    26A     -0.695753    27A     -0.680354
      28A     -0.673758    29A     -0.645776    30A     -0.636346
      31A     -0.624456    32A     -0.572941

  @DF-RHF Final Energy:  -328.72726736416416

   => Energetics <=

    Nuclear Repulsion Energy =            426.0079104959591518
    One-Electron Energy =               -1276.4816515352945316
    Two-Electron Energy =                 521.7464736751712735
    Total Energy =                       -328.7272673641641632
  Basis Set: (AUG-CC-PVTZ AUX)
    Blend: AUG-CC-PVTZ-RI
    Molecular point group: c1

    Geometry (in Angstrom), charge = 1, multiplicity = 1:

       Center              X                  Y                   Z               Mass
    ------------   -----------------  -----------------  -----------------  -----------------
         N           -1.440682018037    -0.005450987031    -0.399888951351    14.003074004430
         C            0.784310981963    -0.681124987031     0.322389048649    12.000000000000
         C            0.794247181963     0.684561412969    -0.208022751351    12.000000000000
         C           -0.563014018037    -1.234548987031    -0.140631951351    12.000000000000
         C           -0.562924018037     1.210871012969    -0.158462951351    12.000000000000
         C            1.938554981963    -1.623085987031     0.002872048649    12.000000000000
         C            1.907692981963     1.637059012969     0.207888048649    12.000000000000
         C           -2.714464018037     0.012474012969     0.384772048649    12.000000000000
         H            0.742978981963    -0.516601987031     1.408283048649     1.007825032230
         H            1.033773981963     0.546278012969    -1.431180951351     1.007825032230
         H           -1.694587018037    -0.007865987031    -1.394705951351     1.007825032230
         H           -0.475331018037    -1.777307987031    -1.085740951351     1.007825032230
         H           -1.066365018037    -1.872784987031     0.588385048649     1.007825032230
         H           -0.725848018037     1.522265012969     0.877828048649     1.007825032230
         H           -0.877659018037     2.013960012969    -0.829524951351     1.007825032230
         H            2.881953981963    -1.212327987031     0.369000048649     1.007825032230
         H            1.797200981963    -2.597488987031     0.478571048649     1.007825032230
         H            2.025952981963    -1.776162987031    -1.077422951351     1.007825032230
         H            2.908920981963     1.229689012969     0.052224048649     1.007825032230
         H            1.868233981963     2.613115012969    -0.283144951351     1.007825032230
         H            1.760635981963     1.784316012969     1.282468048649     1.007825032230
         H           -2.460587018037    -0.036401987031     1.443326048649     1.007825032230
         H           -3.248335018037     0.937905012969     0.166763048649     1.007825032230
         H           -3.318827018037    -0.848734987031     0.099702048649     1.007825032230

  Basis Set: AUG-CC-PVTZ
    Blend: AUG-CC-PVTZ
  Basis Set: (AUG-CC-PVTZ AUX)
    Blend: AUG-CC-PVTZ-JKFIT
	 Reference Energy          =    -328.7272673641641632 [Eh]
	 Singles Energy            =      -0.0000000000000000 [Eh]
	 Same-Spin Energy          =      -0.3492775872747070 [Eh]
	 Opposite-Spin Energy      =      -1.2520668526414529 [Eh]
	 Correlation Energy        =      -1.6013444399161598 [Eh]
	 Total Energy              =    -330.3286118040803103 [Eh]

	 ================> DF-SCS-MP2 Energies <==================
	-----------------------------------------------------------
	 SCS Same-Spin Scale       =       0.3333333333333333 [-]
	 SCS Opposite-Spin Scale   =       1.2000000000000000 [-]
	 SCS Same-Spin Energy      =      -0.1164258624249023 [Eh]
	 SCS Opposite-Spin Energy  =      -1.5024802231697434 [Eh]
	 SCS Correlation Energy    =      -1.6189060855946458 [Eh]
	 SCS Total Energy          =    -330.3461734497587940 [Eh]
	-----------------------------------------------------------

  Dipole Moment: [D]
     X:    -4.3508      Y:    -0.0025      Z:    -0.8352     Total:     4.4302

*** Psi4 exiting successfully. Buy a developer a beer!
