                               Psi4 1.4a3.dev225

  ==> Input File <==

--------------------------------------------------------------------------
#psi4
#
memory 32 gb

molecule  {
1 1
  N       -1.3995360    -0.0565900    -0.3161610
  C        0.7700580    -0.6819900     0.3309590
  C        0.8387740     0.6929140    -0.3473660
  C       -0.5772670    -1.2354140    -0.1320620
  C       -0.5771770     1.2100060    -0.1498930
  C        1.9243020    -1.6239510     0.0114420
  C        1.8934400     1.6361940     0.2164580
  C       -2.7287170     0.0116090     0.3933420
  H        0.7287260    -0.5174670     1.4168530
  H        1.0195210     0.5454130    -1.4226110
  H       -1.7088400    -0.0087310    -1.3861360
  H       -0.4895840    -1.7781730    -1.0771710
  H       -1.0806180    -1.8736500     0.5969550
  H       -0.7401010     1.5214000     0.8863980
  H       -0.8919120     2.0130950    -0.8209550
  H        2.8677010    -1.2131930     0.3775700
  H        1.7829480    -2.5983540     0.4871410
  H        2.0117000    -1.7770280    -1.0688530
  H        2.8946680     1.2288240     0.0607940
  H        1.8539810     2.6122500    -0.2745750
  H        1.7463830     1.7834510     1.2910380
  H       -2.4748400    -0.0372670     1.4518960
  H       -3.2625880     0.9370400     0.1753330
  H       -3.3330800    -0.8496000     0.1082720
units angstrom
no_reorient  #important for SAPT in psi4, default
symmetry c1  #important for SAPT in psi4, default
}

set PROPERTIES_ORIGIN ["COM"]
properties('MP2/aug-cc-pvtz', properties = ['dipole'])
--------------------------------------------------------------------------

    Molecular point group: c1
  Charge       = 1
  Multiplicity = 1
  Basis Set: AUG-CC-PVTZ
    Blend: AUG-CC-PVTZ
  Basis Set: (AUG-CC-PVTZ AUX)
    Blend: AUG-CC-PVTZ-JKFIT

    Orbital Energies [Eh]
    ---------------------

    Doubly Occupied:

       1A    -15.858844     2A    -11.452053     3A    -11.446742
       4A    -11.439046     5A    -11.389923     6A    -11.388641
       7A    -11.352231     8A    -11.350782     9A     -1.496823
      10A     -1.269332    11A     -1.199311    12A     -1.145641
      13A     -1.098495    14A     -1.052496    15A     -0.981773
      16A     -0.942313    17A     -0.903605    18A     -0.849569
      19A     -0.823308    20A     -0.785106    21A     -0.764045
      22A     -0.750131    23A     -0.736567    24A     -0.727241
      25A     -0.702510    26A     -0.682507    27A     -0.676051
      28A     -0.659938    29A     -0.645760    30A     -0.627227
      31A     -0.621683    32A     -0.602222

  @DF-RHF Final Energy:  -328.73849440328661

   => Energetics <=

    Nuclear Repulsion Energy =            425.7721852970524878
    One-Electron Energy =               -1276.1775282277810675
    Two-Electron Energy =                 521.6668485274419709
    Total Energy =                       -328.7384944032866088
  Basis Set: (AUG-CC-PVTZ AUX)
    Blend: AUG-CC-PVTZ-RI
    Molecular point group: c1

    Geometry (in Angstrom), charge = 1, multiplicity = 1:

       Center              X                  Y                   Z               Mass
    ------------   -----------------  -----------------  -----------------  -----------------
         N           -1.398260642582    -0.050525755334    -0.318400220715    14.003074004430
         C            0.771333357418    -0.675925755334     0.328719779285    12.000000000000
         C            0.840049357418     0.698978244666    -0.349605220715    12.000000000000
         C           -0.575991642582    -1.229349755334    -0.134301220715    12.000000000000
         C           -0.575901642582     1.216070244666    -0.152132220715    12.000000000000
         C            1.925577357418    -1.617886755334     0.009202779285    12.000000000000
         C            1.894715357418     1.642258244666     0.214218779285    12.000000000000
         C           -2.727441642582     0.017673244666     0.391102779285    12.000000000000
         H            0.730001357418    -0.511402755334     1.414613779285     1.007825032230
         H            1.020796357418     0.551477244666    -1.424850220715     1.007825032230
         H           -1.707564642582    -0.002666755334    -1.388375220715     1.007825032230
         H           -0.488308642582    -1.772108755334    -1.079410220715     1.007825032230
         H           -1.079342642582    -1.867585755334     0.594715779285     1.007825032230
         H           -0.738825642582     1.527464244666     0.884158779285     1.007825032230
         H           -0.890636642582     2.019159244666    -0.823194220715     1.007825032230
         H            2.868976357418    -1.207128755334     0.375330779285     1.007825032230
         H            1.784223357418    -2.592289755334     0.484901779285     1.007825032230
         H            2.012975357418    -1.770963755334    -1.071092220715     1.007825032230
         H            2.895943357418     1.234888244666     0.058554779285     1.007825032230
         H            1.855256357418     2.618314244666    -0.276814220715     1.007825032230
         H            1.747658357418     1.789515244666     1.288798779285     1.007825032230
         H           -2.473564642582    -0.031202755334     1.449656779285     1.007825032230
         H           -3.261312642582     0.943104244666     0.173093779285     1.007825032230
         H           -3.331804642582    -0.843535755334     0.106032779285     1.007825032230

  Basis Set: AUG-CC-PVTZ
    Blend: AUG-CC-PVTZ
  Basis Set: (AUG-CC-PVTZ AUX)
    Blend: AUG-CC-PVTZ-JKFIT
	 Reference Energy          =    -328.7384944032866088 [Eh]
	 Singles Energy            =      -0.0000000000000000 [Eh]
	 Same-Spin Energy          =      -0.3491748968087293 [Eh]
	 Opposite-Spin Energy      =      -1.2521476130440092 [Eh]
	 Correlation Energy        =      -1.6013225098527384 [Eh]
	 Total Energy              =    -330.3398169131393729 [Eh]

	 ================> DF-SCS-MP2 Energies <==================
	-----------------------------------------------------------
	 SCS Same-Spin Scale       =       0.3333333333333333 [-]
	 SCS Opposite-Spin Scale   =       1.2000000000000000 [-]
	 SCS Same-Spin Energy      =      -0.1163916322695764 [Eh]
	 SCS Opposite-Spin Energy  =      -1.5025771356528110 [Eh]
	 SCS Correlation Energy    =      -1.6189687679223874 [Eh]
	 SCS Total Energy          =    -330.3574631712090195 [Eh]
	-----------------------------------------------------------

  Dipole Moment: [D]
     X:    -4.4985      Y:     0.1024      Z:    -0.9507     Total:     4.5990

*** Psi4 exiting successfully. Buy a developer a beer!
