                               Psi4 1.4a3.dev225

  ==> Input File <==

--------------------------------------------------------------------------
#psi4
#
memory 32 gb

molecule  {
1 1
  N       -1.4367825    -0.0083782    -0.4411026
  C        0.7700580    -0.6819900     0.3309590
  C        0.8387740     0.6929140    -0.3473660
  C       -0.5772670    -1.2354140    -0.1320620
  C       -0.5771770     1.2100060    -0.1498930
  C        1.9243020    -1.6239510     0.0114420
  C        1.8934400     1.6361940     0.2164580
  C       -2.7287170     0.0116090     0.3933420
  H        0.7287260    -0.5174670     1.4168530
  H        1.0195210     0.5454130    -1.4226110
  H       -1.7088400    -0.0087310    -1.3861360
  H       -0.4895840    -1.7781730    -1.0771710
  H       -1.0806180    -1.8736500     0.5969550
  H       -0.7401010     1.5214000     0.8863980
  H       -0.8919120     2.0130950    -0.8209550
  H        2.8677010    -1.2131930     0.3775700
  H        1.7829480    -2.5983540     0.4871410
  H        2.0117000    -1.7770280    -1.0688530
  H        2.8946680     1.2288240     0.0607940
  H        1.8539810     2.6122500    -0.2745750
  H        1.7463830     1.7834510     1.2910380
  H       -2.4748400    -0.0372670     1.4518960
  H       -3.2625880     0.9370400     0.1753330
  H       -3.3330800    -0.8496000     0.1082720
units angstrom
no_reorient  #important for SAPT in psi4, default
symmetry c1  #important for SAPT in psi4, default
}

set PROPERTIES_ORIGIN ["COM"]
properties('MP2/aug-cc-pvtz', properties = ['dipole'])
--------------------------------------------------------------------------

    Molecular point group: c1
  Charge       = 1
  Multiplicity = 1
  Basis Set: AUG-CC-PVTZ
    Blend: AUG-CC-PVTZ
  Basis Set: (AUG-CC-PVTZ AUX)
    Blend: AUG-CC-PVTZ-JKFIT

    Orbital Energies [Eh]
    ---------------------

    Doubly Occupied:

       1A    -15.848809     2A    -11.452883     3A    -11.445469
       4A    -11.445426     5A    -11.390113     6A    -11.389497
       7A    -11.352111     8A    -11.352063     9A     -1.488196
      10A     -1.270083    11A     -1.192678    12A     -1.139671
      13A     -1.094105    14A     -1.073199    15A     -0.988676
      16A     -0.937561    17A     -0.904997    18A     -0.843190
      19A     -0.817425    20A     -0.786139    21A     -0.762387
      22A     -0.756450    23A     -0.736106    24A     -0.719493
      25A     -0.699691    26A     -0.698682    27A     -0.675858
      28A     -0.660160    29A     -0.646909    30A     -0.627940
      31A     -0.622321    32A     -0.602363

  @DF-RHF Final Energy:  -328.75178057415911

   => Energetics <=

    Nuclear Repulsion Energy =            424.2879011012834098
    One-Electron Energy =               -1273.2380622517050597
    Two-Electron Energy =                 520.1983805762624797
    Total Energy =                       -328.7517805741591701
  Basis Set: (AUG-CC-PVTZ AUX)
    Blend: AUG-CC-PVTZ-RI
    Molecular point group: c1

    Geometry (in Angstrom), charge = 1, multiplicity = 1:

       Center              X                  Y                   Z               Mass
    ------------   -----------------  -----------------  -----------------  -----------------
         N           -1.430937148879    -0.008229346643    -0.428011995758    14.003074004430
         C            0.775903351121    -0.681841146643     0.344049604242    12.000000000000
         C            0.844619351121     0.693062853357    -0.334275395758    12.000000000000
         C           -0.571421648879    -1.235265146643    -0.118971395758    12.000000000000
         C           -0.571331648879     1.210154853357    -0.136802395758    12.000000000000
         C            1.930147351121    -1.623802146643     0.024532604242    12.000000000000
         C            1.899285351121     1.636342853357     0.229548604242    12.000000000000
         C           -2.722871648879     0.011757853357     0.406432604242    12.000000000000
         H            0.734571351121    -0.517318146643     1.429943604242     1.007825032230
         H            1.025366351121     0.545561853357    -1.409520395758     1.007825032230
         H           -1.702994648879    -0.008582146643    -1.373045395758     1.007825032230
         H           -0.483738648879    -1.778024146643    -1.064080395758     1.007825032230
         H           -1.074772648879    -1.873501146643     0.610045604242     1.007825032230
         H           -0.734255648879     1.521548853357     0.899488604242     1.007825032230
         H           -0.886066648879     2.013243853357    -0.807864395758     1.007825032230
         H            2.873546351121    -1.213044146643     0.390660604242     1.007825032230
         H            1.788793351121    -2.598205146643     0.500231604242     1.007825032230
         H            2.017545351121    -1.776879146643    -1.055762395758     1.007825032230
         H            2.900513351121     1.228972853357     0.073884604242     1.007825032230
         H            1.859826351121     2.612398853357    -0.261484395758     1.007825032230
         H            1.752228351121     1.783599853357     1.304128604242     1.007825032230
         H           -2.468994648879    -0.037118146643     1.464986604242     1.007825032230
         H           -3.256742648879     0.937188853357     0.188423604242     1.007825032230
         H           -3.327234648879    -0.849451146643     0.121362604242     1.007825032230

  Basis Set: AUG-CC-PVTZ
    Blend: AUG-CC-PVTZ
  Basis Set: (AUG-CC-PVTZ AUX)
    Blend: AUG-CC-PVTZ-JKFIT
	 Reference Energy          =    -328.7517805741591133 [Eh]
	 Singles Energy            =      -0.0000000000000000 [Eh]
	 Same-Spin Energy          =      -0.3474010524422338 [Eh]
	 Opposite-Spin Energy      =      -1.2494347508253001 [Eh]
	 Correlation Energy        =      -1.5968358032675338 [Eh]
	 Total Energy              =    -330.3486163774266515 [Eh]

	 ================> DF-SCS-MP2 Energies <==================
	-----------------------------------------------------------
	 SCS Same-Spin Scale       =       0.3333333333333333 [-]
	 SCS Opposite-Spin Scale   =       1.2000000000000000 [-]
	 SCS Same-Spin Energy      =      -0.1158003508140779 [Eh]
	 SCS Opposite-Spin Energy  =      -1.4993217009903601 [Eh]
	 SCS Correlation Energy    =      -1.6151220518044380 [Eh]
	 SCS Total Energy          =    -330.3669026259635757 [Eh]
	-----------------------------------------------------------

  Dipole Moment: [D]
     X:    -4.4179      Y:     0.0076      Z:    -0.7998     Total:     4.4897

*** Psi4 exiting successfully. Buy a developer a beer!
