                               Psi4 1.4a3.dev225

  ==> Input File <==

--------------------------------------------------------------------------
#psi4
#
memory 32 gb

molecule  {
1 1
  N       -1.4549350    -0.0063160    -0.3913190
  C        0.7700580    -0.6819900     0.3309590
  C        0.8387740     0.6929140    -0.3473660
  C       -0.5772670    -1.2354140    -0.1320620
  C       -0.5771770     1.2100060    -0.1498930
  C        1.9243020    -1.6239510     0.0114420
  C        1.8934400     1.6361940     0.2164580
  C       -2.7287170     0.0116090     0.3933420
  H        0.7287260    -0.5174670     1.4168530
  H        1.0195210     0.5454130    -1.4226110
  H       -1.7088400    -0.0087310    -1.3861360
  H       -0.4895840    -1.7781730    -1.0771710
  H       -1.0806180    -1.8736500     0.5969550
  H       -0.7401010     1.5214000     0.8863980
  H       -0.8919120     2.0130950    -0.8209550
  H        2.8812401    -1.2143093     0.3419518
  H        1.7829480    -2.5983540     0.4871410
  H        2.0117000    -1.7770280    -1.0688530
  H        2.8946680     1.2288240     0.0607940
  H        1.8539810     2.6122500    -0.2745750
  H        1.7463830     1.7834510     1.2910380
  H       -2.4748400    -0.0372670     1.4518960
  H       -3.2625880     0.9370400     0.1753330
  H       -3.3330800    -0.8496000     0.1082720
units angstrom
no_reorient  #important for SAPT in psi4, default
symmetry c1  #important for SAPT in psi4, default
}

set PROPERTIES_ORIGIN ["COM"]
properties('MP2/aug-cc-pvtz', properties = ['dipole'])
--------------------------------------------------------------------------

    Molecular point group: c1
  Charge       = 1
  Multiplicity = 1
  Basis Set: AUG-CC-PVTZ
    Blend: AUG-CC-PVTZ
  Basis Set: (AUG-CC-PVTZ AUX)
    Blend: AUG-CC-PVTZ-JKFIT

    Orbital Energies [Eh]
    ---------------------

    Doubly Occupied:

       1A    -15.852252     2A    -11.449062     3A    -11.446354
       4A    -11.445710     5A    -11.391001     6A    -11.390338
       7A    -11.352814     8A    -11.352383     9A     -1.489519
      10A     -1.272087    11A     -1.193176    12A     -1.142636
      13A     -1.094743    14A     -1.065527    15A     -0.987308
      16A     -0.939760    17A     -0.903601    18A     -0.844742
      19A     -0.822042    20A     -0.786346    21A     -0.763173
      22A     -0.754645    23A     -0.735677    24A     -0.715221
      25A     -0.701313    26A     -0.696735    27A     -0.676811
      28A     -0.663006    29A     -0.647174    30A     -0.628306
      31A     -0.622623    32A     -0.603320

  @DF-RHF Final Energy:  -328.75409299729228

   => Energetics <=

    Nuclear Repulsion Energy =            424.4691553145750618
    One-Electron Energy =               -1273.5876874572829820
    Two-Electron Energy =                 520.3644391454155311
    Total Energy =                       -328.7540929972923323
  Basis Set: (AUG-CC-PVTZ AUX)
    Blend: AUG-CC-PVTZ-RI
    Molecular point group: c1

    Geometry (in Angstrom), charge = 1, multiplicity = 1:

       Center              X                  Y                   Z               Mass
    ------------   -----------------  -----------------  -----------------  -----------------
         N           -1.446981969972    -0.006410312539    -0.384022109228    14.003074004430
         C            0.778011030028    -0.682084312539     0.338255890772    12.000000000000
         C            0.846727030028     0.692819687461    -0.340069109228    12.000000000000
         C           -0.569313969972    -1.235508312539    -0.124765109228    12.000000000000
         C           -0.569223969972     1.209911687461    -0.142596109228    12.000000000000
         C            1.932255030028    -1.624045312539     0.018738890772    12.000000000000
         C            1.901393030028     1.636099687461     0.223754890772    12.000000000000
         C           -2.720763969972     0.011514687461     0.400638890772    12.000000000000
         H            0.736679030028    -0.517561312539     1.424149890772     1.007825032230
         H            1.027474030028     0.545318687461    -1.415314109228     1.007825032230
         H           -1.700886969972    -0.008825312539    -1.378839109228     1.007825032230
         H           -0.481630969972    -1.778267312539    -1.069874109228     1.007825032230
         H           -1.072664969972    -1.873744312539     0.604251890772     1.007825032230
         H           -0.732147969972     1.521305687461     0.893694890772     1.007825032230
         H           -0.883958969972     2.013000687461    -0.813658109228     1.007825032230
         H            2.889193130028    -1.214403612539     0.349248690772     1.007825032230
         H            1.790901030028    -2.598448312539     0.494437890772     1.007825032230
         H            2.019653030028    -1.777122312539    -1.061556109228     1.007825032230
         H            2.902621030028     1.228729687461     0.068090890772     1.007825032230
         H            1.861934030028     2.612155687461    -0.267278109228     1.007825032230
         H            1.754336030028     1.783356687461     1.298334890772     1.007825032230
         H           -2.466886969972    -0.037361312539     1.459192890772     1.007825032230
         H           -3.254634969972     0.936945687461     0.182629890772     1.007825032230
         H           -3.325126969972    -0.849694312539     0.115568890772     1.007825032230

  Basis Set: AUG-CC-PVTZ
    Blend: AUG-CC-PVTZ
  Basis Set: (AUG-CC-PVTZ AUX)
    Blend: AUG-CC-PVTZ-JKFIT
	 Reference Energy          =    -328.7540929972922754 [Eh]
	 Singles Energy            =      -0.0000000000000000 [Eh]
	 Same-Spin Energy          =      -0.3478001867450765 [Eh]
	 Opposite-Spin Energy      =      -1.2498483663780320 [Eh]
	 Correlation Energy        =      -1.5976485531231086 [Eh]
	 Total Energy              =    -330.3517415504153973 [Eh]

	 ================> DF-SCS-MP2 Energies <==================
	-----------------------------------------------------------
	 SCS Same-Spin Scale       =       0.3333333333333333 [-]
	 SCS Opposite-Spin Scale   =       1.2000000000000000 [-]
	 SCS Same-Spin Energy      =      -0.1159333955816922 [Eh]
	 SCS Opposite-Spin Energy  =      -1.4998180396536382 [Eh]
	 SCS Correlation Energy    =      -1.6157514352353304 [Eh]
	 SCS Total Energy          =    -330.3698444325276000 [Eh]
	-----------------------------------------------------------

  Dipole Moment: [D]
     X:    -4.3556      Y:     0.0057      Z:    -0.8766     Total:     4.4429

*** Psi4 exiting successfully. Buy a developer a beer!
