                               Psi4 1.4a3.dev225

  ==> Input File <==

--------------------------------------------------------------------------
#psi4
#
memory 32 gb

molecule  {
1 1
  N       -1.4549350    -0.0063160    -0.3913190
  C        0.7700580    -0.6819900     0.3309590
  C        0.8387740     0.6929140    -0.3473660
  C       -0.5772670    -1.2354140    -0.1320620
  C       -0.5771770     1.2100060    -0.1498930
  C        1.9243020    -1.6239510     0.0114420
  C        1.8934400     1.6361940     0.2164580
  C       -2.7287170     0.0116090     0.3933420
  H        0.7324867    -0.5324364     1.3180513
  H        1.0195210     0.5454130    -1.4226110
  H       -1.7088400    -0.0087310    -1.3861360
  H       -0.4895840    -1.7781730    -1.0771710
  H       -1.0806180    -1.8736500     0.5969550
  H       -0.7401010     1.5214000     0.8863980
  H       -0.8919120     2.0130950    -0.8209550
  H        2.8677010    -1.2131930     0.3775700
  H        1.7829480    -2.5983540     0.4871410
  H        2.0117000    -1.7770280    -1.0688530
  H        2.8946680     1.2288240     0.0607940
  H        1.8539810     2.6122500    -0.2745750
  H        1.7463830     1.7834510     1.2910380
  H       -2.4748400    -0.0372670     1.4518960
  H       -3.2625880     0.9370400     0.1753330
  H       -3.3330800    -0.8496000     0.1082720
units angstrom
no_reorient  #important for SAPT in psi4, default
symmetry c1  #important for SAPT in psi4, default
}

set PROPERTIES_ORIGIN ["COM"]
properties('MP2/aug-cc-pvtz', properties = ['dipole'])
--------------------------------------------------------------------------

    Molecular point group: c1
  Charge       = 1
  Multiplicity = 1
  Basis Set: AUG-CC-PVTZ
    Blend: AUG-CC-PVTZ
  Basis Set: (AUG-CC-PVTZ AUX)
    Blend: AUG-CC-PVTZ-JKFIT

    Orbital Energies [Eh]
    ---------------------

    Doubly Occupied:

       1A    -15.852020     2A    -11.449066     3A    -11.445720
       4A    -11.445507     5A    -11.390013     6A    -11.378073
       7A    -11.352887     8A    -11.351661     9A     -1.489412
      10A     -1.274828    11A     -1.194140    12A     -1.143048
      13A     -1.095066    14A     -1.065466    15A     -0.988840
      16A     -0.948889    17A     -0.905350    18A     -0.847176
      19A     -0.822430    20A     -0.788334    21A     -0.763324
      22A     -0.755686    23A     -0.735182    24A     -0.716342
      25A     -0.701382    26A     -0.697704    27A     -0.676196
      28A     -0.662499    29A     -0.650888    30A     -0.630847
      31A     -0.625871    32A     -0.602877

  @DF-RHF Final Energy:  -328.74867429652147

   => Energetics <=

    Nuclear Repulsion Energy =            425.0310147591517875
    One-Electron Energy =               -1274.6659351702767253
    Two-Electron Energy =                 520.8862461146035230
    Total Energy =                       -328.7486742965214717
  Basis Set: (AUG-CC-PVTZ AUX)
    Blend: AUG-CC-PVTZ-RI
    Molecular point group: c1

    Geometry (in Angstrom), charge = 1, multiplicity = 1:

       Center              X                  Y                   Z               Mass
    ------------   -----------------  -----------------  -----------------  -----------------
         N           -1.446895620499    -0.006287980882    -0.383464158859    14.003074004430
         C            0.778097379501    -0.681961980882     0.338813841141    12.000000000000
         C            0.846813379501     0.692942019118    -0.339511158859    12.000000000000
         C           -0.569227620499    -1.235385980882    -0.124207158859    12.000000000000
         C           -0.569137620499     1.210034019118    -0.142038158859    12.000000000000
         C            1.932341379501    -1.623922980882     0.019296841141    12.000000000000
         C            1.901479379501     1.636222019118     0.224312841141    12.000000000000
         C           -2.720677620499     0.011637019118     0.401196841141    12.000000000000
         H            0.740526079501    -0.532408380882     1.325906141141     1.007825032230
         H            1.027560379501     0.545441019118    -1.414756158859     1.007825032230
         H           -1.700800620499    -0.008702980882    -1.378281158859     1.007825032230
         H           -0.481544620499    -1.778144980882    -1.069316158859     1.007825032230
         H           -1.072578620499    -1.873621980882     0.604809841141     1.007825032230
         H           -0.732061620499     1.521428019118     0.894252841141     1.007825032230
         H           -0.883872620499     2.013123019118    -0.813100158859     1.007825032230
         H            2.875740379501    -1.213164980882     0.385424841141     1.007825032230
         H            1.790987379501    -2.598325980882     0.494995841141     1.007825032230
         H            2.019739379501    -1.776999980882    -1.060998158859     1.007825032230
         H            2.902707379501     1.228852019118     0.068648841141     1.007825032230
         H            1.862020379501     2.612278019118    -0.266720158859     1.007825032230
         H            1.754422379501     1.783479019118     1.298892841141     1.007825032230
         H           -2.466800620499    -0.037238980882     1.459750841141     1.007825032230
         H           -3.254548620499     0.937068019118     0.183187841141     1.007825032230
         H           -3.325040620499    -0.849571980882     0.116126841141     1.007825032230

  Basis Set: AUG-CC-PVTZ
    Blend: AUG-CC-PVTZ
  Basis Set: (AUG-CC-PVTZ AUX)
    Blend: AUG-CC-PVTZ-JKFIT
	 Reference Energy          =    -328.7486742965214717 [Eh]
	 Singles Energy            =      -0.0000000000000000 [Eh]
	 Same-Spin Energy          =      -0.3476908463106116 [Eh]
	 Opposite-Spin Energy      =      -1.2492318133018647 [Eh]
	 Correlation Energy        =      -1.5969226596124764 [Eh]
	 Total Energy              =    -330.3455969561339316 [Eh]

	 ================> DF-SCS-MP2 Energies <==================
	-----------------------------------------------------------
	 SCS Same-Spin Scale       =       0.3333333333333333 [-]
	 SCS Opposite-Spin Scale   =       1.2000000000000000 [-]
	 SCS Same-Spin Energy      =      -0.1158969487702039 [Eh]
	 SCS Opposite-Spin Energy  =      -1.4990781759622376 [Eh]
	 SCS Correlation Energy    =      -1.6149751247324415 [Eh]
	 SCS Total Energy          =    -330.3636494212539105 [Eh]
	-----------------------------------------------------------

  Dipole Moment: [D]
     X:    -4.3690      Y:     0.0156      Z:    -0.8324     Total:     4.4476

*** Psi4 exiting successfully. Buy a developer a beer!
