                               Psi4 1.4a3.dev225

  ==> Input File <==

--------------------------------------------------------------------------
#psi4
#
memory 32 gb

molecule  {
1 1
  N       -1.3803067     0.0278546    -0.4598987
  C        0.7700580    -0.6819900     0.3309590
  C        0.8387740     0.6929140    -0.3473660
  C       -0.5772670    -1.2354140    -0.1320620
  C       -0.5771770     1.2100060    -0.1498930
  C        1.9243020    -1.6239510     0.0114420
  C        1.8934400     1.6361940     0.2164580
  C       -2.7287170     0.0116090     0.3933420
  H        0.7287260    -0.5174670     1.4168530
  H        1.0195210     0.5454130    -1.4226110
  H       -1.7088400    -0.0087310    -1.3861360
  H       -0.4895840    -1.7781730    -1.0771710
  H       -1.0806180    -1.8736500     0.5969550
  H       -0.7401010     1.5214000     0.8863980
  H       -0.8919120     2.0130950    -0.8209550
  H        2.8677010    -1.2131930     0.3775700
  H        1.7829480    -2.5983540     0.4871410
  H        2.0117000    -1.7770280    -1.0688530
  H        2.8946680     1.2288240     0.0607940
  H        1.8539810     2.6122500    -0.2745750
  H        1.7463830     1.7834510     1.2910380
  H       -2.4748400    -0.0372670     1.4518960
  H       -3.2625880     0.9370400     0.1753330
  H       -3.3330800    -0.8496000     0.1082720
units angstrom
no_reorient  #important for SAPT in psi4, default
symmetry c1  #important for SAPT in psi4, default
}

set PROPERTIES_ORIGIN ["COM"]
properties('MP2/aug-cc-pvtz', properties = ['dipole'])
--------------------------------------------------------------------------

    Molecular point group: c1
  Charge       = 1
  Multiplicity = 1
  Basis Set: AUG-CC-PVTZ
    Blend: AUG-CC-PVTZ
  Basis Set: (AUG-CC-PVTZ AUX)
    Blend: AUG-CC-PVTZ-JKFIT

    Orbital Energies [Eh]
    ---------------------

    Doubly Occupied:

       1A    -15.848979     2A    -11.458999     3A    -11.445628
       4A    -11.439884     5A    -11.388532     6A    -11.387732
       7A    -11.351160     8A    -11.350153     9A     -1.491767
      10A     -1.266048    11A     -1.195515    12A     -1.137871
      13A     -1.095535    14A     -1.073473    15A     -0.987940
      16A     -0.938049    17A     -0.904957    18A     -0.844614
      19A     -0.814631    20A     -0.787948    21A     -0.761483
      22A     -0.755302    23A     -0.737900    24A     -0.724519
      25A     -0.701352    26A     -0.694026    27A     -0.675003
      28A     -0.654633    29A     -0.645167    30A     -0.626301
      31A     -0.621087    32A     -0.601121

  @DF-RHF Final Energy:  -328.74366461639204

   => Energetics <=

    Nuclear Repulsion Energy =            424.8723261630324259
    One-Electron Energy =               -1274.4173580224280613
    Two-Electron Energy =                 520.8013672430035967
    Total Energy =                       -328.7436646163920386
  Basis Set: (AUG-CC-PVTZ AUX)
    Blend: AUG-CC-PVTZ-RI
    Molecular point group: c1

    Geometry (in Angstrom), charge = 1, multiplicity = 1:

       Center              X                  Y                   Z               Mass
    ------------   -----------------  -----------------  -----------------  -----------------
         N           -1.381390699298     0.023557836511    -0.444501890916    14.003074004430
         C            0.768974000702    -0.686286763489     0.346355809084    12.000000000000
         C            0.837690000702     0.688617236511    -0.331969190916    12.000000000000
         C           -0.578350999298    -1.239710763489    -0.116665190916    12.000000000000
         C           -0.578260999298     1.205709236511    -0.134496190916    12.000000000000
         C            1.923218000702    -1.628247763489     0.026838809084    12.000000000000
         C            1.892356000702     1.631897236511     0.231854809084    12.000000000000
         C           -2.729800999298     0.007312236511     0.408738809084    12.000000000000
         H            0.727642000702    -0.521763763489     1.432249809084     1.007825032230
         H            1.018437000702     0.541116236511    -1.407214190916     1.007825032230
         H           -1.709923999298    -0.013027763489    -1.370739190916     1.007825032230
         H           -0.490667999298    -1.782469763489    -1.061774190916     1.007825032230
         H           -1.081701999298    -1.877946763489     0.612351809084     1.007825032230
         H           -0.741184999298     1.517103236511     0.901794809084     1.007825032230
         H           -0.892995999298     2.008798236511    -0.805558190916     1.007825032230
         H            2.866617000702    -1.217489763489     0.392966809084     1.007825032230
         H            1.781864000702    -2.602650763489     0.502537809084     1.007825032230
         H            2.010616000702    -1.781324763489    -1.053456190916     1.007825032230
         H            2.893584000702     1.224527236511     0.076190809084     1.007825032230
         H            1.852897000702     2.607953236511    -0.259178190916     1.007825032230
         H            1.745299000702     1.779154236511     1.306434809084     1.007825032230
         H           -2.475923999298    -0.041563763489     1.467292809084     1.007825032230
         H           -3.263671999298     0.932743236511     0.190729809084     1.007825032230
         H           -3.334163999298    -0.853896763489     0.123668809084     1.007825032230

  Basis Set: AUG-CC-PVTZ
    Blend: AUG-CC-PVTZ
  Basis Set: (AUG-CC-PVTZ AUX)
    Blend: AUG-CC-PVTZ-JKFIT
	 Reference Energy          =    -328.7436646163920386 [Eh]
	 Singles Energy            =      -0.0000000000000000 [Eh]
	 Same-Spin Energy          =      -0.3478129827914123 [Eh]
	 Opposite-Spin Energy      =      -1.2501675226413971 [Eh]
	 Correlation Energy        =      -1.5979805054328093 [Eh]
	 Total Energy              =    -330.3416451218248540 [Eh]

	 ================> DF-SCS-MP2 Energies <==================
	-----------------------------------------------------------
	 SCS Same-Spin Scale       =       0.3333333333333333 [-]
	 SCS Opposite-Spin Scale   =       1.2000000000000000 [-]
	 SCS Same-Spin Energy      =      -0.1159376609304708 [Eh]
	 SCS Opposite-Spin Energy  =      -1.5002010271696764 [Eh]
	 SCS Correlation Energy    =      -1.6161386881001472 [Eh]
	 SCS Total Energy          =    -330.3598033044921749 [Eh]
	-----------------------------------------------------------

  Dipole Moment: [D]
     X:    -4.5830      Y:    -0.0624      Z:    -0.7743     Total:     4.6484

*** Psi4 exiting successfully. Buy a developer a beer!
