                               Psi4 1.4a3.dev225

  ==> Input File <==

--------------------------------------------------------------------------
#psi4
#
memory 32 gb

molecule  {
1 1
  N       -1.4549350    -0.0063160    -0.3913190
  C        0.7700580    -0.6819900     0.3309590
  C        0.8387740     0.6929140    -0.3473660
  C       -0.5772670    -1.2354140    -0.1320620
  C       -0.5771770     1.2100060    -0.1498930
  C        1.9243020    -1.6239510     0.0114420
  C        1.8934400     1.6361940     0.2164580
  C       -2.7287170     0.0116090     0.3933420
  H        0.7362473    -0.5474057     1.2192496
  H        1.0195210     0.5454130    -1.4226110
  H       -1.7088400    -0.0087310    -1.3861360
  H       -0.4895840    -1.7781730    -1.0771710
  H       -1.0806180    -1.8736500     0.5969550
  H       -0.7401010     1.5214000     0.8863980
  H       -0.8919120     2.0130950    -0.8209550
  H        2.8677010    -1.2131930     0.3775700
  H        1.7829480    -2.5983540     0.4871410
  H        2.0117000    -1.7770280    -1.0688530
  H        2.8946680     1.2288240     0.0607940
  H        1.8539810     2.6122500    -0.2745750
  H        1.7463830     1.7834510     1.2910380
  H       -2.4748400    -0.0372670     1.4518960
  H       -3.2625880     0.9370400     0.1753330
  H       -3.3330800    -0.8496000     0.1082720
units angstrom
no_reorient  #important for SAPT in psi4, default
symmetry c1  #important for SAPT in psi4, default
}

set PROPERTIES_ORIGIN ["COM"]
properties('MP2/aug-cc-pvtz', properties = ['dipole'])
--------------------------------------------------------------------------

    Molecular point group: c1
  Charge       = 1
  Multiplicity = 1
  Basis Set: AUG-CC-PVTZ
    Blend: AUG-CC-PVTZ
  Basis Set: (AUG-CC-PVTZ AUX)
    Blend: AUG-CC-PVTZ-JKFIT

    Orbital Energies [Eh]
    ---------------------

    Doubly Occupied:

       1A    -15.851971     2A    -11.449134     3A    -11.445812
       4A    -11.445062     5A    -11.389498     6A    -11.365745
       7A    -11.352989     8A    -11.351047     9A     -1.489500
      10A     -1.279107    11A     -1.195738    12A     -1.143703
      13A     -1.095686    14A     -1.065588    15A     -0.993112
      16A     -0.959793    17A     -0.907046    18A     -0.849461
      19A     -0.822805    20A     -0.790383    21A     -0.763444
      22A     -0.756425    23A     -0.735126    24A     -0.717486
      25A     -0.701742    26A     -0.698221    27A     -0.676179
      28A     -0.662203    29A     -0.655416    30A     -0.633662
      31A     -0.626039    32A     -0.602732

  @DF-RHF Final Energy:  -328.72200634441276

   => Energetics <=

    Nuclear Repulsion Energy =            425.6411107117700112
    One-Electron Energy =               -1275.7825198808247933
    Two-Electron Energy =                 521.4194028246420203
    Total Energy =                       -328.7220063444127618
  Basis Set: (AUG-CC-PVTZ AUX)
    Blend: AUG-CC-PVTZ-RI
    Molecular point group: c1

    Geometry (in Angstrom), charge = 1, multiplicity = 1:

       Center              X                  Y                   Z               Mass
    ------------   -----------------  -----------------  -----------------  -----------------
         N           -1.446928828982    -0.006155792471    -0.382591677198    14.003074004430
         C            0.778064171018    -0.681829792471     0.339686322802    12.000000000000
         C            0.846780171018     0.693074207529    -0.338638677198    12.000000000000
         C           -0.569260828982    -1.235253792471    -0.123334677198    12.000000000000
         C           -0.569170828982     1.210166207529    -0.141165677198    12.000000000000
         C            1.932308171018    -1.623790792471     0.020169322802    12.000000000000
         C            1.901446171018     1.636354207529     0.225185322802    12.000000000000
         C           -2.720710828982     0.011769207529     0.402069322802    12.000000000000
         H            0.744253471018    -0.547245492471     1.227976922802     1.007825032230
         H            1.027527171018     0.545573207529    -1.413883677198     1.007825032230
         H           -1.700833828982    -0.008570792471    -1.377408677198     1.007825032230
         H           -0.481577828982    -1.778012792471    -1.068443677198     1.007825032230
         H           -1.072611828982    -1.873489792471     0.605682322802     1.007825032230
         H           -0.732094828982     1.521560207529     0.895125322802     1.007825032230
         H           -0.883905828982     2.013255207529    -0.812227677198     1.007825032230
         H            2.875707171018    -1.213032792471     0.386297322802     1.007825032230
         H            1.790954171018    -2.598193792471     0.495868322802     1.007825032230
         H            2.019706171018    -1.776867792471    -1.060125677198     1.007825032230
         H            2.902674171018     1.228984207529     0.069521322802     1.007825032230
         H            1.861987171018     2.612410207529    -0.265847677198     1.007825032230
         H            1.754389171018     1.783611207529     1.299765322802     1.007825032230
         H           -2.466833828982    -0.037106792471     1.460623322802     1.007825032230
         H           -3.254581828982     0.937200207529     0.184060322802     1.007825032230
         H           -3.325073828982    -0.849439792471     0.116999322802     1.007825032230

  Basis Set: AUG-CC-PVTZ
    Blend: AUG-CC-PVTZ
  Basis Set: (AUG-CC-PVTZ AUX)
    Blend: AUG-CC-PVTZ-JKFIT
	 Reference Energy          =    -328.7220063444127618 [Eh]
	 Singles Energy            =      -0.0000000000000000 [Eh]
	 Same-Spin Energy          =      -0.3476399435062922 [Eh]
	 Opposite-Spin Energy      =      -1.2489718926532540 [Eh]
	 Correlation Energy        =      -1.5966118361595463 [Eh]
	 Total Energy              =    -330.3186181805722867 [Eh]

	 ================> DF-SCS-MP2 Energies <==================
	-----------------------------------------------------------
	 SCS Same-Spin Scale       =       0.3333333333333333 [-]
	 SCS Opposite-Spin Scale   =       1.2000000000000000 [-]
	 SCS Same-Spin Energy      =      -0.1158799811687641 [Eh]
	 SCS Opposite-Spin Energy  =      -1.4987662711839047 [Eh]
	 SCS Correlation Energy    =      -1.6146462523526688 [Eh]
	 SCS Total Energy          =    -330.3366525967654184 [Eh]
	-----------------------------------------------------------

  Dipole Moment: [D]
     X:    -4.3817      Y:     0.0278      Z:    -0.8125     Total:     4.4564

*** Psi4 exiting successfully. Buy a developer a beer!
