                               Psi4 1.4a3.dev225

  ==> Input File <==

--------------------------------------------------------------------------
#psi4
#
memory 32 gb

molecule  {
1 1
  N       -1.4636115    -0.0047289    -0.3663131
  C        0.7700580    -0.6819900     0.3309590
  C        0.8387740     0.6929140    -0.3473660
  C       -0.5772670    -1.2354140    -0.1320620
  C       -0.5771770     1.2100060    -0.1498930
  C        1.9243020    -1.6239510     0.0114420
  C        1.8934400     1.6361940     0.2164580
  C       -2.7287170     0.0116090     0.3933420
  H        0.7287260    -0.5174670     1.4168530
  H        1.0195210     0.5454130    -1.4226110
  H       -1.7088400    -0.0087310    -1.3861360
  H       -0.4895840    -1.7781730    -1.0771710
  H       -1.0806180    -1.8736500     0.5969550
  H       -0.7401010     1.5214000     0.8863980
  H       -0.8919120     2.0130950    -0.8209550
  H        2.8677010    -1.2131930     0.3775700
  H        1.7829480    -2.5983540     0.4871410
  H        2.0117000    -1.7770280    -1.0688530
  H        2.8946680     1.2288240     0.0607940
  H        1.8539810     2.6122500    -0.2745750
  H        1.7463830     1.7834510     1.2910380
  H       -2.4748400    -0.0372670     1.4518960
  H       -3.2625880     0.9370400     0.1753330
  H       -3.3330800    -0.8496000     0.1082720
units angstrom
no_reorient  #important for SAPT in psi4, default
symmetry c1  #important for SAPT in psi4, default
}

set PROPERTIES_ORIGIN ["COM"]
properties('MP2/aug-cc-pvtz', properties = ['dipole'])
--------------------------------------------------------------------------

    Molecular point group: c1
  Charge       = 1
  Multiplicity = 1
  Basis Set: AUG-CC-PVTZ
    Blend: AUG-CC-PVTZ
  Basis Set: (AUG-CC-PVTZ AUX)
    Blend: AUG-CC-PVTZ-JKFIT

    Orbital Energies [Eh]
    ---------------------

    Doubly Occupied:

       1A    -15.853602     2A    -11.447147     3A    -11.446744
       4A    -11.445842     5A    -11.391348     6A    -11.390483
       7A    -11.353136     8A    -11.352717     9A     -1.490315
      10A     -1.273351    11A     -1.193369    12A     -1.144172
      13A     -1.095110    14A     -1.061827    15A     -0.986433
      16A     -0.940537    17A     -0.902616    18A     -0.845602
      19A     -0.824495    20A     -0.786429    21A     -0.763691
      22A     -0.754471    23A     -0.734764    24A     -0.713120
      25A     -0.702041    26A     -0.695746    27A     -0.676557
      28A     -0.663887    29A     -0.647550    30A     -0.628577
      31A     -0.623272    32A     -0.603271

  @DF-RHF Final Energy:  -328.75275107543359

   => Energetics <=

    Nuclear Repulsion Energy =            424.5856145121163649
    One-Electron Energy =               -1273.8122882322370515
    Two-Electron Energy =                 520.4739226446871498
    Total Energy =                       -328.7527510754335935
  Basis Set: (AUG-CC-PVTZ AUX)
    Blend: AUG-CC-PVTZ-RI
    Molecular point group: c1

    Geometry (in Angstrom), charge = 1, multiplicity = 1:

       Center              X                  Y                   Z               Mass
    ------------   -----------------  -----------------  -----------------  -----------------
         N           -1.454474339956    -0.005027800876    -0.362398862505    14.003074004430
         C            0.779195160044    -0.682288900876     0.334873237495    12.000000000000
         C            0.847911160044     0.692615099124    -0.343451762505    12.000000000000
         C           -0.568129839956    -1.235712900876    -0.128147762505    12.000000000000
         C           -0.568039839956     1.209707099124    -0.145978762505    12.000000000000
         C            1.933439160044    -1.624249900876     0.015356237495    12.000000000000
         C            1.902577160044     1.635895099124     0.220372237495    12.000000000000
         C           -2.719579839956     0.011310099124     0.397256237495    12.000000000000
         H            0.737863160044    -0.517765900876     1.420767237495     1.007825032230
         H            1.028658160044     0.545114099124    -1.418696762505     1.007825032230
         H           -1.699702839956    -0.009029900876    -1.382221762505     1.007825032230
         H           -0.480446839956    -1.778471900876    -1.073256762505     1.007825032230
         H           -1.071480839956    -1.873948900876     0.600869237495     1.007825032230
         H           -0.730963839956     1.521101099124     0.890312237495     1.007825032230
         H           -0.882774839956     2.012796099124    -0.817040762505     1.007825032230
         H            2.876838160044    -1.213491900876     0.381484237495     1.007825032230
         H            1.792085160044    -2.598652900876     0.491055237495     1.007825032230
         H            2.020837160044    -1.777326900876    -1.064938762505     1.007825032230
         H            2.903805160044     1.228525099124     0.064708237495     1.007825032230
         H            1.863118160044     2.611951099124    -0.270660762505     1.007825032230
         H            1.755520160044     1.783152099124     1.294952237495     1.007825032230
         H           -2.465702839956    -0.037565900876     1.455810237495     1.007825032230
         H           -3.253450839956     0.936741099124     0.179247237495     1.007825032230
         H           -3.323942839956    -0.849898900876     0.112186237495     1.007825032230

  Basis Set: AUG-CC-PVTZ
    Blend: AUG-CC-PVTZ
  Basis Set: (AUG-CC-PVTZ AUX)
    Blend: AUG-CC-PVTZ-JKFIT
	 Reference Energy          =    -328.7527510754335935 [Eh]
	 Singles Energy            =      -0.0000000000000000 [Eh]
	 Same-Spin Energy          =      -0.3480741924750808 [Eh]
	 Opposite-Spin Energy      =      -1.2502383173732661 [Eh]
	 Correlation Energy        =      -1.5983125098483468 [Eh]
	 Total Energy              =    -330.3510635852819632 [Eh]

	 ================> DF-SCS-MP2 Energies <==================
	-----------------------------------------------------------
	 SCS Same-Spin Scale       =       0.3333333333333333 [-]
	 SCS Opposite-Spin Scale   =       1.2000000000000000 [-]
	 SCS Same-Spin Energy      =      -0.1160247308250269 [Eh]
	 SCS Opposite-Spin Energy  =      -1.5002859808479192 [Eh]
	 SCS Correlation Energy    =      -1.6163107116729460 [Eh]
	 SCS Total Energy          =    -330.3690617871065456 [Eh]
	-----------------------------------------------------------

  Dipole Moment: [D]
     X:    -4.3255      Y:    -0.0033      Z:    -0.8982     Total:     4.4178

*** Psi4 exiting successfully. Buy a developer a beer!
