                               Psi4 1.4a3.dev225

  ==> Input File <==

--------------------------------------------------------------------------
#psi4
#
memory 32 gb

molecule  {
1 1
  N       -1.4549350    -0.0063160    -0.3913190
  C        0.7700580    -0.6819900     0.3309590
  C        0.8387740     0.6929140    -0.3473660
  C       -0.5772670    -1.2354140    -0.1320620
  C       -0.5771770     1.2100060    -0.1498930
  C        1.9243020    -1.6239510     0.0114420
  C        1.8934400     1.6361940     0.2164580
  C       -2.7287170     0.0116090     0.3933420
  H        0.7287260    -0.5174670     1.4168530
  H        1.0195210     0.5454130    -1.4226110
  H       -1.6964750    -0.0086134    -1.3376892
  H       -0.4895840    -1.7781730    -1.0771710
  H       -1.0806180    -1.8736500     0.5969550
  H       -0.7401010     1.5214000     0.8863980
  H       -0.8919120     2.0130950    -0.8209550
  H        2.8677010    -1.2131930     0.3775700
  H        1.7829480    -2.5983540     0.4871410
  H        2.0117000    -1.7770280    -1.0688530
  H        2.8946680     1.2288240     0.0607940
  H        1.8539810     2.6122500    -0.2745750
  H        1.7463830     1.7834510     1.2910380
  H       -2.4748400    -0.0372670     1.4518960
  H       -3.2625880     0.9370400     0.1753330
  H       -3.3330800    -0.8496000     0.1082720
units angstrom
no_reorient  #important for SAPT in psi4, default
symmetry c1  #important for SAPT in psi4, default
}

set PROPERTIES_ORIGIN ["COM"]
properties('MP2/aug-cc-pvtz', properties = ['dipole'])
--------------------------------------------------------------------------

    Molecular point group: c1
  Charge       = 1
  Multiplicity = 1
  Basis Set: AUG-CC-PVTZ
    Blend: AUG-CC-PVTZ
  Basis Set: (AUG-CC-PVTZ AUX)
    Blend: AUG-CC-PVTZ-JKFIT

    Orbital Energies [Eh]
    ---------------------

    Doubly Occupied:

       1A    -15.847926     2A    -11.449386     3A    -11.446621
       4A    -11.446061     5A    -11.391192     6A    -11.390442
       7A    -11.353006     8A    -11.352667     9A     -1.496347
      10A     -1.273510    11A     -1.193589    12A     -1.143823
      13A     -1.095180    14A     -1.072360    15A     -0.989579
      16A     -0.940266    17A     -0.907497    18A     -0.845644
      19A     -0.823120    20A     -0.786796    21A     -0.763717
      22A     -0.755915    23A     -0.736336    24A     -0.716362
      25A     -0.701703    26A     -0.699112    27A     -0.676549
      28A     -0.663408    29A     -0.647734    30A     -0.628745
      31A     -0.623282    32A     -0.603233

  @DF-RHF Final Energy:  -328.75418026394368

   => Energetics <=

    Nuclear Repulsion Energy =            424.8071497106421930
    One-Electron Energy =               -1274.2004405281320487
    Two-Electron Energy =                 520.6391105535461747
    Total Energy =                       -328.7541802639436810
  Basis Set: (AUG-CC-PVTZ AUX)
    Blend: AUG-CC-PVTZ-RI
    Molecular point group: c1

    Geometry (in Angstrom), charge = 1, multiplicity = 1:

       Center              X                  Y                   Z               Mass
    ------------   -----------------  -----------------  -----------------  -----------------
         N           -1.446971601924    -0.006421208659    -0.384764456484    14.003074004430
         C            0.778021398076    -0.682095208659     0.337513543516    12.000000000000
         C            0.846737398076     0.692808791341    -0.340811456484    12.000000000000
         C           -0.569303601924    -1.235519208659    -0.125507456484    12.000000000000
         C           -0.569213601924     1.209900791341    -0.143338456484    12.000000000000
         C            1.932265398076    -1.624056208659     0.017996543516    12.000000000000
         C            1.901403398076     1.636088791341     0.223012543516    12.000000000000
         C           -2.720753601924     0.011503791341     0.399896543516    12.000000000000
         H            0.736689398076    -0.517572208659     1.423407543516     1.007825032230
         H            1.027484398076     0.545307791341    -1.416056456484     1.007825032230
         H           -1.688511601924    -0.008718608659    -1.331134656484     1.007825032230
         H           -0.481620601924    -1.778278208659    -1.070616456484     1.007825032230
         H           -1.072654601924    -1.873755208659     0.603509543516     1.007825032230
         H           -0.732137601924     1.521294791341     0.892952543516     1.007825032230
         H           -0.883948601924     2.012989791341    -0.814400456484     1.007825032230
         H            2.875664398076    -1.213298208659     0.384124543516     1.007825032230
         H            1.790911398076    -2.598459208659     0.493695543516     1.007825032230
         H            2.019663398076    -1.777133208659    -1.062298456484     1.007825032230
         H            2.902631398076     1.228718791341     0.067348543516     1.007825032230
         H            1.861944398076     2.612144791341    -0.268020456484     1.007825032230
         H            1.754346398076     1.783345791341     1.297592543516     1.007825032230
         H           -2.466876601924    -0.037372208659     1.458450543516     1.007825032230
         H           -3.254624601924     0.936934791341     0.181887543516     1.007825032230
         H           -3.325116601924    -0.849705208659     0.114826543516     1.007825032230

  Basis Set: AUG-CC-PVTZ
    Blend: AUG-CC-PVTZ
  Basis Set: (AUG-CC-PVTZ AUX)
    Blend: AUG-CC-PVTZ-JKFIT
	 Reference Energy          =    -328.7541802639436810 [Eh]
	 Singles Energy            =      -0.0000000000000000 [Eh]
	 Same-Spin Energy          =      -0.3474435627143851 [Eh]
	 Opposite-Spin Energy      =      -1.2488407145194980 [Eh]
	 Correlation Energy        =      -1.5962842772338830 [Eh]
	 Total Energy              =    -330.3504645411775869 [Eh]

	 ================> DF-SCS-MP2 Energies <==================
	-----------------------------------------------------------
	 SCS Same-Spin Scale       =       0.3333333333333333 [-]
	 SCS Opposite-Spin Scale   =       1.2000000000000000 [-]
	 SCS Same-Spin Energy      =      -0.1158145209047950 [Eh]
	 SCS Opposite-Spin Energy  =      -1.4986088574233976 [Eh]
	 SCS Correlation Energy    =      -1.6144233783281925 [Eh]
	 SCS Total Energy          =    -330.3686036422718644 [Eh]
	-----------------------------------------------------------

  Dipole Moment: [D]
     X:    -4.3360      Y:     0.0016      Z:    -0.8132     Total:     4.4116

*** Psi4 exiting successfully. Buy a developer a beer!
