                               Psi4 1.4a3.dev225

  ==> Input File <==

--------------------------------------------------------------------------
#psi4
#
memory 32 gb

molecule  {
1 1
  N       -1.4549350    -0.0063160    -0.3913190
  C        0.7700580    -0.6819900     0.3309590
  C        0.8387740     0.6929140    -0.3473660
  C       -0.5772670    -1.2354140    -0.1320620
  C       -0.5771770     1.2100060    -0.1498930
  C        1.9243020    -1.6239510     0.0114420
  C        1.8934400     1.6361940     0.2164580
  C       -2.7287170     0.0116090     0.3933420
  H        0.7287260    -0.5174670     1.4168530
  H        1.0195210     0.5454130    -1.4226110
  H       -1.7088400    -0.0087310    -1.3861360
  H       -0.4895840    -1.7781730    -1.0771710
  H       -1.0806180    -1.8736500     0.5969550
  H       -0.7401010     1.5214000     0.8863980
  H       -0.8919120     2.0130950    -0.8209550
  H        2.8677010    -1.2131930     0.3775700
  H        1.7829480    -2.5983540     0.4871410
  H        2.0037154    -1.7630430    -0.9701582
  H        2.8946680     1.2288240     0.0607940
  H        1.8539810     2.6122500    -0.2745750
  H        1.7463830     1.7834510     1.2910380
  H       -2.4748400    -0.0372670     1.4518960
  H       -3.2625880     0.9370400     0.1753330
  H       -3.3330800    -0.8496000     0.1082720
units angstrom
no_reorient  #important for SAPT in psi4, default
symmetry c1  #important for SAPT in psi4, default
}

set PROPERTIES_ORIGIN ["COM"]
properties('MP2/aug-cc-pvtz', properties = ['dipole'])
--------------------------------------------------------------------------

    Molecular point group: c1
  Charge       = 1
  Multiplicity = 1
  Basis Set: AUG-CC-PVTZ
    Blend: AUG-CC-PVTZ
  Basis Set: (AUG-CC-PVTZ AUX)
    Blend: AUG-CC-PVTZ-JKFIT

    Orbital Energies [Eh]
    ---------------------

    Doubly Occupied:

       1A    -15.852126     2A    -11.448976     3A    -11.446224
       4A    -11.445633     5A    -11.390813     6A    -11.389353
       7A    -11.352721     8A    -11.340195     9A     -1.489407
      10A     -1.272499    11A     -1.194009    12A     -1.143504
      13A     -1.098639    14A     -1.068097    15A     -0.988911
      16A     -0.941505    17A     -0.904756    18A     -0.844981
      19A     -0.821981    20A     -0.787063    21A     -0.763017
      22A     -0.755974    23A     -0.735024    24A     -0.718341
      25A     -0.707228    26A     -0.699630    27A     -0.675774
      28A     -0.663387    29A     -0.651723    30A     -0.628996
      31A     -0.623809    32A     -0.602978

  @DF-RHF Final Energy:  -328.74813513151793

   => Energetics <=

    Nuclear Repulsion Energy =            424.9385310243261529
    One-Electron Energy =               -1274.4787858606641748
    Two-Electron Energy =                 520.7921197048201520
    Total Energy =                       -328.7481351315178699
  Basis Set: (AUG-CC-PVTZ AUX)
    Blend: AUG-CC-PVTZ-RI
    Molecular point group: c1

    Geometry (in Angstrom), charge = 1, multiplicity = 1:

       Center              X                  Y                   Z               Mass
    ------------   -----------------  -----------------  -----------------  -----------------
         N           -1.446791902053    -0.006543666594    -0.385208178186    14.003074004430
         C            0.778201097947    -0.682217666594     0.337069821814    12.000000000000
         C            0.846917097947     0.692686333406    -0.341255178186    12.000000000000
         C           -0.569123902053    -1.235641666594    -0.125951178186    12.000000000000
         C           -0.569033902053     1.209778333406    -0.143782178186    12.000000000000
         C            1.932445097947    -1.624178666594     0.017552821814    12.000000000000
         C            1.901583097947     1.635966333406     0.222568821814    12.000000000000
         C           -2.720573902053     0.011381333406     0.399452821814    12.000000000000
         H            0.736869097947    -0.517694666594     1.422963821814     1.007825032230
         H            1.027664097947     0.545185333406    -1.416500178186     1.007825032230
         H           -1.700696902053    -0.008958666594    -1.380025178186     1.007825032230
         H           -0.481440902053    -1.778400666594    -1.071060178186     1.007825032230
         H           -1.072474902053    -1.873877666594     0.603065821814     1.007825032230
         H           -0.731957902053     1.521172333406     0.892508821814     1.007825032230
         H           -0.883768902053     2.012867333406    -0.814844178186     1.007825032230
         H            2.875844097947    -1.213420666594     0.383680821814     1.007825032230
         H            1.791091097947    -2.598581666594     0.493251821814     1.007825032230
         H            2.011858497947    -1.763270666594    -0.964047378186     1.007825032230
         H            2.902811097947     1.228596333406     0.066904821814     1.007825032230
         H            1.862124097947     2.612022333406    -0.268464178186     1.007825032230
         H            1.754526097947     1.783223333406     1.297148821814     1.007825032230
         H           -2.466696902053    -0.037494666594     1.458006821814     1.007825032230
         H           -3.254444902053     0.936812333406     0.181443821814     1.007825032230
         H           -3.324936902053    -0.849827666594     0.114382821814     1.007825032230

  Basis Set: AUG-CC-PVTZ
    Blend: AUG-CC-PVTZ
  Basis Set: (AUG-CC-PVTZ AUX)
    Blend: AUG-CC-PVTZ-JKFIT
	 Reference Energy          =    -328.7481351315179268 [Eh]
	 Singles Energy            =      -0.0000000000000000 [Eh]
	 Same-Spin Energy          =      -0.3478130754578744 [Eh]
	 Opposite-Spin Energy      =      -1.2493810157364473 [Eh]
	 Correlation Energy        =      -1.5971940911943217 [Eh]
	 Total Energy              =    -330.3453292227122233 [Eh]

	 ================> DF-SCS-MP2 Energies <==================
	-----------------------------------------------------------
	 SCS Same-Spin Scale       =       0.3333333333333333 [-]
	 SCS Opposite-Spin Scale   =       1.2000000000000000 [-]
	 SCS Same-Spin Energy      =      -0.1159376918192914 [Eh]
	 SCS Opposite-Spin Energy  =      -1.4992572188837368 [Eh]
	 SCS Correlation Energy    =      -1.6151949107030281 [Eh]
	 SCS Total Energy          =    -330.3633300422209800 [Eh]
	-----------------------------------------------------------

  Dipole Moment: [D]
     X:    -4.3541      Y:    -0.0068      Z:    -0.9026     Total:     4.4467

*** Psi4 exiting successfully. Buy a developer a beer!
