                               Psi4 1.4a3.dev225

  ==> Input File <==

--------------------------------------------------------------------------
#psi4
#
memory 32 gb

molecule  {
1 1
  N       -1.4549350    -0.0063160    -0.3913190
  C        0.7700580    -0.6819900     0.3309590
  C        0.8387740     0.6929140    -0.3473660
  C       -0.5772670    -1.2354140    -0.1320620
  C       -0.5771770     1.2100060    -0.1498930
  C        1.9243020    -1.6239510     0.0114420
  C        1.8934400     1.6361940     0.2164580
  C       -2.7287170     0.0116090     0.3933420
  H        0.7287260    -0.5174670     1.4168530
  H        1.0195210     0.5454130    -1.4226110
  H       -1.7088400    -0.0087310    -1.3861360
  H       -0.4895840    -1.7781730    -1.0771710
  H       -1.0806180    -1.8736500     0.5969550
  H       -0.7401010     1.5214000     0.8863980
  H       -0.8919120     2.0130950    -0.8209550
  H        2.8677010    -1.2131930     0.3775700
  H        1.7829480    -2.5983540     0.4871410
  H        2.0117000    -1.7770280    -1.0688530
  H        2.8946680     1.2288240     0.0607940
  H        1.8539810     2.6122500    -0.2745750
  H        1.7396653     1.7901778     1.3401259
  H       -2.4748400    -0.0372670     1.4518960
  H       -3.2625880     0.9370400     0.1753330
  H       -3.3330800    -0.8496000     0.1082720
units angstrom
no_reorient  #important for SAPT in psi4, default
symmetry c1  #important for SAPT in psi4, default
}

set PROPERTIES_ORIGIN ["COM"]
properties('MP2/aug-cc-pvtz', properties = ['dipole'])
--------------------------------------------------------------------------

    Molecular point group: c1
  Charge       = 1
  Multiplicity = 1
  Basis Set: AUG-CC-PVTZ
    Blend: AUG-CC-PVTZ
  Basis Set: (AUG-CC-PVTZ AUX)
    Blend: AUG-CC-PVTZ-JKFIT

    Orbital Energies [Eh]
    ---------------------

    Doubly Occupied:

       1A    -15.852170     2A    -11.449014     3A    -11.446225
       4A    -11.445683     5A    -11.391375     6A    -11.390245
       7A    -11.358713     8A    -11.352543     9A     -1.489466
      10A     -1.271975    11A     -1.192937    12A     -1.142305
      13A     -1.093381    14A     -1.064723    15A     -0.986134
      16A     -0.938783    17A     -0.903194    18A     -0.844677
      19A     -0.821530    20A     -0.786218    21A     -0.763270
      22A     -0.754933    23A     -0.735485    24A     -0.714755
      25A     -0.698302    26A     -0.696185    27A     -0.676595
      28A     -0.663250    29A     -0.643556    30A     -0.628519
      31A     -0.621874    32A     -0.602914

  @DF-RHF Final Energy:  -328.75214327849699

   => Energetics <=

    Nuclear Repulsion Energy =            424.2831170367269920
    One-Electron Energy =               -1273.2286598492230496
    Two-Electron Energy =                 520.1933995339991270
    Total Energy =                       -328.7521432784969875
  Basis Set: (AUG-CC-PVTZ AUX)
    Blend: AUG-CC-PVTZ-RI
    Molecular point group: c1

    Geometry (in Angstrom), charge = 1, multiplicity = 1:

       Center              X                  Y                   Z               Mass
    ------------   -----------------  -----------------  -----------------  -----------------
         N           -1.446803089583    -0.006479572086    -0.384770117803    14.003074004430
         C            0.778189910417    -0.682153572086     0.337507882197    12.000000000000
         C            0.846905910417     0.692750427914    -0.340817117803    12.000000000000
         C           -0.569135089583    -1.235577572086    -0.125513117803    12.000000000000
         C           -0.569045089583     1.209842427914    -0.143344117803    12.000000000000
         C            1.932433910417    -1.624114572086     0.017990882197    12.000000000000
         C            1.901571910417     1.636030427914     0.223006882197    12.000000000000
         C           -2.720585089583     0.011445427914     0.399890882197    12.000000000000
         H            0.736857910417    -0.517630572086     1.423401882197     1.007825032230
         H            1.027652910417     0.545249427914    -1.416062117803     1.007825032230
         H           -1.700708089583    -0.008894572086    -1.379587117803     1.007825032230
         H           -0.481452089583    -1.778336572086    -1.070622117803     1.007825032230
         H           -1.072486089583    -1.873813572086     0.603503882197     1.007825032230
         H           -0.731969089583     1.521236427914     0.892946882197     1.007825032230
         H           -0.883780089583     2.012931427914    -0.814406117803     1.007825032230
         H            2.875832910417    -1.213356572086     0.384118882197     1.007825032230
         H            1.791079910417    -2.598517572086     0.493689882197     1.007825032230
         H            2.019831910417    -1.777191572086    -1.062304117803     1.007825032230
         H            2.902799910417     1.228660427914     0.067342882197     1.007825032230
         H            1.862112910417     2.612086427914    -0.268026117803     1.007825032230
         H            1.747797210417     1.790014227914     1.346674782197     1.007825032230
         H           -2.466708089583    -0.037430572086     1.458444882197     1.007825032230
         H           -3.254456089583     0.936876427914     0.181881882197     1.007825032230
         H           -3.324948089583    -0.849763572086     0.114820882197     1.007825032230

  Basis Set: AUG-CC-PVTZ
    Blend: AUG-CC-PVTZ
  Basis Set: (AUG-CC-PVTZ AUX)
    Blend: AUG-CC-PVTZ-JKFIT
	 Reference Energy          =    -328.7521432784969875 [Eh]
	 Singles Energy            =      -0.0000000000000000 [Eh]
	 Same-Spin Energy          =      -0.3478123489914635 [Eh]
	 Opposite-Spin Energy      =      -1.2501996514837543 [Eh]
	 Correlation Energy        =      -1.5980120004752179 [Eh]
	 Total Energy              =    -330.3501552789721813 [Eh]

	 ================> DF-SCS-MP2 Energies <==================
	-----------------------------------------------------------
	 SCS Same-Spin Scale       =       0.3333333333333333 [-]
	 SCS Opposite-Spin Scale   =       1.2000000000000000 [-]
	 SCS Same-Spin Energy      =      -0.1159374496638211 [Eh]
	 SCS Opposite-Spin Energy  =      -1.5002395817805052 [Eh]
	 SCS Correlation Energy    =      -1.6161770314443265 [Eh]
	 SCS Total Energy          =    -330.3683203099413390 [Eh]
	-----------------------------------------------------------

  Dipole Moment: [D]
     X:    -4.3539      Y:    -0.0036      Z:    -0.8878     Total:     4.4435

*** Psi4 exiting successfully. Buy a developer a beer!
