                               Psi4 1.4a3.dev225

  ==> Input File <==

--------------------------------------------------------------------------
#psi4
#
memory 32 gb

molecule  {
1 1
  N       -1.4549350    -0.0063160    -0.3913190
  C        0.7700580    -0.6819900     0.3309590
  C        0.8387740     0.6929140    -0.3473660
  C       -0.5772670    -1.2354140    -0.1320620
  C       -0.5771770     1.2100060    -0.1498930
  C        1.9243020    -1.6239510     0.0114420
  C        1.8934400     1.6361940     0.2164580
  C       -2.7287170     0.0116090     0.3933420
  H        0.7287260    -0.5174670     1.4168530
  H        1.0195210     0.5454130    -1.4226110
  H       -1.7088400    -0.0087310    -1.3861360
  H       -0.4895840    -1.7781730    -1.0771710
  H       -1.0806180    -1.8736500     0.5969550
  H       -0.7401010     1.5214000     0.8863980
  H       -0.8919120     2.0130950    -0.8209550
  H        2.8677010    -1.2131930     0.3775700
  H        1.7829480    -2.5983540     0.4871410
  H        1.9957308    -1.7490580    -0.8714634
  H        2.8946680     1.2288240     0.0607940
  H        1.8539810     2.6122500    -0.2745750
  H        1.7463830     1.7834510     1.2910380
  H       -2.4748400    -0.0372670     1.4518960
  H       -3.2625880     0.9370400     0.1753330
  H       -3.3330800    -0.8496000     0.1082720
units angstrom
no_reorient  #important for SAPT in psi4, default
symmetry c1  #important for SAPT in psi4, default
}

set PROPERTIES_ORIGIN ["COM"]
properties('MP2/aug-cc-pvtz', properties = ['dipole'])
--------------------------------------------------------------------------

    Molecular point group: c1
  Charge       = 1
  Multiplicity = 1
  Basis Set: AUG-CC-PVTZ
    Blend: AUG-CC-PVTZ
  Basis Set: (AUG-CC-PVTZ AUX)
    Blend: AUG-CC-PVTZ-JKFIT

    Orbital Energies [Eh]
    ---------------------

    Doubly Occupied:

       1A    -15.852147     2A    -11.448976     3A    -11.446293
       4A    -11.445640     5A    -11.390826     6A    -11.388734
       7A    -11.352685     8A    -11.327932     9A     -1.489422
      10A     -1.273331    11A     -1.195556    12A     -1.145188
      13A     -1.104825    14A     -1.070783    15A     -0.991155
      16A     -0.943838    17A     -0.906392    18A     -0.845296
      19A     -0.821997    20A     -0.788221    21A     -0.762954
      22A     -0.758073    23A     -0.734868    24A     -0.726471
      25A     -0.711054    26A     -0.699792    27A     -0.675465
      28A     -0.664078    29A     -0.654284    30A     -0.629415
      31A     -0.624033    32A     -0.602945

  @DF-RHF Final Energy:  -328.72023321587068

   => Energetics <=

    Nuclear Repulsion Energy =            425.4554700183820728
    One-Electron Energy =               -1275.4060659542897156
    Two-Electron Energy =                 521.2303627200369647
    Total Energy =                       -328.7202332158706213
  Basis Set: (AUG-CC-PVTZ AUX)
    Blend: AUG-CC-PVTZ-RI
    Molecular point group: c1

    Geometry (in Angstrom), charge = 1, multiplicity = 1:

       Center              X                  Y                   Z               Mass
    ------------   -----------------  -----------------  -----------------  -----------------
         N           -1.446721392972    -0.006667163012    -0.386079715852    14.003074004430
         C            0.778271607028    -0.682341163012     0.336198284148    12.000000000000
         C            0.846987607028     0.692562836988    -0.342126715852    12.000000000000
         C           -0.569053392972    -1.235765163012    -0.126822715852    12.000000000000
         C           -0.568963392972     1.209654836988    -0.144653715852    12.000000000000
         C            1.932515607028    -1.624302163012     0.016681284148    12.000000000000
         C            1.901653607028     1.635842836988     0.221697284148    12.000000000000
         C           -2.720503392972     0.011257836988     0.398581284148    12.000000000000
         H            0.736939607028    -0.517818163012     1.422092284148     1.007825032230
         H            1.027734607028     0.545061836988    -1.417371715852     1.007825032230
         H           -1.700626392972    -0.009082163012    -1.380896715852     1.007825032230
         H           -0.481370392972    -1.778524163012    -1.071931715852     1.007825032230
         H           -1.072404392972    -1.874001163012     0.602194284148     1.007825032230
         H           -0.731887392972     1.521048836988     0.891637284148     1.007825032230
         H           -0.883698392972     2.012743836988    -0.815715715852     1.007825032230
         H            2.875914607028    -1.213544163012     0.382809284148     1.007825032230
         H            1.791161607028    -2.598705163012     0.492380284148     1.007825032230
         H            2.003944407028    -1.749409163012    -0.866224115852     1.007825032230
         H            2.902881607028     1.228472836988     0.066033284148     1.007825032230
         H            1.862194607028     2.611898836988    -0.269335715852     1.007825032230
         H            1.754596607028     1.783099836988     1.296277284148     1.007825032230
         H           -2.466626392972    -0.037618163012     1.457135284148     1.007825032230
         H           -3.254374392972     0.936688836988     0.180572284148     1.007825032230
         H           -3.324866392972    -0.849951163012     0.113511284148     1.007825032230

  Basis Set: AUG-CC-PVTZ
    Blend: AUG-CC-PVTZ
  Basis Set: (AUG-CC-PVTZ AUX)
    Blend: AUG-CC-PVTZ-JKFIT
	 Reference Energy          =    -328.7202332158706781 [Eh]
	 Singles Energy            =      -0.0000000000000000 [Eh]
	 Same-Spin Energy          =      -0.3478830797171140 [Eh]
	 Opposite-Spin Energy      =      -1.2492474486463168 [Eh]
	 Correlation Energy        =      -1.5971305283634307 [Eh]
	 Total Energy              =    -330.3173637442341146 [Eh]

	 ================> DF-SCS-MP2 Energies <==================
	-----------------------------------------------------------
	 SCS Same-Spin Scale       =       0.3333333333333333 [-]
	 SCS Opposite-Spin Scale   =       1.2000000000000000 [-]
	 SCS Same-Spin Energy      =      -0.1159610265723713 [Eh]
	 SCS Opposite-Spin Energy  =      -1.4990969383755801 [Eh]
	 SCS Correlation Energy    =      -1.6150579649479515 [Eh]
	 SCS Total Energy          =    -330.3352911808186150 [Eh]
	-----------------------------------------------------------

  Dipole Moment: [D]
     X:    -4.3547      Y:    -0.0115      Z:    -0.9280     Total:     4.4525

*** Psi4 exiting successfully. Buy a developer a beer!
