                               Psi4 1.4a3.dev225

  ==> Input File <==

--------------------------------------------------------------------------
#psi4
#
memory 32 gb

molecule  {
1 1
  N       -1.4549350    -0.0063160    -0.3913190
  C        0.7700580    -0.6819900     0.3309590
  C        0.8387740     0.6929140    -0.3473660
  C       -0.5596363    -1.2281720    -0.1260030
  C       -0.5771770     1.2100060    -0.1498930
  C        1.9243020    -1.6239510     0.0114420
  C        1.8934400     1.6361940     0.2164580
  C       -2.7287170     0.0116090     0.3933420
  H        0.7287260    -0.5174670     1.4168530
  H        1.0195210     0.5454130    -1.4226110
  H       -1.7088400    -0.0087310    -1.3861360
  H       -0.4895840    -1.7781730    -1.0771710
  H       -1.0806180    -1.8736500     0.5969550
  H       -0.7401010     1.5214000     0.8863980
  H       -0.8919120     2.0130950    -0.8209550
  H        2.8677010    -1.2131930     0.3775700
  H        1.7829480    -2.5983540     0.4871410
  H        2.0117000    -1.7770280    -1.0688530
  H        2.8946680     1.2288240     0.0607940
  H        1.8539810     2.6122500    -0.2745750
  H        1.7463830     1.7834510     1.2910380
  H       -2.4748400    -0.0372670     1.4518960
  H       -3.2625880     0.9370400     0.1753330
  H       -3.3330800    -0.8496000     0.1082720
units angstrom
no_reorient  #important for SAPT in psi4, default
symmetry c1  #important for SAPT in psi4, default
}

set PROPERTIES_ORIGIN ["COM"]
properties('MP2/aug-cc-pvtz', properties = ['dipole'])
--------------------------------------------------------------------------

    Molecular point group: c1
  Charge       = 1
  Multiplicity = 1
  Basis Set: AUG-CC-PVTZ
    Blend: AUG-CC-PVTZ
  Basis Set: (AUG-CC-PVTZ AUX)
    Blend: AUG-CC-PVTZ-JKFIT

    Orbital Energies [Eh]
    ---------------------

    Doubly Occupied:

       1A    -15.851605     2A    -11.448856     3A    -11.447436
       4A    -11.445454     5A    -11.391038     6A    -11.389253
       7A    -11.352927     8A    -11.352832     9A     -1.488612
      10A     -1.274046    11A     -1.193991    12A     -1.142396
      13A     -1.094132    14A     -1.065903    15A     -0.986935
      16A     -0.939758    17A     -0.903425    18A     -0.844744
      19A     -0.821509    20A     -0.785718    21A     -0.762940
      22A     -0.756250    23A     -0.735513    24A     -0.713415
      25A     -0.701093    26A     -0.696343    27A     -0.676496
      28A     -0.663481    29A     -0.646965    30A     -0.630559
      31A     -0.623176    32A     -0.603362

  @DF-RHF Final Energy:  -328.75350059262604

   => Energetics <=

    Nuclear Repulsion Energy =            424.7044878353473223
    One-Electron Energy =               -1274.0556453499873442
    Two-Electron Energy =                 520.5976569220139254
    Total Energy =                       -328.7535005926260965
  Basis Set: (AUG-CC-PVTZ AUX)
    Blend: AUG-CC-PVTZ-RI
    Molecular point group: c1

    Geometry (in Angstrom), charge = 1, multiplicity = 1:

       Center              X                  Y                   Z               Mass
    ------------   -----------------  -----------------  -----------------  -----------------
         N           -1.448716188393    -0.007181629160    -0.384973713150    14.003074004430
         C            0.776276811607    -0.682855629160     0.337304286850    12.000000000000
         C            0.844992811607     0.692048370840    -0.341020713150    12.000000000000
         C           -0.553417488393    -1.229037629160    -0.119657713150    12.000000000000
         C           -0.570958188393     1.209140370840    -0.143547713150    12.000000000000
         C            1.930520811607    -1.624816629160     0.017787286850    12.000000000000
         C            1.899658811607     1.635328370840     0.222803286850    12.000000000000
         C           -2.722498188393     0.010743370840     0.399687286850    12.000000000000
         H            0.734944811607    -0.518332629160     1.423198286850     1.007825032230
         H            1.025739811607     0.544547370840    -1.416265713150     1.007825032230
         H           -1.702621188393    -0.009596629160    -1.379790713150     1.007825032230
         H           -0.483365188393    -1.779038629160    -1.070825713150     1.007825032230
         H           -1.074399188393    -1.874515629160     0.603300286850     1.007825032230
         H           -0.733882188393     1.520534370840     0.892743286850     1.007825032230
         H           -0.885693188393     2.012229370840    -0.814609713150     1.007825032230
         H            2.873919811607    -1.214058629160     0.383915286850     1.007825032230
         H            1.789166811607    -2.599219629160     0.493486286850     1.007825032230
         H            2.017918811607    -1.777893629160    -1.062507713150     1.007825032230
         H            2.900886811607     1.227958370840     0.067139286850     1.007825032230
         H            1.860199811607     2.611384370840    -0.268229713150     1.007825032230
         H            1.752601811607     1.782585370840     1.297383286850     1.007825032230
         H           -2.468621188393    -0.038132629160     1.458241286850     1.007825032230
         H           -3.256369188393     0.936174370840     0.181678286850     1.007825032230
         H           -3.326861188393    -0.850465629160     0.114617286850     1.007825032230

  Basis Set: AUG-CC-PVTZ
    Blend: AUG-CC-PVTZ
  Basis Set: (AUG-CC-PVTZ AUX)
    Blend: AUG-CC-PVTZ-JKFIT
	 Reference Energy          =    -328.7535005926260396 [Eh]
	 Singles Energy            =      -0.0000000000000000 [Eh]
	 Same-Spin Energy          =      -0.3479759376853390 [Eh]
	 Opposite-Spin Energy      =      -1.2500372139363911 [Eh]
	 Correlation Energy        =      -1.5980131516217302 [Eh]
	 Total Energy              =    -330.3515137442477680 [Eh]

	 ================> DF-SCS-MP2 Energies <==================
	-----------------------------------------------------------
	 SCS Same-Spin Scale       =       0.3333333333333333 [-]
	 SCS Opposite-Spin Scale   =       1.2000000000000000 [-]
	 SCS Same-Spin Energy      =      -0.1159919792284463 [Eh]
	 SCS Opposite-Spin Energy  =      -1.5000446567236694 [Eh]
	 SCS Correlation Energy    =      -1.6160366359521157 [Eh]
	 SCS Total Energy          =    -330.3695372285781673 [Eh]
	-----------------------------------------------------------

  Dipole Moment: [D]
     X:    -4.3466      Y:    -0.0060      Z:    -0.8655     Total:     4.4319

*** Psi4 exiting successfully. Buy a developer a beer!
