                               Psi4 1.4a3.dev225

  ==> Input File <==

--------------------------------------------------------------------------
#psi4
#
memory 32 gb

molecule  {
1 1
  N       -1.4549350    -0.0063160    -0.3913190
  C        0.7700580    -0.6819900     0.3309590
  C        0.8387740     0.6929140    -0.3473660
  C       -0.5772670    -1.2354140    -0.1320620
  C       -0.5656220     1.2260179    -0.1467148
  C        1.9243020    -1.6239510     0.0114420
  C        1.8934400     1.6361940     0.2164580
  C       -2.7287170     0.0116090     0.3933420
  H        0.7287260    -0.5174670     1.4168530
  H        1.0195210     0.5454130    -1.4226110
  H       -1.7088400    -0.0087310    -1.3861360
  H       -0.4895840    -1.7781730    -1.0771710
  H       -1.0806180    -1.8736500     0.5969550
  H       -0.7401010     1.5214000     0.8863980
  H       -0.8919120     2.0130950    -0.8209550
  H        2.8677010    -1.2131930     0.3775700
  H        1.7829480    -2.5983540     0.4871410
  H        2.0117000    -1.7770280    -1.0688530
  H        2.8946680     1.2288240     0.0607940
  H        1.8539810     2.6122500    -0.2745750
  H        1.7463830     1.7834510     1.2910380
  H       -2.4748400    -0.0372670     1.4518960
  H       -3.2625880     0.9370400     0.1753330
  H       -3.3330800    -0.8496000     0.1082720
units angstrom
no_reorient  #important for SAPT in psi4, default
symmetry c1  #important for SAPT in psi4, default
}

set PROPERTIES_ORIGIN ["COM"]
properties('MP2/aug-cc-pvtz', properties = ['dipole'])
--------------------------------------------------------------------------

    Molecular point group: c1
  Charge       = 1
  Multiplicity = 1
  Basis Set: AUG-CC-PVTZ
    Blend: AUG-CC-PVTZ
  Basis Set: (AUG-CC-PVTZ AUX)
    Blend: AUG-CC-PVTZ-JKFIT

    Orbital Energies [Eh]
    ---------------------

    Doubly Occupied:

       1A    -15.850489     2A    -11.448202     3A    -11.446727
       4A    -11.445597     5A    -11.391074     6A    -11.390336
       7A    -11.352988     8A    -11.352599     9A     -1.485096
      10A     -1.272395    11A     -1.193608    12A     -1.141271
      13A     -1.094314    14A     -1.065063    15A     -0.987845
      16A     -0.938970    17A     -0.902114    18A     -0.842576
      19A     -0.820948    20A     -0.787628    21A     -0.764130
      22A     -0.754457    23A     -0.735141    24A     -0.714302
      25A     -0.702998    26A     -0.696621    27A     -0.676628
      28A     -0.661905    29A     -0.647861    30A     -0.628506
      31A     -0.623810    32A     -0.603810

  @DF-RHF Final Energy:  -328.75384923143690

   => Energetics <=

    Nuclear Repulsion Energy =            424.2615465479949535
    One-Electron Energy =               -1273.1907733497016579
    Two-Electron Energy =                 520.1753775702698022
    Total Energy =                       -328.7538492314369023
  Basis Set: (AUG-CC-PVTZ AUX)
    Blend: AUG-CC-PVTZ-RI
    Molecular point group: c1

    Geometry (in Angstrom), charge = 1, multiplicity = 1:

       Center              X                  Y                   Z               Mass
    ------------   -----------------  -----------------  -----------------  -----------------
         N           -1.448077359844    -0.008103738957    -0.384670811873    14.003074004430
         C            0.776915640156    -0.683777738957     0.337607188127    12.000000000000
         C            0.845631640156     0.691126261043    -0.340717811873    12.000000000000
         C           -0.570409359844    -1.237201738957    -0.125413811873    12.000000000000
         C           -0.558764359844     1.224230161043    -0.140066611873    12.000000000000
         C            1.931159640156    -1.625738738957     0.018090188127    12.000000000000
         C            1.900297640156     1.634406261043     0.223106188127    12.000000000000
         C           -2.721859359844     0.009821261043     0.399990188127    12.000000000000
         H            0.735583640156    -0.519254738957     1.423501188127     1.007825032230
         H            1.026378640156     0.543625261043    -1.415962811873     1.007825032230
         H           -1.701982359844    -0.010518738957    -1.379487811873     1.007825032230
         H           -0.482726359844    -1.779960738957    -1.070522811873     1.007825032230
         H           -1.073760359844    -1.875437738957     0.603603188127     1.007825032230
         H           -0.733243359844     1.519612261043     0.893046188127     1.007825032230
         H           -0.885054359844     2.011307261043    -0.814306811873     1.007825032230
         H            2.874558640156    -1.214980738957     0.384218188127     1.007825032230
         H            1.789805640156    -2.600141738957     0.493789188127     1.007825032230
         H            2.018557640156    -1.778815738957    -1.062204811873     1.007825032230
         H            2.901525640156     1.227036261043     0.067442188127     1.007825032230
         H            1.860838640156     2.610462261043    -0.267926811873     1.007825032230
         H            1.753240640156     1.781663261043     1.297686188127     1.007825032230
         H           -2.467982359844    -0.039054738957     1.458544188127     1.007825032230
         H           -3.255730359844     0.935252261043     0.181981188127     1.007825032230
         H           -3.326222359844    -0.851387738957     0.114920188127     1.007825032230

  Basis Set: AUG-CC-PVTZ
    Blend: AUG-CC-PVTZ
  Basis Set: (AUG-CC-PVTZ AUX)
    Blend: AUG-CC-PVTZ-JKFIT
	 Reference Energy          =    -328.7538492314369023 [Eh]
	 Singles Energy            =      -0.0000000000000000 [Eh]
	 Same-Spin Energy          =      -0.3477459287697741 [Eh]
	 Opposite-Spin Energy      =      -1.2499411552071229 [Eh]
	 Correlation Energy        =      -1.5976870839768971 [Eh]
	 Total Energy              =    -330.3515363154137958 [Eh]

	 ================> DF-SCS-MP2 Energies <==================
	-----------------------------------------------------------
	 SCS Same-Spin Scale       =       0.3333333333333333 [-]
	 SCS Opposite-Spin Scale   =       1.2000000000000000 [-]
	 SCS Same-Spin Energy      =      -0.1159153095899247 [Eh]
	 SCS Opposite-Spin Energy  =      -1.4999293862485474 [Eh]
	 SCS Correlation Energy    =      -1.6158446958384720 [Eh]
	 SCS Total Energy          =    -330.3696939272753639 [Eh]
	-----------------------------------------------------------

  Dipole Moment: [D]
     X:    -4.3319      Y:     0.0231      Z:    -0.8651     Total:     4.4175

*** Psi4 exiting successfully. Buy a developer a beer!
