                               Psi4 1.4a3.dev225

  ==> Input File <==

--------------------------------------------------------------------------
#psi4
#
memory 32 gb

molecule  {
1 1
  N       -1.4549350    -0.0063160    -0.3913190
  C        0.7700580    -0.6819900     0.3309590
  C        0.8387740     0.6929140    -0.3473660
  C       -0.5772670    -1.2354140    -0.1320620
  C       -0.5771770     1.2100060    -0.1498930
  C        1.9243020    -1.6239510     0.0114420
  C        1.8934400     1.6361940     0.2164580
  C       -2.7287170     0.0116090     0.3933420
  H        0.7287260    -0.5174670     1.4168530
  H        1.0195210     0.5454130    -1.4226110
  H       -1.7088400    -0.0087310    -1.3861360
  H       -0.4895840    -1.7781730    -1.0771710
  H       -1.0806180    -1.8736500     0.5969550
  H       -0.7401010     1.5214000     0.8863980
  H       -0.8919120     2.0130950    -0.8209550
  H        2.8677010    -1.2131930     0.3775700
  H        1.7829480    -2.5983540     0.4871410
  H        2.0132969    -1.7798250    -1.0885920
  H        2.8946680     1.2288240     0.0607940
  H        1.8539810     2.6122500    -0.2745750
  H        1.7463830     1.7834510     1.2910380
  H       -2.4748400    -0.0372670     1.4518960
  H       -3.2625880     0.9370400     0.1753330
  H       -3.3330800    -0.8496000     0.1082720
units angstrom
no_reorient  #important for SAPT in psi4, default
symmetry c1  #important for SAPT in psi4, default
}

set PROPERTIES_ORIGIN ["COM"]
properties('MP2/aug-cc-pvtz', properties = ['dipole'])
--------------------------------------------------------------------------

    Molecular point group: c1
  Charge       = 1
  Multiplicity = 1
  Basis Set: AUG-CC-PVTZ
    Blend: AUG-CC-PVTZ
  Basis Set: (AUG-CC-PVTZ AUX)
    Blend: AUG-CC-PVTZ-JKFIT

    Orbital Energies [Eh]
    ---------------------

    Doubly Occupied:

       1A    -15.852151     2A    -11.449018     3A    -11.446198
       4A    -11.445680     5A    -11.390973     6A    -11.390317
       7A    -11.354887     8A    -11.352821     9A     -1.489442
      10A     -1.272037    11A     -1.193043    12A     -1.142513
      13A     -1.094257    14A     -1.065011    15A     -0.986942
      16A     -0.939227    17A     -0.903069    18A     -0.844722
      19A     -0.822042    20A     -0.786232    21A     -0.763252
      22A     -0.754759    23A     -0.735379    24A     -0.715177
      25A     -0.700781    26A     -0.695847    27A     -0.676474
      28A     -0.662936    29A     -0.646349    30A     -0.628244
      31A     -0.622602    32A     -0.602942

  @DF-RHF Final Energy:  -328.75370635704718

   => Energetics <=

    Nuclear Repulsion Energy =            424.4035036498844420
    One-Electron Energy =               -1273.4637795729477148
    Two-Electron Energy =                 520.3065695660161509
    Total Energy =                       -328.7537063570471219
  Basis Set: (AUG-CC-PVTZ AUX)
    Blend: AUG-CC-PVTZ-RI
    Molecular point group: c1

    Geometry (in Angstrom), charge = 1, multiplicity = 1:

       Center              X                  Y                   Z               Mass
    ------------   -----------------  -----------------  -----------------  -----------------
         N           -1.446876512773    -0.006395470893    -0.384162332633    14.003074004430
         C            0.778116487227    -0.682069470893     0.338115667367    12.000000000000
         C            0.846832487227     0.692834529107    -0.340209332633    12.000000000000
         C           -0.569208512773    -1.235493470893    -0.124905332633    12.000000000000
         C           -0.569118512773     1.209926529107    -0.142736332633    12.000000000000
         C            1.932360487227    -1.624030470893     0.018598667367    12.000000000000
         C            1.901498487227     1.636114529107     0.223614667367    12.000000000000
         C           -2.720658512773     0.011529529107     0.400498667367    12.000000000000
         H            0.736784487227    -0.517546470893     1.424009667367     1.007825032230
         H            1.027579487227     0.545333529107    -1.415454332633     1.007825032230
         H           -1.700781512773    -0.008810470893    -1.378979332633     1.007825032230
         H           -0.481525512773    -1.778252470893    -1.070014332633     1.007825032230
         H           -1.072559512773    -1.873729470893     0.604111667367     1.007825032230
         H           -0.732042512773     1.521320529107     0.893554667367     1.007825032230
         H           -0.883853512773     2.013015529107    -0.813798332633     1.007825032230
         H            2.875759487227    -1.213272470893     0.384726667367     1.007825032230
         H            1.791006487227    -2.598433470893     0.494297667367     1.007825032230
         H            2.021355387227    -1.779904470893    -1.081435332633     1.007825032230
         H            2.902726487227     1.228744529107     0.067950667367     1.007825032230
         H            1.862039487227     2.612170529107    -0.267418332633     1.007825032230
         H            1.754441487227     1.783371529107     1.298194667367     1.007825032230
         H           -2.466781512773    -0.037346470893     1.459052667367     1.007825032230
         H           -3.254529512773     0.936960529107     0.182489667367     1.007825032230
         H           -3.325021512773    -0.849679470893     0.115428667367     1.007825032230

  Basis Set: AUG-CC-PVTZ
    Blend: AUG-CC-PVTZ
  Basis Set: (AUG-CC-PVTZ AUX)
    Blend: AUG-CC-PVTZ-JKFIT
	 Reference Energy          =    -328.7537063570471787 [Eh]
	 Singles Energy            =      -0.0000000000000000 [Eh]
	 Same-Spin Energy          =      -0.3478056586694629 [Eh]
	 Opposite-Spin Energy      =      -1.2499927242078068 [Eh]
	 Correlation Energy        =      -1.5977983828772697 [Eh]
	 Total Energy              =    -330.3515047399244509 [Eh]

	 ================> DF-SCS-MP2 Energies <==================
	-----------------------------------------------------------
	 SCS Same-Spin Scale       =       0.3333333333333333 [-]
	 SCS Opposite-Spin Scale   =       1.2000000000000000 [-]
	 SCS Same-Spin Energy      =      -0.1159352195564876 [Eh]
	 SCS Opposite-Spin Energy  =      -1.4999912690493682 [Eh]
	 SCS Correlation Energy    =      -1.6159264886058557 [Eh]
	 SCS Total Energy          =    -330.3696328456530296 [Eh]
	-----------------------------------------------------------

  Dipole Moment: [D]
     X:    -4.3570      Y:     0.0031      Z:    -0.8581     Total:     4.4407

*** Psi4 exiting successfully. Buy a developer a beer!
