                               Psi4 1.4a3.dev225

  ==> Input File <==

--------------------------------------------------------------------------
#psi4
#
memory 32 gb

molecule  {
1 1
  N       -1.4549350    -0.0063160    -0.3913190
  C        0.7700580    -0.6819900     0.3309590
  C        0.8387740     0.6929140    -0.3473660
  C       -0.5772670    -1.2354140    -0.1320620
  C       -0.5771770     1.2100060    -0.1498930
  C        1.9243020    -1.6239510     0.0114420
  C        1.8934400     1.6361940     0.2164580
  C       -2.7287170     0.0116090     0.3933420
  H        0.7287260    -0.5174670     1.4168530
  H        1.0195210     0.5454130    -1.4226110
  H       -1.7088400    -0.0087310    -1.3861360
  H       -0.4895840    -1.7781730    -1.0771710
  H       -1.0806180    -1.8736500     0.5969550
  H       -0.7401010     1.5214000     0.8863980
  H       -0.8919120     2.0130950    -0.8209550
  H        2.8530125    -1.2125772     0.4127422
  H        1.7829480    -2.5983540     0.4871410
  H        2.0117000    -1.7770280    -1.0688530
  H        2.8946680     1.2288240     0.0607940
  H        1.8539810     2.6122500    -0.2745750
  H        1.7463830     1.7834510     1.2910380
  H       -2.4748400    -0.0372670     1.4518960
  H       -3.2625880     0.9370400     0.1753330
  H       -3.3330800    -0.8496000     0.1082720
units angstrom
no_reorient  #important for SAPT in psi4, default
symmetry c1  #important for SAPT in psi4, default
}

set PROPERTIES_ORIGIN ["COM"]
properties('MP2/aug-cc-pvtz', properties = ['dipole'])
--------------------------------------------------------------------------

    Molecular point group: c1
  Charge       = 1
  Multiplicity = 1
  Basis Set: AUG-CC-PVTZ
    Blend: AUG-CC-PVTZ
  Basis Set: (AUG-CC-PVTZ AUX)
    Blend: AUG-CC-PVTZ-JKFIT

    Orbital Energies [Eh]
    ---------------------

    Doubly Occupied:

       1A    -15.852027     2A    -11.448949     3A    -11.446029
       4A    -11.445624     5A    -11.390843     6A    -11.389977
       7A    -11.352781     8A    -11.352607     9A     -1.489340
      10A     -1.272079    11A     -1.193137    12A     -1.142620
      13A     -1.094869    14A     -1.065446    15A     -0.987125
      16A     -0.939369    17A     -0.903041    18A     -0.844773
      19A     -0.822010    20A     -0.786344    21A     -0.763241
      22A     -0.755152    23A     -0.734962    24A     -0.715625
      25A     -0.700962    26A     -0.697895    27A     -0.675817
      28A     -0.662899    29A     -0.647604    30A     -0.628367
      31A     -0.623121    32A     -0.602589

  @DF-RHF Final Energy:  -328.75404848132462

   => Energetics <=

    Nuclear Repulsion Energy =            424.5066637702353205
    One-Electron Energy =               -1273.6669756242113181
    Two-Electron Energy =                 520.4062633726514377
    Total Energy =                       -328.7540484813246167
  Basis Set: (AUG-CC-PVTZ AUX)
    Blend: AUG-CC-PVTZ-RI
    Molecular point group: c1

    Geometry (in Angstrom), charge = 1, multiplicity = 1:

       Center              X                  Y                   Z               Mass
    ------------   -----------------  -----------------  -----------------  -----------------
         N           -1.446732702365    -0.006425608081    -0.384647233348    14.003074004430
         C            0.778260297635    -0.682099608081     0.337630766652    12.000000000000
         C            0.846976297635     0.692804391919    -0.340694233348    12.000000000000
         C           -0.569064702365    -1.235523608081    -0.125390233348    12.000000000000
         C           -0.568974702365     1.209896391919    -0.143221233348    12.000000000000
         C            1.932504297635    -1.624060608081     0.018113766652    12.000000000000
         C            1.901642297635     1.636084391919     0.223129766652    12.000000000000
         C           -2.720514702365     0.011499391919     0.400013766652    12.000000000000
         H            0.736928297635    -0.517576608081     1.423524766652     1.007825032230
         H            1.027723297635     0.545303391919    -1.415939233348     1.007825032230
         H           -1.700637702365    -0.008840608081    -1.379464233348     1.007825032230
         H           -0.481381702365    -1.778282608081    -1.070499233348     1.007825032230
         H           -1.072415702365    -1.873759608081     0.603626766652     1.007825032230
         H           -0.731898702365     1.521290391919     0.893069766652     1.007825032230
         H           -0.883709702365     2.012985391919    -0.814283233348     1.007825032230
         H            2.861214797635    -1.212686808081     0.419413966652     1.007825032230
         H            1.791150297635    -2.598463608081     0.493812766652     1.007825032230
         H            2.019902297635    -1.777137608081    -1.062181233348     1.007825032230
         H            2.902870297635     1.228714391919     0.067465766652     1.007825032230
         H            1.862183297635     2.612140391919    -0.267903233348     1.007825032230
         H            1.754585297635     1.783341391919     1.297709766652     1.007825032230
         H           -2.466637702365    -0.037376608081     1.458567766652     1.007825032230
         H           -3.254385702365     0.936930391919     0.182004766652     1.007825032230
         H           -3.324877702365    -0.849709608081     0.114943766652     1.007825032230

  Basis Set: AUG-CC-PVTZ
    Blend: AUG-CC-PVTZ
  Basis Set: (AUG-CC-PVTZ AUX)
    Blend: AUG-CC-PVTZ-JKFIT
	 Reference Energy          =    -328.7540484813246167 [Eh]
	 Singles Energy            =      -0.0000000000000000 [Eh]
	 Same-Spin Energy          =      -0.3478195297361847 [Eh]
	 Opposite-Spin Energy      =      -1.2498983559733581 [Eh]
	 Correlation Energy        =      -1.5977178857095429 [Eh]
	 Total Energy              =    -330.3517663670341449 [Eh]

	 ================> DF-SCS-MP2 Energies <==================
	-----------------------------------------------------------
	 SCS Same-Spin Scale       =       0.3333333333333333 [-]
	 SCS Opposite-Spin Scale   =       1.2000000000000000 [-]
	 SCS Same-Spin Energy      =      -0.1159398432453949 [Eh]
	 SCS Opposite-Spin Energy  =      -1.4998780271680296 [Eh]
	 SCS Correlation Energy    =      -1.6158178704134245 [Eh]
	 SCS Total Energy          =    -330.3698663517380396 [Eh]
	-----------------------------------------------------------

  Dipole Moment: [D]
     X:    -4.3570      Y:    -0.0037      Z:    -0.8572     Total:     4.4405

*** Psi4 exiting successfully. Buy a developer a beer!
