                               Psi4 1.4a3.dev225

  ==> Input File <==

--------------------------------------------------------------------------
#psi4
#
memory 32 gb

molecule  {
1 1
  N       -1.4549350    -0.0063160    -0.3913190
  C        0.7700580    -0.6819900     0.3309590
  C        0.8298188     0.5137347    -0.2589658
  C       -0.5772670    -1.2354140    -0.1320620
  C       -0.5771770     1.2100060    -0.1498930
  C        1.9243020    -1.6239510     0.0114420
  C        1.8934400     1.6361940     0.2164580
  C       -2.7287170     0.0116090     0.3933420
  H        0.7287260    -0.5174670     1.4168530
  H        1.0195210     0.5454130    -1.4226110
  H       -1.7088400    -0.0087310    -1.3861360
  H       -0.4895840    -1.7781730    -1.0771710
  H       -1.0806180    -1.8736500     0.5969550
  H       -0.7401010     1.5214000     0.8863980
  H       -0.8919120     2.0130950    -0.8209550
  H        2.8677010    -1.2131930     0.3775700
  H        1.7829480    -2.5983540     0.4871410
  H        2.0117000    -1.7770280    -1.0688530
  H        2.8946680     1.2288240     0.0607940
  H        1.8539810     2.6122500    -0.2745750
  H        1.7463830     1.7834510     1.2910380
  H       -2.4748400    -0.0372670     1.4518960
  H       -3.2625880     0.9370400     0.1753330
  H       -3.3330800    -0.8496000     0.1082720
units angstrom
no_reorient  #important for SAPT in psi4, default
symmetry c1  #important for SAPT in psi4, default
}

set PROPERTIES_ORIGIN ["COM"]
properties('MP2/aug-cc-pvtz', properties = ['dipole'])
--------------------------------------------------------------------------

    Molecular point group: c1
  Charge       = 1
  Multiplicity = 1
  Basis Set: AUG-CC-PVTZ
    Blend: AUG-CC-PVTZ
  Basis Set: (AUG-CC-PVTZ AUX)
    Blend: AUG-CC-PVTZ-JKFIT

    Orbital Energies [Eh]
    ---------------------

    Doubly Occupied:

       1A    -15.849965     2A    -11.448106     3A    -11.447654
       4A    -11.447006     5A    -11.395569     6A    -11.381840
       7A    -11.357797     8A    -11.355642     9A     -1.490810
      10A     -1.299791    11A     -1.183187    12A     -1.143861
      13A     -1.088240    14A     -1.065509    15A     -1.012881
      16A     -0.931184    17A     -0.903214    18A     -0.846257
      19A     -0.818818    20A     -0.786528    21A     -0.769561
      22A     -0.760487    23A     -0.736152    24A     -0.714483
      25A     -0.705652    26A     -0.694185    27A     -0.676235
      28A     -0.670460    29A     -0.648366    30A     -0.642828
      31A     -0.598951    32A     -0.586672

  @DF-RHF Final Energy:  -328.70595483664476

   => Energetics <=

    Nuclear Repulsion Energy =            426.5041976443472436
    One-Electron Energy =               -1277.5045281158857051
    Two-Electron Energy =                 522.2943756348937541
    Total Energy =                       -328.7059548366447643
  Basis Set: (AUG-CC-PVTZ AUX)
    Blend: AUG-CC-PVTZ-RI
    Molecular point group: c1

    Geometry (in Angstrom), charge = 1, multiplicity = 1:

       Center              X                  Y                   Z               Mass
    ------------   -----------------  -----------------  -----------------  -----------------
         N           -1.445920817997     0.012419609966    -0.393631466052    14.003074004430
         C            0.779072182003    -0.663254390034     0.328646533948    12.000000000000
         C            0.838832982003     0.532470309966    -0.261278266052    12.000000000000
         C           -0.568252817997    -1.216678390034    -0.134374466052    12.000000000000
         C           -0.568162817997     1.228741609966    -0.152205466052    12.000000000000
         C            1.933316182003    -1.605215390034     0.009129533948    12.000000000000
         C            1.902454182003     1.654929609966     0.214145533948    12.000000000000
         C           -2.719702817997     0.030344609966     0.391029533948    12.000000000000
         H            0.737740182003    -0.498731390034     1.414540533948     1.007825032230
         H            1.028535182003     0.564148609966    -1.424923466052     1.007825032230
         H           -1.699825817997     0.010004609966    -1.388448466052     1.007825032230
         H           -0.480569817997    -1.759437390034    -1.079483466052     1.007825032230
         H           -1.071603817997    -1.854914390034     0.594642533948     1.007825032230
         H           -0.731086817997     1.540135609966     0.884085533948     1.007825032230
         H           -0.882897817997     2.031830609966    -0.823267466052     1.007825032230
         H            2.876715182003    -1.194457390034     0.375257533948     1.007825032230
         H            1.791962182003    -2.579618390034     0.484828533948     1.007825032230
         H            2.020714182003    -1.758292390034    -1.071165466052     1.007825032230
         H            2.903682182003     1.247559609966     0.058481533948     1.007825032230
         H            1.862995182003     2.630985609966    -0.276887466052     1.007825032230
         H            1.755397182003     1.802186609966     1.288725533948     1.007825032230
         H           -2.465825817997    -0.018531390034     1.449583533948     1.007825032230
         H           -3.253573817997     0.955775609966     0.173020533948     1.007825032230
         H           -3.324065817997    -0.830864390034     0.105959533948     1.007825032230

  Basis Set: AUG-CC-PVTZ
    Blend: AUG-CC-PVTZ
  Basis Set: (AUG-CC-PVTZ AUX)
    Blend: AUG-CC-PVTZ-JKFIT
	 Reference Energy          =    -328.7059548366447643 [Eh]
	 Singles Energy            =      -0.0000000000000000 [Eh]
	 Same-Spin Energy          =      -0.3503068703765804 [Eh]
	 Opposite-Spin Energy      =      -1.2537918065069626 [Eh]
	 Correlation Energy        =      -1.6040986768835430 [Eh]
	 Total Energy              =    -330.3100535135283167 [Eh]

	 ================> DF-SCS-MP2 Energies <==================
	-----------------------------------------------------------
	 SCS Same-Spin Scale       =       0.3333333333333333 [-]
	 SCS Opposite-Spin Scale   =       1.2000000000000000 [-]
	 SCS Same-Spin Energy      =      -0.1167689567921935 [Eh]
	 SCS Opposite-Spin Energy  =      -1.5045501678083550 [Eh]
	 SCS Correlation Energy    =      -1.6213191246005485 [Eh]
	 SCS Total Energy          =    -330.3272739612453393 [Eh]
	-----------------------------------------------------------

  Dipole Moment: [D]
     X:    -4.3381      Y:     0.0323      Z:    -0.8694     Total:     4.4245

*** Psi4 exiting successfully. Buy a developer a beer!
