                               Psi4 1.4a3.dev225

  ==> Input File <==

--------------------------------------------------------------------------
#psi4
#
memory 32 gb

molecule  {
1 1
  N       -1.4549350    -0.0063160    -0.3913190
  C        0.7700580    -0.6819900     0.3309590
  C        0.8387740     0.6929140    -0.3473660
  C       -0.5772670    -1.2354140    -0.1320620
  C       -0.5771770     1.2100060    -0.1498930
  C        1.9243020    -1.6239510     0.0114420
  C        1.8934400     1.6361940     0.2164580
  C       -2.7287170     0.0116090     0.3933420
  H        0.7287260    -0.5174670     1.4168530
  H        1.0195210     0.5454130    -1.4226110
  H       -1.7212050    -0.0088486    -1.4345828
  H       -0.4895840    -1.7781730    -1.0771710
  H       -1.0806180    -1.8736500     0.5969550
  H       -0.7401010     1.5214000     0.8863980
  H       -0.8919120     2.0130950    -0.8209550
  H        2.8677010    -1.2131930     0.3775700
  H        1.7829480    -2.5983540     0.4871410
  H        2.0117000    -1.7770280    -1.0688530
  H        2.8946680     1.2288240     0.0607940
  H        1.8539810     2.6122500    -0.2745750
  H        1.7463830     1.7834510     1.2910380
  H       -2.4748400    -0.0372670     1.4518960
  H       -3.2625880     0.9370400     0.1753330
  H       -3.3330800    -0.8496000     0.1082720
units angstrom
no_reorient  #important for SAPT in psi4, default
symmetry c1  #important for SAPT in psi4, default
}

set PROPERTIES_ORIGIN ["COM"]
properties('MP2/aug-cc-pvtz', properties = ['dipole'])
--------------------------------------------------------------------------

    Molecular point group: c1
  Charge       = 1
  Multiplicity = 1
  Basis Set: AUG-CC-PVTZ
    Blend: AUG-CC-PVTZ
  Basis Set: (AUG-CC-PVTZ AUX)
    Blend: AUG-CC-PVTZ-JKFIT

    Orbital Energies [Eh]
    ---------------------

    Doubly Occupied:

       1A    -15.855969     2A    -11.448641     3A    -11.445787
       4A    -11.445290     5A    -11.390630     6A    -11.389879
       7A    -11.352592     8A    -11.352317     9A     -1.483541
      10A     -1.270808    11A     -1.192725    12A     -1.141607
      13A     -1.094425    14A     -1.059543    15A     -0.984873
      16A     -0.938853    17A     -0.898785    18A     -0.843869
      19A     -0.820906    20A     -0.785873    21A     -0.762707
      22A     -0.753890    23A     -0.734280    24A     -0.714496
      25A     -0.700686    26A     -0.694924    27A     -0.676118
      28A     -0.662513    29A     -0.647055    30A     -0.628015
      31A     -0.622641    32A     -0.602709

  @DF-RHF Final Energy:  -328.75046178944808

   => Energetics <=

    Nuclear Repulsion Energy =            424.1861792370596049
    One-Electron Energy =               -1273.0793876585476028
    Two-Electron Energy =                 520.1427466320399162
    Total Energy =                       -328.7504617894480816
  Basis Set: (AUG-CC-PVTZ AUX)
    Blend: AUG-CC-PVTZ-RI
    Molecular point group: c1

    Geometry (in Angstrom), charge = 1, multiplicity = 1:

       Center              X                  Y                   Z               Mass
    ------------   -----------------  -----------------  -----------------  -----------------
         N           -1.446753220343    -0.006419131694    -0.383908824556    14.003074004430
         C            0.778239779657    -0.682093131694     0.338369175444    12.000000000000
         C            0.846955779657     0.692810868306    -0.339955824556    12.000000000000
         C           -0.569085220343    -1.235517131694    -0.124651824556    12.000000000000
         C           -0.568995220343     1.209902868306    -0.142482824556    12.000000000000
         C            1.932483779657    -1.624054131694     0.018852175444    12.000000000000
         C            1.901621779657     1.636090868306     0.223868175444    12.000000000000
         C           -2.720535220343     0.011505868306     0.400752175444    12.000000000000
         H            0.736907779657    -0.517570131694     1.424263175444     1.007825032230
         H            1.027702779657     0.545309868306    -1.415200824556     1.007825032230
         H           -1.713023220343    -0.008951731694    -1.427172624556     1.007825032230
         H           -0.481402220343    -1.778276131694    -1.069760824556     1.007825032230
         H           -1.072436220343    -1.873753131694     0.604365175444     1.007825032230
         H           -0.731919220343     1.521296868306     0.893808175444     1.007825032230
         H           -0.883730220343     2.012991868306    -0.813544824556     1.007825032230
         H            2.875882779657    -1.213296131694     0.384980175444     1.007825032230
         H            1.791129779657    -2.598457131694     0.494551175444     1.007825032230
         H            2.019881779657    -1.777131131694    -1.061442824556     1.007825032230
         H            2.902849779657     1.228720868306     0.068204175444     1.007825032230
         H            1.862162779657     2.612146868306    -0.267164824556     1.007825032230
         H            1.754564779657     1.783347868306     1.298448175444     1.007825032230
         H           -2.466658220343    -0.037370131694     1.459306175444     1.007825032230
         H           -3.254406220343     0.936936868306     0.182743175444     1.007825032230
         H           -3.324898220343    -0.849703131694     0.115682175444     1.007825032230

  Basis Set: AUG-CC-PVTZ
    Blend: AUG-CC-PVTZ
  Basis Set: (AUG-CC-PVTZ AUX)
    Blend: AUG-CC-PVTZ-JKFIT
	 Reference Energy          =    -328.7504617894480816 [Eh]
	 Singles Energy            =      -0.0000000000000000 [Eh]
	 Same-Spin Energy          =      -0.3481745029266227 [Eh]
	 Opposite-Spin Energy      =      -1.2509498153242455 [Eh]
	 Correlation Energy        =      -1.5991243182508683 [Eh]
	 Total Energy              =    -330.3495861076989399 [Eh]

	 ================> DF-SCS-MP2 Energies <==================
	-----------------------------------------------------------
	 SCS Same-Spin Scale       =       0.3333333333333333 [-]
	 SCS Opposite-Spin Scale   =       1.2000000000000000 [-]
	 SCS Same-Spin Energy      =      -0.1160581676422076 [Eh]
	 SCS Opposite-Spin Energy  =      -1.5011397783890945 [Eh]
	 SCS Correlation Energy    =      -1.6171979460313022 [Eh]
	 SCS Total Energy          =    -330.3676597354793785 [Eh]
	-----------------------------------------------------------

  Dipole Moment: [D]
     X:    -4.3762      Y:     0.0007      Z:    -0.9196     Total:     4.4718

*** Psi4 exiting successfully. Buy a developer a beer!
