                               Psi4 1.4a3.dev225

  ==> Input File <==

--------------------------------------------------------------------------
#psi4
#
memory 32 gb

molecule  {
1 1
  N       -1.4549350    -0.0063160    -0.3913190
  C        0.7700580    -0.6819900     0.3309590
  C        0.8086938     0.7714285    -0.4124309
  C       -0.5772670    -1.2354140    -0.1320620
  C       -0.5771770     1.2100060    -0.1498930
  C        1.9243020    -1.6239510     0.0114420
  C        1.8934400     1.6361940     0.2164580
  C       -2.7287170     0.0116090     0.3933420
  H        0.7287260    -0.5174670     1.4168530
  H        1.0195210     0.5454130    -1.4226110
  H       -1.7088400    -0.0087310    -1.3861360
  H       -0.4895840    -1.7781730    -1.0771710
  H       -1.0806180    -1.8736500     0.5969550
  H       -0.7401010     1.5214000     0.8863980
  H       -0.8919120     2.0130950    -0.8209550
  H        2.8677010    -1.2131930     0.3775700
  H        1.7829480    -2.5983540     0.4871410
  H        2.0117000    -1.7770280    -1.0688530
  H        2.8946680     1.2288240     0.0607940
  H        1.8539810     2.6122500    -0.2745750
  H        1.7463830     1.7834510     1.2910380
  H       -2.4748400    -0.0372670     1.4518960
  H       -3.2625880     0.9370400     0.1753330
  H       -3.3330800    -0.8496000     0.1082720
units angstrom
no_reorient  #important for SAPT in psi4, default
symmetry c1  #important for SAPT in psi4, default
}

set PROPERTIES_ORIGIN ["COM"]
properties('MP2/aug-cc-pvtz', properties = ['dipole'])
--------------------------------------------------------------------------

    Molecular point group: c1
  Charge       = 1
  Multiplicity = 1
  Basis Set: AUG-CC-PVTZ
    Blend: AUG-CC-PVTZ
  Basis Set: (AUG-CC-PVTZ AUX)
    Blend: AUG-CC-PVTZ-JKFIT

    Orbital Energies [Eh]
    ---------------------

    Doubly Occupied:

       1A    -15.852567     2A    -11.449343     3A    -11.445762
       4A    -11.444833     5A    -11.392524     6A    -11.389446
       7A    -11.353325     8A    -11.351815     9A     -1.489674
      10A     -1.265470    11A     -1.197515    12A     -1.141410
      13A     -1.095243    14A     -1.065103    15A     -0.980245
      16A     -0.944172    17A     -0.903600    18A     -0.845058
      19A     -0.826501    20A     -0.786975    21A     -0.761321
      22A     -0.752110    23A     -0.734999    24A     -0.715857
      25A     -0.704839    26A     -0.696305    27A     -0.675303
      28A     -0.662387    29A     -0.652354    30A     -0.637197
      31A     -0.629338    32A     -0.575325

  @DF-RHF Final Energy:  -328.74480538853419

   => Energetics <=

    Nuclear Repulsion Energy =            423.7161115577893042
    One-Electron Energy =               -1272.0859988080717358
    Two-Electron Energy =                 519.6250818617481855
    Total Energy =                       -328.7448053885342460
  Basis Set: (AUG-CC-PVTZ AUX)
    Blend: AUG-CC-PVTZ-RI
    Molecular point group: c1

    Geometry (in Angstrom), charge = 1, multiplicity = 1:

       Center              X                  Y                   Z               Mass
    ------------   -----------------  -----------------  -----------------  -----------------
         N           -1.443699633097    -0.014675565291    -0.377495401543    14.003074004430
         C            0.781293366903    -0.690349565291     0.344782598457    12.000000000000
         C            0.819929166903     0.763068934709    -0.398607301543    12.000000000000
         C           -0.566031633097    -1.243773565291    -0.118238401543    12.000000000000
         C           -0.565941633097     1.201646434709    -0.136069401543    12.000000000000
         C            1.935537366903    -1.632310565291     0.025265598457    12.000000000000
         C            1.904675366903     1.627834434709     0.230281598457    12.000000000000
         C           -2.717481633097     0.003249434709     0.407165598457    12.000000000000
         H            0.739961366903    -0.525826565291     1.430676598457     1.007825032230
         H            1.030756366903     0.537053434709    -1.408787401543     1.007825032230
         H           -1.697604633097    -0.017090565291    -1.372312401543     1.007825032230
         H           -0.478348633097    -1.786532565291    -1.063347401543     1.007825032230
         H           -1.069382633097    -1.882009565291     0.610778598457     1.007825032230
         H           -0.728865633097     1.513040434709     0.900221598457     1.007825032230
         H           -0.880676633097     2.004735434709    -0.807131401543     1.007825032230
         H            2.878936366903    -1.221552565291     0.391393598457     1.007825032230
         H            1.794183366903    -2.606713565291     0.500964598457     1.007825032230
         H            2.022935366903    -1.785387565291    -1.055029401543     1.007825032230
         H            2.905903366903     1.220464434709     0.074617598457     1.007825032230
         H            1.865216366903     2.603890434709    -0.260751401543     1.007825032230
         H            1.757618366903     1.775091434709     1.304861598457     1.007825032230
         H           -2.463604633097    -0.045626565291     1.465719598457     1.007825032230
         H           -3.251352633097     0.928680434709     0.189156598457     1.007825032230
         H           -3.321844633097    -0.857959565291     0.122095598457     1.007825032230

  Basis Set: AUG-CC-PVTZ
    Blend: AUG-CC-PVTZ
  Basis Set: (AUG-CC-PVTZ AUX)
    Blend: AUG-CC-PVTZ-JKFIT
	 Reference Energy          =    -328.7448053885341892 [Eh]
	 Singles Energy            =      -0.0000000000000000 [Eh]
	 Same-Spin Energy          =      -0.3480535179994437 [Eh]
	 Opposite-Spin Energy      =      -1.2504649289370575 [Eh]
	 Correlation Energy        =      -1.5985184469365012 [Eh]
	 Total Energy              =    -330.3433238354706987 [Eh]

	 ================> DF-SCS-MP2 Energies <==================
	-----------------------------------------------------------
	 SCS Same-Spin Scale       =       0.3333333333333333 [-]
	 SCS Opposite-Spin Scale   =       1.2000000000000000 [-]
	 SCS Same-Spin Energy      =      -0.1160178393331479 [Eh]
	 SCS Opposite-Spin Energy  =      -1.5005579147244690 [Eh]
	 SCS Correlation Energy    =      -1.6165757540576169 [Eh]
	 SCS Total Energy          =    -330.3613811425918243 [Eh]
	-----------------------------------------------------------

  Dipole Moment: [D]
     X:    -4.3283      Y:    -0.0271      Z:    -0.8451     Total:     4.4101

*** Psi4 exiting successfully. Buy a developer a beer!
