                               Psi4 1.4a3.dev225

  ==> Input File <==

--------------------------------------------------------------------------
#psi4
#
memory 32 gb

molecule  {
1 1
  N       -1.4549350    -0.0063160    -0.3913190
  C        0.7700580    -0.6819900     0.3309590
  C        0.8387740     0.6929140    -0.3473660
  C       -0.5772670    -1.2354140    -0.1320620
  C       -0.5887320     1.1939941    -0.1530712
  C        1.9243020    -1.6239510     0.0114420
  C        1.8934400     1.6361940     0.2164580
  C       -2.7287170     0.0116090     0.3933420
  H        0.7287260    -0.5174670     1.4168530
  H        1.0195210     0.5454130    -1.4226110
  H       -1.7088400    -0.0087310    -1.3861360
  H       -0.4895840    -1.7781730    -1.0771710
  H       -1.0806180    -1.8736500     0.5969550
  H       -0.7401010     1.5214000     0.8863980
  H       -0.8919120     2.0130950    -0.8209550
  H        2.8677010    -1.2131930     0.3775700
  H        1.7829480    -2.5983540     0.4871410
  H        2.0117000    -1.7770280    -1.0688530
  H        2.8946680     1.2288240     0.0607940
  H        1.8539810     2.6122500    -0.2745750
  H        1.7463830     1.7834510     1.2910380
  H       -2.4748400    -0.0372670     1.4518960
  H       -3.2625880     0.9370400     0.1753330
  H       -3.3330800    -0.8496000     0.1082720
units angstrom
no_reorient  #important for SAPT in psi4, default
symmetry c1  #important for SAPT in psi4, default
}

set PROPERTIES_ORIGIN ["COM"]
properties('MP2/aug-cc-pvtz', properties = ['dipole'])
--------------------------------------------------------------------------

    Molecular point group: c1
  Charge       = 1
  Multiplicity = 1
  Basis Set: AUG-CC-PVTZ
    Blend: AUG-CC-PVTZ
  Basis Set: (AUG-CC-PVTZ AUX)
    Blend: AUG-CC-PVTZ-JKFIT

    Orbital Energies [Eh]
    ---------------------

    Doubly Occupied:

       1A    -15.853650     2A    -11.449777     3A    -11.446776
       4A    -11.444733     5A    -11.390800     6A    -11.390001
       7A    -11.352653     8A    -11.352388     9A     -1.493930
      10A     -1.271796    11A     -1.192740    12A     -1.144005
      13A     -1.095338    14A     -1.065868    15A     -0.986639
      16A     -0.940214    17A     -0.904485    18A     -0.846997
      19A     -0.823177    20A     -0.785172    21A     -0.762350
      22A     -0.755294    23A     -0.735506    24A     -0.716422
      25A     -0.700341    26A     -0.696560    27A     -0.676053
      28A     -0.663864    29A     -0.646931    30A     -0.628280
      31A     -0.622026    32A     -0.602059

  @DF-RHF Final Energy:  -328.75393194722983

   => Energetics <=

    Nuclear Repulsion Energy =            424.7160043693771740
    One-Electron Energy =               -1274.0662230939892652
    Two-Electron Energy =                 520.5962867773822609
    Total Energy =                       -328.7539319472298303
  Basis Set: (AUG-CC-PVTZ AUX)
    Blend: AUG-CC-PVTZ-RI
    Molecular point group: c1

    Geometry (in Angstrom), charge = 1, multiplicity = 1:

       Center              X                  Y                   Z               Mass
    ------------   -----------------  -----------------  -----------------  -----------------
         N           -1.445647462423    -0.004736601395    -0.384002469166    14.003074004430
         C            0.779345537577    -0.680410601395     0.338275530834    12.000000000000
         C            0.848061537577     0.694493398605    -0.340049469166    12.000000000000
         C           -0.567979462423    -1.233834601395    -0.124745469166    12.000000000000
         C           -0.579444462423     1.195573498605    -0.145754669166    12.000000000000
         C            1.933589537577    -1.622371601395     0.018758530834    12.000000000000
         C            1.902727537577     1.637773398605     0.223774530834    12.000000000000
         C           -2.719429462423     0.013188398605     0.400658530834    12.000000000000
         H            0.738013537577    -0.515887601395     1.424169530834     1.007825032230
         H            1.028808537577     0.546992398605    -1.415294469166     1.007825032230
         H           -1.699552462423    -0.007151601395    -1.378819469166     1.007825032230
         H           -0.480296462423    -1.776593601395    -1.069854469166     1.007825032230
         H           -1.071330462423    -1.872070601395     0.604271530834     1.007825032230
         H           -0.730813462423     1.522979398605     0.893714530834     1.007825032230
         H           -0.882624462423     2.014674398605    -0.813638469166     1.007825032230
         H            2.876988537577    -1.211613601395     0.384886530834     1.007825032230
         H            1.792235537577    -2.596774601395     0.494457530834     1.007825032230
         H            2.020987537577    -1.775448601395    -1.061536469166     1.007825032230
         H            2.903955537577     1.230403398605     0.068110530834     1.007825032230
         H            1.863268537577     2.613829398605    -0.267258469166     1.007825032230
         H            1.755670537577     1.785030398605     1.298354530834     1.007825032230
         H           -2.465552462423    -0.035687601395     1.459212530834     1.007825032230
         H           -3.253300462423     0.938619398605     0.182649530834     1.007825032230
         H           -3.323792462423    -0.848020601395     0.115588530834     1.007825032230

  Basis Set: AUG-CC-PVTZ
    Blend: AUG-CC-PVTZ
  Basis Set: (AUG-CC-PVTZ AUX)
    Blend: AUG-CC-PVTZ-JKFIT
	 Reference Energy          =    -328.7539319472298303 [Eh]
	 Singles Energy            =      -0.0000000000000000 [Eh]
	 Same-Spin Energy          =      -0.3478874123454361 [Eh]
	 Opposite-Spin Energy      =      -1.2498255029372212 [Eh]
	 Correlation Energy        =      -1.5977129152826572 [Eh]
	 Total Energy              =    -330.3516448625125008 [Eh]

	 ================> DF-SCS-MP2 Energies <==================
	-----------------------------------------------------------
	 SCS Same-Spin Scale       =       0.3333333333333333 [-]
	 SCS Opposite-Spin Scale   =       1.2000000000000000 [-]
	 SCS Same-Spin Energy      =      -0.1159624707818120 [Eh]
	 SCS Opposite-Spin Energy  =      -1.4997906035246653 [Eh]
	 SCS Correlation Energy    =      -1.6157530743064774 [Eh]
	 SCS Total Energy          =    -330.3696850215363270 [Eh]
	-----------------------------------------------------------

  Dipole Moment: [D]
     X:    -4.3784      Y:    -0.0199      Z:    -0.8678     Total:     4.4636

*** Psi4 exiting successfully. Buy a developer a beer!
