                               Psi4 1.4a3.dev225

  ==> Input File <==

--------------------------------------------------------------------------
#psi4
#
memory 32 gb

molecule  {
1 1
  N       -1.4549350    -0.0063160    -0.3913190
  C        0.7700580    -0.6819900     0.3309590
  C        0.9091090     0.7124664    -0.4891018
  C       -0.5772670    -1.2354140    -0.1320620
  C       -0.5771770     1.2100060    -0.1498930
  C        1.9243020    -1.6239510     0.0114420
  C        1.8934400     1.6361940     0.2164580
  C       -2.7287170     0.0116090     0.3933420
  H        0.7287260    -0.5174670     1.4168530
  H        1.0195210     0.5454130    -1.4226110
  H       -1.7088400    -0.0087310    -1.3861360
  H       -0.4895840    -1.7781730    -1.0771710
  H       -1.0806180    -1.8736500     0.5969550
  H       -0.7401010     1.5214000     0.8863980
  H       -0.8919120     2.0130950    -0.8209550
  H        2.8677010    -1.2131930     0.3775700
  H        1.7829480    -2.5983540     0.4871410
  H        2.0117000    -1.7770280    -1.0688530
  H        2.8946680     1.2288240     0.0607940
  H        1.8539810     2.6122500    -0.2745750
  H        1.7463830     1.7834510     1.2910380
  H       -2.4748400    -0.0372670     1.4518960
  H       -3.2625880     0.9370400     0.1753330
  H       -3.3330800    -0.8496000     0.1082720
units angstrom
no_reorient  #important for SAPT in psi4, default
symmetry c1  #important for SAPT in psi4, default
}

set PROPERTIES_ORIGIN ["COM"]
properties('MP2/aug-cc-pvtz', properties = ['dipole'])
--------------------------------------------------------------------------

    Molecular point group: c1
  Charge       = 1
  Multiplicity = 1
  Basis Set: AUG-CC-PVTZ
    Blend: AUG-CC-PVTZ
  Basis Set: (AUG-CC-PVTZ AUX)
    Blend: AUG-CC-PVTZ-JKFIT

    Orbital Energies [Eh]
    ---------------------

    Doubly Occupied:

       1A    -15.850748     2A    -11.448083     3A    -11.446573
       4A    -11.445017     5A    -11.393399     6A    -11.390320
       7A    -11.353302     8A    -11.350351     9A     -1.485714
      10A     -1.260147    11A     -1.188093    12A     -1.140954
      13A     -1.094760    14A     -1.060614    15A     -0.992022
      16A     -0.945465    17A     -0.903889    18A     -0.839367
      19A     -0.827877    20A     -0.784270    21A     -0.757173
      22A     -0.750723    23A     -0.731364    24A     -0.715538
      25A     -0.707327    26A     -0.695952    27A     -0.681200
      28A     -0.674346    29A     -0.651603    30A     -0.633750
      31A     -0.615507    32A     -0.574451

  @DF-RHF Final Energy:  -328.72343255817191

   => Energetics <=

    Nuclear Repulsion Energy =            422.6425023782751396
    One-Electron Energy =               -1269.9520733186448069
    Two-Electron Energy =                 518.5861383821977597
    Total Energy =                       -328.7234325581719077
  Basis Set: (AUG-CC-PVTZ AUX)
    Blend: AUG-CC-PVTZ-RI
    Molecular point group: c1

    Geometry (in Angstrom), charge = 1, multiplicity = 1:

       Center              X                  Y                   Z               Mass
    ------------   -----------------  -----------------  -----------------  -----------------
         N           -1.454257773970    -0.008476004289    -0.369433851468    14.003074004430
         C            0.770735226030    -0.684150004289     0.352844148532    12.000000000000
         C            0.909786226030     0.710306395711    -0.467216651468    12.000000000000
         C           -0.576589773970    -1.237574004289    -0.110176851468    12.000000000000
         C           -0.576499773970     1.207845995711    -0.128007851468    12.000000000000
         C            1.924979226030    -1.626111004289     0.033327148532    12.000000000000
         C            1.894117226030     1.634033995711     0.238343148532    12.000000000000
         C           -2.728039773970     0.009448995711     0.415227148532    12.000000000000
         H            0.729403226030    -0.519627004289     1.438738148532     1.007825032230
         H            1.020198226030     0.543252995711    -1.400725851468     1.007825032230
         H           -1.708162773970    -0.010891004289    -1.364250851468     1.007825032230
         H           -0.488906773970    -1.780333004289    -1.055285851468     1.007825032230
         H           -1.079940773970    -1.875810004289     0.618840148532     1.007825032230
         H           -0.739423773970     1.519239995711     0.908283148532     1.007825032230
         H           -0.891234773970     2.010934995711    -0.799069851468     1.007825032230
         H            2.868378226030    -1.215353004289     0.399455148532     1.007825032230
         H            1.783625226030    -2.600514004289     0.509026148532     1.007825032230
         H            2.012377226030    -1.779188004289    -1.046967851468     1.007825032230
         H            2.895345226030     1.226663995711     0.082679148532     1.007825032230
         H            1.854658226030     2.610089995711    -0.252689851468     1.007825032230
         H            1.747060226030     1.781290995711     1.312923148532     1.007825032230
         H           -2.474162773970    -0.039427004289     1.473781148532     1.007825032230
         H           -3.261910773970     0.934879995711     0.197218148532     1.007825032230
         H           -3.332402773970    -0.851760004289     0.130157148532     1.007825032230

  Basis Set: AUG-CC-PVTZ
    Blend: AUG-CC-PVTZ
  Basis Set: (AUG-CC-PVTZ AUX)
    Blend: AUG-CC-PVTZ-JKFIT
	 Reference Energy          =    -328.7234325581719077 [Eh]
	 Singles Energy            =      -0.0000000000000000 [Eh]
	 Same-Spin Energy          =      -0.3475465723312015 [Eh]
	 Opposite-Spin Energy      =      -1.2508900154120246 [Eh]
	 Correlation Energy        =      -1.5984365877432261 [Eh]
	 Total Energy              =    -330.3218691459151160 [Eh]

	 ================> DF-SCS-MP2 Energies <==================
	-----------------------------------------------------------
	 SCS Same-Spin Scale       =       0.3333333333333333 [-]
	 SCS Opposite-Spin Scale   =       1.2000000000000000 [-]
	 SCS Same-Spin Energy      =      -0.1158488574437338 [Eh]
	 SCS Opposite-Spin Energy  =      -1.5010680184944294 [Eh]
	 SCS Correlation Energy    =      -1.6169168759381631 [Eh]
	 SCS Total Energy          =    -330.3403494341100668 [Eh]
	-----------------------------------------------------------

  Dipole Moment: [D]
     X:    -4.3481      Y:     0.0073      Z:    -0.8267     Total:     4.4260

*** Psi4 exiting successfully. Buy a developer a beer!
