                               Psi4 1.4a3.dev225

  ==> Input File <==

--------------------------------------------------------------------------
#psi4
#
memory 32 gb

molecule  {
1 1
  N       -1.4549350    -0.0063160    -0.3913190
  C        0.7700580    -0.6819900     0.3309590
  C        0.8387740     0.6929140    -0.3473660
  C       -0.5772670    -1.2354140    -0.1320620
  C       -0.5958043     1.2168085    -0.1472952
  C        1.9243020    -1.6239510     0.0114420
  C        1.8934400     1.6361940     0.2164580
  C       -2.7287170     0.0116090     0.3933420
  H        0.7287260    -0.5174670     1.4168530
  H        1.0195210     0.5454130    -1.4226110
  H       -1.7088400    -0.0087310    -1.3861360
  H       -0.4895840    -1.7781730    -1.0771710
  H       -1.0806180    -1.8736500     0.5969550
  H       -0.7401010     1.5214000     0.8863980
  H       -0.8919120     2.0130950    -0.8209550
  H        2.8677010    -1.2131930     0.3775700
  H        1.7829480    -2.5983540     0.4871410
  H        2.0117000    -1.7770280    -1.0688530
  H        2.8946680     1.2288240     0.0607940
  H        1.8539810     2.6122500    -0.2745750
  H        1.7463830     1.7834510     1.2910380
  H       -2.4748400    -0.0372670     1.4518960
  H       -3.2625880     0.9370400     0.1753330
  H       -3.3330800    -0.8496000     0.1082720
units angstrom
no_reorient  #important for SAPT in psi4, default
symmetry c1  #important for SAPT in psi4, default
}

set PROPERTIES_ORIGIN ["COM"]
properties('MP2/aug-cc-pvtz', properties = ['dipole'])
--------------------------------------------------------------------------

    Molecular point group: c1
  Charge       = 1
  Multiplicity = 1
  Basis Set: AUG-CC-PVTZ
    Blend: AUG-CC-PVTZ
  Basis Set: (AUG-CC-PVTZ AUX)
    Blend: AUG-CC-PVTZ-JKFIT

    Orbital Energies [Eh]
    ---------------------

    Doubly Occupied:

       1A    -15.852649     2A    -11.448957     3A    -11.446452
       4A    -11.444551     5A    -11.391776     6A    -11.390114
       7A    -11.352488     8A    -11.352366     9A     -1.490197
      10A     -1.270164    11A     -1.192415    12A     -1.142620
      13A     -1.095431    14A     -1.065345    15A     -0.987571
      16A     -0.938651    17A     -0.904171    18A     -0.844724
      19A     -0.821915    20A     -0.787226    21A     -0.763021
      22A     -0.754584    23A     -0.734705    24A     -0.716290
      25A     -0.702901    26A     -0.697898    27A     -0.676268
      28A     -0.662128    29A     -0.647748    30A     -0.627022
      31A     -0.621484    32A     -0.602503

  @DF-RHF Final Energy:  -328.75409487666144

   => Energetics <=

    Nuclear Repulsion Energy =            424.2800280771632515
    One-Electron Energy =               -1273.2155782607865149
    Two-Electron Energy =                 520.1814553069618796
    Total Energy =                       -328.7540948766613838
  Basis Set: (AUG-CC-PVTZ AUX)
    Blend: AUG-CC-PVTZ-RI
    Molecular point group: c1

    Geometry (in Angstrom), charge = 1, multiplicity = 1:

       Center              X                  Y                   Z               Mass
    ------------   -----------------  -----------------  -----------------  -----------------
         N           -1.444903846519    -0.007135418000    -0.384609785804    14.003074004430
         C            0.780089153481    -0.682809418000     0.337668214196    12.000000000000
         C            0.848805153481     0.692094582000    -0.340656785804    12.000000000000
         C           -0.567235846519    -1.236233418000    -0.125352785804    12.000000000000
         C           -0.585773146519     1.215989082000    -0.140585985804    12.000000000000
         C            1.934333153481    -1.624770418000     0.018151214196    12.000000000000
         C            1.903471153481     1.635374582000     0.223167214196    12.000000000000
         C           -2.718685846519     0.010789582000     0.400051214196    12.000000000000
         H            0.738757153481    -0.518286418000     1.423562214196     1.007825032230
         H            1.029552153481     0.544593582000    -1.415901785804     1.007825032230
         H           -1.698808846519    -0.009550418000    -1.379426785804     1.007825032230
         H           -0.479552846519    -1.778992418000    -1.070461785804     1.007825032230
         H           -1.070586846519    -1.874469418000     0.603664214196     1.007825032230
         H           -0.730069846519     1.520580582000     0.893107214196     1.007825032230
         H           -0.881880846519     2.012275582000    -0.814245785804     1.007825032230
         H            2.877732153481    -1.214012418000     0.384279214196     1.007825032230
         H            1.792979153481    -2.599173418000     0.493850214196     1.007825032230
         H            2.021731153481    -1.777847418000    -1.062143785804     1.007825032230
         H            2.904699153481     1.228004582000     0.067503214196     1.007825032230
         H            1.864012153481     2.611430582000    -0.267865785804     1.007825032230
         H            1.756414153481     1.782631582000     1.297747214196     1.007825032230
         H           -2.464808846519    -0.038086418000     1.458605214196     1.007825032230
         H           -3.252556846519     0.936220582000     0.182042214196     1.007825032230
         H           -3.323048846519    -0.850419418000     0.114981214196     1.007825032230

  Basis Set: AUG-CC-PVTZ
    Blend: AUG-CC-PVTZ
  Basis Set: (AUG-CC-PVTZ AUX)
    Blend: AUG-CC-PVTZ-JKFIT
	 Reference Energy          =    -328.7540948766614406 [Eh]
	 Singles Energy            =      -0.0000000000000000 [Eh]
	 Same-Spin Energy          =      -0.3476659305890252 [Eh]
	 Opposite-Spin Energy      =      -1.2497543145414012 [Eh]
	 Correlation Energy        =      -1.5974202451304262 [Eh]
	 Total Energy              =    -330.3515151217918628 [Eh]

	 ================> DF-SCS-MP2 Energies <==================
	-----------------------------------------------------------
	 SCS Same-Spin Scale       =       0.3333333333333333 [-]
	 SCS Opposite-Spin Scale   =       1.2000000000000000 [-]
	 SCS Same-Spin Energy      =      -0.1158886435296751 [Eh]
	 SCS Opposite-Spin Energy  =      -1.4997051774496815 [Eh]
	 SCS Correlation Energy    =      -1.6155938209793566 [Eh]
	 SCS Total Energy          =    -330.3696886976408109 [Eh]
	-----------------------------------------------------------

  Dipole Moment: [D]
     X:    -4.3619      Y:    -0.0060      Z:    -0.8704     Total:     4.4479

*** Psi4 exiting successfully. Buy a developer a beer!
