                               Psi4 1.4a3.dev225

  ==> Input File <==

--------------------------------------------------------------------------
#psi4
#
memory 32 gb

molecule  {
1 1
  N       -1.4549350    -0.0063160    -0.3913190
  C        0.7700580    -0.6819900     0.3309590
  C        0.8387740     0.6929140    -0.3473660
  C       -0.5772670    -1.2354140    -0.1320620
  C       -0.5771770     1.2100060    -0.1498930
  C        1.9243020    -1.6239510     0.0114420
  C        1.8934400     1.6361940     0.2164580
  C       -2.7287170     0.0116090     0.3933420
  H        0.7287260    -0.5174670     1.4168530
  H        1.0195210     0.5454130    -1.4226110
  H       -1.7088400    -0.0087310    -1.3861360
  H       -0.4895840    -1.7781730    -1.0771710
  H       -1.0806180    -1.8736500     0.5969550
  H       -0.7401010     1.5214000     0.8863980
  H       -0.8919120     2.0130950    -0.8209550
  H        2.8677010    -1.2131930     0.3775700
  H        1.7829480    -2.5983540     0.4871410
  H        2.0117000    -1.7770280    -1.0688530
  H        2.8946680     1.2288240     0.0607940
  H        1.8569184     2.6037226    -0.2913908
  H        1.7463830     1.7834510     1.2910380
  H       -2.4748400    -0.0372670     1.4518960
  H       -3.2625880     0.9370400     0.1753330
  H       -3.3330800    -0.8496000     0.1082720
units angstrom
no_reorient  #important for SAPT in psi4, default
symmetry c1  #important for SAPT in psi4, default
}

set PROPERTIES_ORIGIN ["COM"]
properties('MP2/aug-cc-pvtz', properties = ['dipole'])
--------------------------------------------------------------------------

    Molecular point group: c1
  Charge       = 1
  Multiplicity = 1
  Basis Set: AUG-CC-PVTZ
    Blend: AUG-CC-PVTZ
  Basis Set: (AUG-CC-PVTZ AUX)
    Blend: AUG-CC-PVTZ-JKFIT

    Orbital Energies [Eh]
    ---------------------

    Doubly Occupied:

       1A    -15.852124     2A    -11.448994     3A    -11.446151
       4A    -11.445645     5A    -11.390804     6A    -11.390071
       7A    -11.352853     8A    -11.352455     9A     -1.489411
      10A     -1.272066    11A     -1.193153    12A     -1.142626
      13A     -1.094829    14A     -1.065476    15A     -0.987092
      16A     -0.939490    17A     -0.903276    18A     -0.844724
      19A     -0.822000    20A     -0.786424    21A     -0.763184
      22A     -0.754750    23A     -0.735157    24A     -0.715601
      25A     -0.701548    26A     -0.697260    27A     -0.675992
      28A     -0.662964    29A     -0.647659    30A     -0.628369
      31A     -0.622812    32A     -0.602822

  @DF-RHF Final Energy:  -328.75416376681704

   => Energetics <=

    Nuclear Repulsion Energy =            424.4968671798908986
    One-Electron Energy =               -1273.6465031429943338
    Two-Electron Energy =                 520.3954721962863914
    Total Energy =                       -328.7541637668171006
  Basis Set: (AUG-CC-PVTZ AUX)
    Blend: AUG-CC-PVTZ-RI
    Molecular point group: c1

    Geometry (in Angstrom), charge = 1, multiplicity = 1:

       Center              X                  Y                   Z               Mass
    ------------   -----------------  -----------------  -----------------  -----------------
         N           -1.446888350238    -0.006344867827    -0.384188146343    14.003074004430
         C            0.778104649762    -0.682018867827     0.338089853657    12.000000000000
         C            0.846820649762     0.692885132173    -0.340235146343    12.000000000000
         C           -0.569220350238    -1.235442867827    -0.124931146343    12.000000000000
         C           -0.569130350238     1.209977132173    -0.142762146343    12.000000000000
         C            1.932348649762    -1.623979867827     0.018572853657    12.000000000000
         C            1.901486649762     1.636165132173     0.223588853657    12.000000000000
         C           -2.720670350238     0.011580132173     0.400472853657    12.000000000000
         H            0.736772649762    -0.517495867827     1.423983853657     1.007825032230
         H            1.027567649762     0.545384132173    -1.415480146343     1.007825032230
         H           -1.700793350238    -0.008759867827    -1.379005146343     1.007825032230
         H           -0.481537350238    -1.778201867827    -1.070040146343     1.007825032230
         H           -1.072571350238    -1.873678867827     0.604085853657     1.007825032230
         H           -0.732054350238     1.521371132173     0.893528853657     1.007825032230
         H           -0.883865350238     2.013066132173    -0.813824146343     1.007825032230
         H            2.875747649762    -1.213221867827     0.384700853657     1.007825032230
         H            1.790994649762    -2.598382867827     0.494271853657     1.007825032230
         H            2.019746649762    -1.777056867827    -1.061722146343     1.007825032230
         H            2.902714649762     1.228795132173     0.067924853657     1.007825032230
         H            1.864965049762     2.603693732173    -0.284259946343     1.007825032230
         H            1.754429649762     1.783422132173     1.298168853657     1.007825032230
         H           -2.466793350238    -0.037295867827     1.459026853657     1.007825032230
         H           -3.254541350238     0.937011132173     0.182463853657     1.007825032230
         H           -3.325033350238    -0.849628867827     0.115402853657     1.007825032230

  Basis Set: AUG-CC-PVTZ
    Blend: AUG-CC-PVTZ
  Basis Set: (AUG-CC-PVTZ AUX)
    Blend: AUG-CC-PVTZ-JKFIT
	 Reference Energy          =    -328.7541637668170438 [Eh]
	 Singles Energy            =      -0.0000000000000000 [Eh]
	 Same-Spin Energy          =      -0.3478090247080403 [Eh]
	 Opposite-Spin Energy      =      -1.2498775227517616 [Eh]
	 Correlation Energy        =      -1.5976865474598019 [Eh]
	 Total Energy              =    -330.3518503142768736 [Eh]

	 ================> DF-SCS-MP2 Energies <==================
	-----------------------------------------------------------
	 SCS Same-Spin Scale       =       0.3333333333333333 [-]
	 SCS Opposite-Spin Scale   =       1.2000000000000000 [-]
	 SCS Same-Spin Energy      =      -0.1159363415693467 [Eh]
	 SCS Opposite-Spin Energy  =      -1.4998530273021138 [Eh]
	 SCS Correlation Energy    =      -1.6157893688714606 [Eh]
	 SCS Total Energy          =    -330.3699531356884904 [Eh]
	-----------------------------------------------------------

  Dipole Moment: [D]
     X:    -4.3527      Y:    -0.0005      Z:    -0.8709     Total:     4.4390

*** Psi4 exiting successfully. Buy a developer a beer!
