                               Psi4 1.4a3.dev225

  ==> Input File <==

--------------------------------------------------------------------------
#psi4
#
memory 32 gb

molecule  {
1 1
  N       -1.4549350    -0.0063160    -0.3913190
  C        0.7700580    -0.6819900     0.3309590
  C        0.8387740     0.6929140    -0.3473660
  C       -0.5772670    -1.2354140    -0.1320620
  C       -0.5771770     1.2100060    -0.1498930
  C        1.9243020    -1.6239510     0.0114420
  C        1.8934400     1.6361940     0.2164580
  C       -2.7287170     0.0116090     0.3933420
  H        0.7287260    -0.5174670     1.4168530
  H        1.0195210     0.5454130    -1.4226110
  H       -1.7088400    -0.0087310    -1.3861360
  H       -0.4895840    -1.7781730    -1.0771710
  H       -1.0806180    -1.8736500     0.5969550
  H       -0.7401010     1.5214000     0.8863980
  H       -0.8919120     2.0130950    -0.8209550
  H        2.8677010    -1.2131930     0.3775700
  H        1.7829480    -2.5983540     0.4871410
  H        2.0117000    -1.7770280    -1.0688530
  H        2.9001938     1.2297813     0.0984981
  H        1.8539810     2.6122500    -0.2745750
  H        1.7463830     1.7834510     1.2910380
  H       -2.4748400    -0.0372670     1.4518960
  H       -3.2625880     0.9370400     0.1753330
  H       -3.3330800    -0.8496000     0.1082720
units angstrom
no_reorient  #important for SAPT in psi4, default
symmetry c1  #important for SAPT in psi4, default
}

set PROPERTIES_ORIGIN ["COM"]
properties('MP2/aug-cc-pvtz', properties = ['dipole'])
--------------------------------------------------------------------------

    Molecular point group: c1
  Charge       = 1
  Multiplicity = 1
  Basis Set: AUG-CC-PVTZ
    Blend: AUG-CC-PVTZ
  Basis Set: (AUG-CC-PVTZ AUX)
    Blend: AUG-CC-PVTZ-JKFIT

    Orbital Energies [Eh]
    ---------------------

    Doubly Occupied:

       1A    -15.852246     2A    -11.449068     3A    -11.446237
       4A    -11.445830     5A    -11.391107     6A    -11.390234
       7A    -11.352697     8A    -11.352506     9A     -1.489517
      10A     -1.272087    11A     -1.193180    12A     -1.142639
      13A     -1.094735    14A     -1.065502    15A     -0.987373
      16A     -0.939823    17A     -0.903415    18A     -0.844866
      19A     -0.821957    20A     -0.786300    21A     -0.763238
      22A     -0.754926    23A     -0.735563    24A     -0.715468
      25A     -0.700246    26A     -0.697060    27A     -0.676987
      28A     -0.663433    29A     -0.646773    30A     -0.628691
      31A     -0.622426    32A     -0.603287

  @DF-RHF Final Energy:  -328.75409332282197

   => Energetics <=

    Nuclear Repulsion Energy =            424.4705547761751632
    One-Electron Energy =               -1273.5904644787879079
    Two-Electron Energy =                 520.3658163797907719
    Total Energy =                       -328.7540933228219728
  Basis Set: (AUG-CC-PVTZ AUX)
    Blend: AUG-CC-PVTZ-RI
    Molecular point group: c1

    Geometry (in Angstrom), charge = 1, multiplicity = 1:

       Center              X                  Y                   Z               Mass
    ------------   -----------------  -----------------  -----------------  -----------------
         N           -1.446911207452    -0.006428623742    -0.384669591631    14.003074004430
         C            0.778081792548    -0.682102623742     0.337608408369    12.000000000000
         C            0.846797792548     0.692801376258    -0.340716591631    12.000000000000
         C           -0.569243207452    -1.235526623742    -0.125412591631    12.000000000000
         C           -0.569153207452     1.209893376258    -0.143243591631    12.000000000000
         C            1.932325792548    -1.624063623742     0.018091408369    12.000000000000
         C            1.901463792548     1.636081376258     0.223107408369    12.000000000000
         C           -2.720693207452     0.011496376258     0.399991408369    12.000000000000
         H            0.736749792548    -0.517579623742     1.423502408369     1.007825032230
         H            1.027544792548     0.545300376258    -1.415961591631     1.007825032230
         H           -1.700816207452    -0.008843623742    -1.379486591631     1.007825032230
         H           -0.481560207452    -1.778285623742    -1.070521591631     1.007825032230
         H           -1.072594207452    -1.873762623742     0.603604408369     1.007825032230
         H           -0.732077207452     1.521287376258     0.893047408369     1.007825032230
         H           -0.883888207452     2.012982376258    -0.814305591631     1.007825032230
         H            2.875724792548    -1.213305623742     0.384219408369     1.007825032230
         H            1.790971792548    -2.598466623742     0.493790408369     1.007825032230
         H            2.019723792548    -1.777140623742    -1.062203591631     1.007825032230
         H            2.908217592548     1.229668676258     0.105147508369     1.007825032230
         H            1.862004792548     2.612137376258    -0.267925591631     1.007825032230
         H            1.754406792548     1.783338376258     1.297687408369     1.007825032230
         H           -2.466816207452    -0.037379623742     1.458545408369     1.007825032230
         H           -3.254564207452     0.936927376258     0.181982408369     1.007825032230
         H           -3.325056207452    -0.849712623742     0.114921408369     1.007825032230

  Basis Set: AUG-CC-PVTZ
    Blend: AUG-CC-PVTZ
  Basis Set: (AUG-CC-PVTZ AUX)
    Blend: AUG-CC-PVTZ-JKFIT
	 Reference Energy          =    -328.7540933228219728 [Eh]
	 Singles Energy            =      -0.0000000000000000 [Eh]
	 Same-Spin Energy          =      -0.3478012762032015 [Eh]
	 Opposite-Spin Energy      =      -1.2498485981261742 [Eh]
	 Correlation Energy        =      -1.5976498743293757 [Eh]
	 Total Energy              =    -330.3517431971513361 [Eh]

	 ================> DF-SCS-MP2 Energies <==================
	-----------------------------------------------------------
	 SCS Same-Spin Scale       =       0.3333333333333333 [-]
	 SCS Opposite-Spin Scale   =       1.2000000000000000 [-]
	 SCS Same-Spin Energy      =      -0.1159337587344005 [Eh]
	 SCS Opposite-Spin Energy  =      -1.4998183177514091 [Eh]
	 SCS Correlation Energy    =      -1.6157520764858095 [Eh]
	 SCS Total Energy          =    -330.3698453993077919 [Eh]
	-----------------------------------------------------------

  Dipole Moment: [D]
     X:    -4.3577      Y:    -0.0034      Z:    -0.8560     Total:     4.4409

*** Psi4 exiting successfully. Buy a developer a beer!
