                               Psi4 1.4a3.dev225

  ==> Input File <==

--------------------------------------------------------------------------
#psi4
#
memory 32 gb

molecule  {
1 1
  N       -1.4549350    -0.0063160    -0.3913190
  C        0.7700580    -0.6819900     0.3309590
  C        0.8387740     0.6929140    -0.3473660
  C       -0.5772670    -1.2354140    -0.1320620
  C       -0.5194021     1.2900656    -0.1340021
  C        1.9243020    -1.6239510     0.0114420
  C        1.8934400     1.6361940     0.2164580
  C       -2.7287170     0.0116090     0.3933420
  H        0.7287260    -0.5174670     1.4168530
  H        1.0195210     0.5454130    -1.4226110
  H       -1.7088400    -0.0087310    -1.3861360
  H       -0.4895840    -1.7781730    -1.0771710
  H       -1.0806180    -1.8736500     0.5969550
  H       -0.7401010     1.5214000     0.8863980
  H       -0.8919120     2.0130950    -0.8209550
  H        2.8677010    -1.2131930     0.3775700
  H        1.7829480    -2.5983540     0.4871410
  H        2.0117000    -1.7770280    -1.0688530
  H        2.8946680     1.2288240     0.0607940
  H        1.8539810     2.6122500    -0.2745750
  H        1.7463830     1.7834510     1.2910380
  H       -2.4748400    -0.0372670     1.4518960
  H       -3.2625880     0.9370400     0.1753330
  H       -3.3330800    -0.8496000     0.1082720
units angstrom
no_reorient  #important for SAPT in psi4, default
symmetry c1  #important for SAPT in psi4, default
}

set PROPERTIES_ORIGIN ["COM"]
properties('MP2/aug-cc-pvtz', properties = ['dipole'])
--------------------------------------------------------------------------

    Molecular point group: c1
  Charge       = 1
  Multiplicity = 1
  Basis Set: AUG-CC-PVTZ
    Blend: AUG-CC-PVTZ
  Basis Set: (AUG-CC-PVTZ AUX)
    Blend: AUG-CC-PVTZ-JKFIT

    Orbital Energies [Eh]
    ---------------------

    Doubly Occupied:

       1A    -15.842447     2A    -11.452236     3A    -11.444616
       4A    -11.442972     5A    -11.392219     6A    -11.391183
       7A    -11.354198     8A    -11.353074     9A     -1.469104
      10A     -1.273955    11A     -1.195681    12A     -1.136072
      13A     -1.092992    14A     -1.063019    15A     -0.990673
      16A     -0.937336    17A     -0.896937    18A     -0.834706
      19A     -0.817792    20A     -0.793089    21A     -0.768332
      22A     -0.752429    23A     -0.734290    24A     -0.710906
      25A     -0.709870    26A     -0.691848    27A     -0.677864
      28A     -0.656205    29A     -0.649509    30A     -0.629135
      31A     -0.625838    32A     -0.606612

  @DF-RHF Final Energy:  -328.74698478605194

   => Energetics <=

    Nuclear Repulsion Energy =            423.3803172212280970
    One-Electron Energy =               -1271.4803279193104117
    Two-Electron Energy =                 519.3530259120303754
    Total Energy =                       -328.7469847860519394
  Basis Set: (AUG-CC-PVTZ AUX)
    Blend: AUG-CC-PVTZ-RI
    Molecular point group: c1

    Geometry (in Angstrom), charge = 1, multiplicity = 1:

       Center              X                  Y                   Z               Mass
    ------------   -----------------  -----------------  -----------------  -----------------
         N           -1.452937144173    -0.014838024595    -0.386007486774    14.003074004430
         C            0.772055855827    -0.690512024595     0.336270513226    12.000000000000
         C            0.840771855827     0.684391975405    -0.342054486774    12.000000000000
         C           -0.575269144173    -1.243936024595    -0.126750486774    12.000000000000
         C           -0.517404244173     1.281543575405    -0.128690586774    12.000000000000
         C            1.926299855827    -1.632473024595     0.016753513226    12.000000000000
         C            1.895437855827     1.627671975405     0.221769513226    12.000000000000
         C           -2.726719144173     0.003086975405     0.398653513226    12.000000000000
         H            0.730723855827    -0.525989024595     1.422164513226     1.007825032230
         H            1.021518855827     0.536890975405    -1.417299486774     1.007825032230
         H           -1.706842144173    -0.017253024595    -1.380824486774     1.007825032230
         H           -0.487586144173    -1.786695024595    -1.071859486774     1.007825032230
         H           -1.078620144173    -1.882172024595     0.602266513226     1.007825032230
         H           -0.738103144173     1.512877975405     0.891709513226     1.007825032230
         H           -0.889914144173     2.004572975405    -0.815643486774     1.007825032230
         H            2.869698855827    -1.221715024595     0.382881513226     1.007825032230
         H            1.784945855827    -2.606876024595     0.492452513226     1.007825032230
         H            2.013697855827    -1.785550024595    -1.063541486774     1.007825032230
         H            2.896665855827     1.220301975405     0.066105513226     1.007825032230
         H            1.855978855827     2.603727975405    -0.269263486774     1.007825032230
         H            1.748380855827     1.774928975405     1.296349513226     1.007825032230
         H           -2.472842144173    -0.045789024595     1.457207513226     1.007825032230
         H           -3.260590144173     0.928517975405     0.180644513226     1.007825032230
         H           -3.331082144173    -0.858122024595     0.113583513226     1.007825032230

  Basis Set: AUG-CC-PVTZ
    Blend: AUG-CC-PVTZ
  Basis Set: (AUG-CC-PVTZ AUX)
    Blend: AUG-CC-PVTZ-JKFIT
	 Reference Energy          =    -328.7469847860519394 [Eh]
	 Singles Energy            =      -0.0000000000000000 [Eh]
	 Same-Spin Energy          =      -0.3477463534662379 [Eh]
	 Opposite-Spin Energy      =      -1.2505725877616001 [Eh]
	 Correlation Energy        =      -1.5983189412278380 [Eh]
	 Total Energy              =    -330.3453037272797701 [Eh]

	 ================> DF-SCS-MP2 Energies <==================
	-----------------------------------------------------------
	 SCS Same-Spin Scale       =       0.3333333333333333 [-]
	 SCS Opposite-Spin Scale   =       1.2000000000000000 [-]
	 SCS Same-Spin Energy      =      -0.1159154511554126 [Eh]
	 SCS Opposite-Spin Energy  =      -1.5006871053139201 [Eh]
	 SCS Correlation Energy    =      -1.6166025564693327 [Eh]
	 SCS Total Energy          =    -330.3635873425212708 [Eh]
	-----------------------------------------------------------

  Dipole Moment: [D]
     X:    -4.2126      Y:     0.1207      Z:    -0.8568     Total:     4.3005

*** Psi4 exiting successfully. Buy a developer a beer!
