                               Psi4 1.4a3.dev225

  ==> Input File <==

--------------------------------------------------------------------------
#psi4
#
memory 32 gb

molecule  {
1 1
  N       -1.4414760    -0.0194501    -0.3726256
  C        0.7700580    -0.6819900     0.3309590
  C        0.8387740     0.6929140    -0.3473660
  C       -0.5772670    -1.2354140    -0.1320620
  C       -0.5771770     1.2100060    -0.1498930
  C        1.9243020    -1.6239510     0.0114420
  C        1.8934400     1.6361940     0.2164580
  C       -2.7287170     0.0116090     0.3933420
  H        0.7287260    -0.5174670     1.4168530
  H        1.0195210     0.5454130    -1.4226110
  H       -1.7088400    -0.0087310    -1.3861360
  H       -0.4895840    -1.7781730    -1.0771710
  H       -1.0806180    -1.8736500     0.5969550
  H       -0.7401010     1.5214000     0.8863980
  H       -0.8919120     2.0130950    -0.8209550
  H        2.8677010    -1.2131930     0.3775700
  H        1.7829480    -2.5983540     0.4871410
  H        2.0117000    -1.7770280    -1.0688530
  H        2.8946680     1.2288240     0.0607940
  H        1.8539810     2.6122500    -0.2745750
  H        1.7463830     1.7834510     1.2910380
  H       -2.4748400    -0.0372670     1.4518960
  H       -3.2625880     0.9370400     0.1753330
  H       -3.3330800    -0.8496000     0.1082720
units angstrom
no_reorient  #important for SAPT in psi4, default
symmetry c1  #important for SAPT in psi4, default
}

set PROPERTIES_ORIGIN ["COM"]
properties('MP2/aug-cc-pvtz', properties = ['dipole'])
--------------------------------------------------------------------------

    Molecular point group: c1
  Charge       = 1
  Multiplicity = 1
  Basis Set: AUG-CC-PVTZ
    Blend: AUG-CC-PVTZ
  Basis Set: (AUG-CC-PVTZ AUX)
    Blend: AUG-CC-PVTZ-JKFIT

    Orbital Energies [Eh]
    ---------------------

    Doubly Occupied:

       1A    -15.854045     2A    -11.449625     3A    -11.445883
       4A    -11.444372     5A    -11.390648     6A    -11.389760
       7A    -11.352660     8A    -11.352044     9A     -1.490985
      10A     -1.271431    11A     -1.194437    12A     -1.143395
      13A     -1.095741    14A     -1.061978    15A     -0.985876
      16A     -0.940166    17A     -0.903587    18A     -0.845849
      19A     -0.822249    20A     -0.785864    21A     -0.763462
      22A     -0.753516    23A     -0.735128    24A     -0.718795
      25A     -0.701606    26A     -0.694237    27A     -0.676320
      28A     -0.662599    29A     -0.647077    30A     -0.628100
      31A     -0.622688    32A     -0.602786

  @DF-RHF Final Energy:  -328.75274753455852

   => Energetics <=

    Nuclear Repulsion Energy =            424.8068722860751336
    One-Electron Energy =               -1274.2654228906637854
    Two-Electron Energy =                 520.7058030700302425
    Total Energy =                       -328.7527475345584662
  Basis Set: (AUG-CC-PVTZ AUX)
    Blend: AUG-CC-PVTZ-RI
    Molecular point group: c1

    Geometry (in Angstrom), charge = 1, multiplicity = 1:

       Center              X                  Y                   Z               Mass
    ------------   -----------------  -----------------  -----------------  -----------------
         N           -1.435054775564    -0.017942769651    -0.367936844490    14.003074004430
         C            0.776479224436    -0.680482669651     0.335647755510    12.000000000000
         C            0.845195224436     0.694421330349    -0.342677244490    12.000000000000
         C           -0.570845775564    -1.233906669651    -0.127373244490    12.000000000000
         C           -0.570755775564     1.211513330349    -0.145204244490    12.000000000000
         C            1.930723224436    -1.622443669651     0.016130755510    12.000000000000
         C            1.899861224436     1.637701330349     0.221146755510    12.000000000000
         C           -2.722295775564     0.013116330349     0.398030755510    12.000000000000
         H            0.735147224436    -0.515959669651     1.421541755510     1.007825032230
         H            1.025942224436     0.546920330349    -1.417922244490     1.007825032230
         H           -1.702418775564    -0.007223669651    -1.381447244490     1.007825032230
         H           -0.483162775564    -1.776665669651    -1.072482244490     1.007825032230
         H           -1.074196775564    -1.872142669651     0.601643755510     1.007825032230
         H           -0.733679775564     1.522907330349     0.891086755510     1.007825032230
         H           -0.885490775564     2.014602330349    -0.816266244490     1.007825032230
         H            2.874122224436    -1.211685669651     0.382258755510     1.007825032230
         H            1.789369224436    -2.596846669651     0.491829755510     1.007825032230
         H            2.018121224436    -1.775520669651    -1.064164244490     1.007825032230
         H            2.901089224436     1.230331330349     0.065482755510     1.007825032230
         H            1.860402224436     2.613757330349    -0.269886244490     1.007825032230
         H            1.752804224436     1.784958330349     1.295726755510     1.007825032230
         H           -2.468418775564    -0.035759669651     1.456584755510     1.007825032230
         H           -3.256166775564     0.938547330349     0.180021755510     1.007825032230
         H           -3.326658775564    -0.848092669651     0.112960755510     1.007825032230

  Basis Set: AUG-CC-PVTZ
    Blend: AUG-CC-PVTZ
  Basis Set: (AUG-CC-PVTZ AUX)
    Blend: AUG-CC-PVTZ-JKFIT
	 Reference Energy          =    -328.7527475345585231 [Eh]
	 Singles Energy            =      -0.0000000000000000 [Eh]
	 Same-Spin Energy          =      -0.3480684802321887 [Eh]
	 Opposite-Spin Energy      =      -1.2502647598726129 [Eh]
	 Correlation Energy        =      -1.5983332401048016 [Eh]
	 Total Energy              =    -330.3510807746633304 [Eh]

	 ================> DF-SCS-MP2 Energies <==================
	-----------------------------------------------------------
	 SCS Same-Spin Scale       =       0.3333333333333333 [-]
	 SCS Opposite-Spin Scale   =       1.2000000000000000 [-]
	 SCS Same-Spin Energy      =      -0.1160228267440629 [Eh]
	 SCS Opposite-Spin Energy  =      -1.5003177118471354 [Eh]
	 SCS Correlation Energy    =      -1.6163405385911982 [Eh]
	 SCS Total Energy          =    -330.3690880731497259 [Eh]
	-----------------------------------------------------------

  Dipole Moment: [D]
     X:    -4.3933      Y:     0.0280      Z:    -0.8893     Total:     4.4825

*** Psi4 exiting successfully. Buy a developer a beer!
