                               Psi4 1.4a3.dev225

  ==> Input File <==

--------------------------------------------------------------------------
#psi4
#
memory 32 gb

molecule  {
1 1
  N       -1.4549350    -0.0063160    -0.3913190
  C        0.7700580    -0.6819900     0.3309590
  C        0.8387740     0.6929140    -0.3473660
  C       -0.5772670    -1.2354140    -0.1320620
  C       -0.5771770     1.2100060    -0.1498930
  C        1.9243020    -1.6239510     0.0114420
  C        1.8212714     1.6190568     0.3575833
  C       -2.7287170     0.0116090     0.3933420
  H        0.7287260    -0.5174670     1.4168530
  H        1.0195210     0.5454130    -1.4226110
  H       -1.7088400    -0.0087310    -1.3861360
  H       -0.4895840    -1.7781730    -1.0771710
  H       -1.0806180    -1.8736500     0.5969550
  H       -0.7401010     1.5214000     0.8863980
  H       -0.8919120     2.0130950    -0.8209550
  H        2.8677010    -1.2131930     0.3775700
  H        1.7829480    -2.5983540     0.4871410
  H        2.0117000    -1.7770280    -1.0688530
  H        2.8946680     1.2288240     0.0607940
  H        1.8539810     2.6122500    -0.2745750
  H        1.7463830     1.7834510     1.2910380
  H       -2.4748400    -0.0372670     1.4518960
  H       -3.2625880     0.9370400     0.1753330
  H       -3.3330800    -0.8496000     0.1082720
units angstrom
no_reorient  #important for SAPT in psi4, default
symmetry c1  #important for SAPT in psi4, default
}

set PROPERTIES_ORIGIN ["COM"]
properties('MP2/aug-cc-pvtz', properties = ['dipole'])
--------------------------------------------------------------------------

    Molecular point group: c1
  Charge       = 1
  Multiplicity = 1
  Basis Set: AUG-CC-PVTZ
    Blend: AUG-CC-PVTZ
  Basis Set: (AUG-CC-PVTZ AUX)
    Blend: AUG-CC-PVTZ-JKFIT

    Orbital Energies [Eh]
    ---------------------

    Doubly Occupied:

       1A    -15.851249     2A    -11.448726     3A    -11.445527
       4A    -11.444801     5A    -11.393199     6A    -11.389582
       7A    -11.356024     8A    -11.352154     9A     -1.489060
      10A     -1.273749    11A     -1.193827    12A     -1.142704
      13A     -1.094862    14A     -1.064908    15A     -0.990199
      16A     -0.943226    17A     -0.903700    18A     -0.844762
      19A     -0.824535    20A     -0.786411    21A     -0.762624
      22A     -0.754801    23A     -0.732105    24A     -0.728392
      25A     -0.711020    26A     -0.697049    27A     -0.671277
      28A     -0.660193    29A     -0.652848    30A     -0.627838
      31A     -0.613126    32A     -0.587939

  @DF-RHF Final Energy:  -328.72170921815683

   => Energetics <=

    Nuclear Repulsion Energy =            425.0720783729009327
    One-Electron Energy =               -1274.7227403724439228
    Two-Electron Energy =                 520.9289527813862151
    Total Energy =                       -328.7217092181567750
  Basis Set: (AUG-CC-PVTZ AUX)
    Blend: AUG-CC-PVTZ-RI
    Molecular point group: c1

    Geometry (in Angstrom), charge = 1, multiplicity = 1:

       Center              X                  Y                   Z               Mass
    ------------   -----------------  -----------------  -----------------  -----------------
         N           -1.439274254705    -0.004618281898    -0.399175238642    14.003074004430
         C            0.785718745295    -0.680292281898     0.323102761358    12.000000000000
         C            0.854434745295     0.694611718102    -0.355222238642    12.000000000000
         C           -0.561606254705    -1.233716281898    -0.139918238642    12.000000000000
         C           -0.561516254705     1.211703718102    -0.157749238642    12.000000000000
         C            1.939962745295    -1.622253281898     0.003585761358    12.000000000000
         C            1.836932145295     1.620754518102     0.349727061358    12.000000000000
         C           -2.713056254705     0.013306718102     0.385485761358    12.000000000000
         H            0.744386745295    -0.515769281898     1.408996761358     1.007825032230
         H            1.035181745295     0.547110718102    -1.430467238642     1.007825032230
         H           -1.693179254705    -0.007033281898    -1.393992238642     1.007825032230
         H           -0.473923254705    -1.776475281898    -1.085027238642     1.007825032230
         H           -1.064957254705    -1.871952281898     0.589098761358     1.007825032230
         H           -0.724440254705     1.523097718102     0.878541761358     1.007825032230
         H           -0.876251254705     2.014792718102    -0.828811238642     1.007825032230
         H            2.883361745295    -1.211495281898     0.369713761358     1.007825032230
         H            1.798608745295    -2.596656281898     0.479284761358     1.007825032230
         H            2.027360745295    -1.775330281898    -1.076709238642     1.007825032230
         H            2.910328745295     1.230521718102     0.052937761358     1.007825032230
         H            1.869641745295     2.613947718102    -0.282431238642     1.007825032230
         H            1.762043745295     1.785148718102     1.283181761358     1.007825032230
         H           -2.459179254705    -0.035569281898     1.444039761358     1.007825032230
         H           -3.246927254705     0.938737718102     0.167476761358     1.007825032230
         H           -3.317419254705    -0.847902281898     0.100415761358     1.007825032230

  Basis Set: AUG-CC-PVTZ
    Blend: AUG-CC-PVTZ
  Basis Set: (AUG-CC-PVTZ AUX)
    Blend: AUG-CC-PVTZ-JKFIT
	 Reference Energy          =    -328.7217092181568319 [Eh]
	 Singles Energy            =      -0.0000000000000000 [Eh]
	 Same-Spin Energy          =      -0.3484616684701265 [Eh]
	 Opposite-Spin Energy      =      -1.2516136795938899 [Eh]
	 Correlation Energy        =      -1.6000753480640164 [Eh]
	 Total Energy              =    -330.3217845662208560 [Eh]

	 ================> DF-SCS-MP2 Energies <==================
	-----------------------------------------------------------
	 SCS Same-Spin Scale       =       0.3333333333333333 [-]
	 SCS Opposite-Spin Scale   =       1.2000000000000000 [-]
	 SCS Same-Spin Energy      =      -0.1161538894900422 [Eh]
	 SCS Opposite-Spin Energy  =      -1.5019364155126678 [Eh]
	 SCS Correlation Energy    =      -1.6180903050027100 [Eh]
	 SCS Total Energy          =    -330.3397995231595701 [Eh]
	-----------------------------------------------------------

  Dipole Moment: [D]
     X:    -4.3238      Y:    -0.0063      Z:    -0.9261     Total:     4.4219

*** Psi4 exiting successfully. Buy a developer a beer!
