                               Psi4 1.4a3.dev225

  ==> Input File <==

--------------------------------------------------------------------------
#psi4
#
memory 32 gb

molecule  {
1 1
  N       -1.4549350    -0.0063160    -0.3913190
  C        0.7700580    -0.6819900     0.3309590
  C        0.8387740     0.6929140    -0.3473660
  C       -0.5772670    -1.2354140    -0.1320620
  C       -0.5771770     1.2100060    -0.1498930
  C        1.9243020    -1.6239510     0.0114420
  C        1.8934400     1.6361940     0.2164580
  C       -2.6397159     0.0113120     0.5222007
  H        0.7287260    -0.5174670     1.4168530
  H        1.0195210     0.5454130    -1.4226110
  H       -1.7088400    -0.0087310    -1.3861360
  H       -0.4895840    -1.7781730    -1.0771710
  H       -1.0806180    -1.8736500     0.5969550
  H       -0.7401010     1.5214000     0.8863980
  H       -0.8919120     2.0130950    -0.8209550
  H        2.8677010    -1.2131930     0.3775700
  H        1.7829480    -2.5983540     0.4871410
  H        2.0117000    -1.7770280    -1.0688530
  H        2.8946680     1.2288240     0.0607940
  H        1.8539810     2.6122500    -0.2745750
  H        1.7463830     1.7834510     1.2910380
  H       -2.4748400    -0.0372670     1.4518960
  H       -3.2625880     0.9370400     0.1753330
  H       -3.3330800    -0.8496000     0.1082720
units angstrom
no_reorient  #important for SAPT in psi4, default
symmetry c1  #important for SAPT in psi4, default
}

set PROPERTIES_ORIGIN ["COM"]
properties('MP2/aug-cc-pvtz', properties = ['dipole'])
--------------------------------------------------------------------------

    Molecular point group: c1
  Charge       = 1
  Multiplicity = 1
  Basis Set: AUG-CC-PVTZ
    Blend: AUG-CC-PVTZ
  Basis Set: (AUG-CC-PVTZ AUX)
    Blend: AUG-CC-PVTZ-JKFIT

    Orbital Energies [Eh]
    ---------------------

    Doubly Occupied:

       1A    -15.854106     2A    -11.452601     3A    -11.445599
       4A    -11.445193     5A    -11.390707     6A    -11.390065
       7A    -11.352745     8A    -11.352534     9A     -1.491124
      10A     -1.271038    11A     -1.193580    12A     -1.146124
      13A     -1.095144    14A     -1.071928    15A     -0.987088
      16A     -0.939342    17A     -0.903040    18A     -0.856042
      19A     -0.823733    20A     -0.793094    21A     -0.774924
      22A     -0.750256    23A     -0.736088    24A     -0.707875
      25A     -0.700067    26A     -0.683372    27A     -0.676129
      28A     -0.659294    29A     -0.647063    30A     -0.626357
      31A     -0.622079    32A     -0.603001

  @DF-RHF Final Energy:  -328.72022366011748

   => Energetics <=

    Nuclear Repulsion Energy =            425.2165412726722025
    One-Electron Energy =               -1274.9908657338451121
    Two-Electron Energy =                 521.0541008010553696
    Total Energy =                       -328.7202236601175400
  Basis Set: (AUG-CC-PVTZ AUX)
    Blend: AUG-CC-PVTZ-RI
    Molecular point group: c1

    Geometry (in Angstrom), charge = 1, multiplicity = 1:

       Center              X                  Y                   Z               Mass
    ------------   -----------------  -----------------  -----------------  -----------------
         N           -1.456220418205    -0.006388942156    -0.397885468858    14.003074004430
         C            0.768772581795    -0.682062942156     0.324392531142    12.000000000000
         C            0.837488581795     0.692841057844    -0.353932468858    12.000000000000
         C           -0.578552418205    -1.235486942156    -0.138628468858    12.000000000000
         C           -0.578462418205     1.209933057844    -0.156459468858    12.000000000000
         C            1.923016581795    -1.624023942156     0.004875531142    12.000000000000
         C            1.892154581795     1.636121057844     0.209891531142    12.000000000000
         C           -2.641001318205     0.011239057844     0.515634231142    12.000000000000
         H            0.727440581795    -0.517539942156     1.410286531142     1.007825032230
         H            1.018235581795     0.545340057844    -1.429177468858     1.007825032230
         H           -1.710125418205    -0.008803942156    -1.392702468858     1.007825032230
         H           -0.490869418205    -1.778245942156    -1.083737468858     1.007825032230
         H           -1.081903418205    -1.873722942156     0.590388531142     1.007825032230
         H           -0.741386418205     1.521327057844     0.879831531142     1.007825032230
         H           -0.893197418205     2.013022057844    -0.827521468858     1.007825032230
         H            2.866415581795    -1.213265942156     0.371003531142     1.007825032230
         H            1.781662581795    -2.598426942156     0.480574531142     1.007825032230
         H            2.010414581795    -1.777100942156    -1.075419468858     1.007825032230
         H            2.893382581795     1.228751057844     0.054227531142     1.007825032230
         H            1.852695581795     2.612177057844    -0.281141468858     1.007825032230
         H            1.745097581795     1.783378057844     1.284471531142     1.007825032230
         H           -2.476125418205    -0.037339942156     1.445329531142     1.007825032230
         H           -3.263873418205     0.936967057844     0.168766531142     1.007825032230
         H           -3.334365418205    -0.849672942156     0.101705531142     1.007825032230

  Basis Set: AUG-CC-PVTZ
    Blend: AUG-CC-PVTZ
  Basis Set: (AUG-CC-PVTZ AUX)
    Blend: AUG-CC-PVTZ-JKFIT
	 Reference Energy          =    -328.7202236601174832 [Eh]
	 Singles Energy            =      -0.0000000000000000 [Eh]
	 Same-Spin Energy          =      -0.3483738341635750 [Eh]
	 Opposite-Spin Energy      =      -1.2516490245237502 [Eh]
	 Correlation Energy        =      -1.6000228586873253 [Eh]
	 Total Energy              =    -330.3202465188048222 [Eh]

	 ================> DF-SCS-MP2 Energies <==================
	-----------------------------------------------------------
	 SCS Same-Spin Scale       =       0.3333333333333333 [-]
	 SCS Opposite-Spin Scale   =       1.2000000000000000 [-]
	 SCS Same-Spin Energy      =      -0.1161246113878583 [Eh]
	 SCS Opposite-Spin Energy  =      -1.5019788294285001 [Eh]
	 SCS Correlation Energy    =      -1.6181034408163584 [Eh]
	 SCS Total Energy          =    -330.3383271009338387 [Eh]
	-----------------------------------------------------------

  Dipole Moment: [D]
     X:    -4.3574      Y:     0.0035      Z:    -0.9058     Total:     4.4506

*** Psi4 exiting successfully. Buy a developer a beer!
