                               Psi4 1.4a3.dev225

  ==> Input File <==

--------------------------------------------------------------------------
#psi4
#
memory 32 gb

molecule  {
1 1
  N       -1.4549350    -0.0063160    -0.3913190
  C        0.7700580    -0.6819900     0.3309590
  C        0.8387740     0.6929140    -0.3473660
  C       -0.5772670    -1.2354140    -0.1320620
  C       -0.5771770     1.2100060    -0.1498930
  C        1.9243020    -1.6239510     0.0114420
  C        1.8934400     1.6361940     0.2164580
  C       -2.7287170     0.0116090     0.3933420
  H        0.7287260    -0.5174670     1.4168530
  H        1.0195210     0.5454130    -1.4226110
  H       -1.7088400    -0.0087310    -1.3861360
  H       -0.4895840    -1.7781730    -1.0771710
  H       -1.0806180    -1.8736500     0.5969550
  H       -0.7401010     1.5214000     0.8863980
  H       -0.8919120     2.0130950    -0.8209550
  H        2.8604994    -1.2128225     0.3952145
  H        1.7829480    -2.5983540     0.4871410
  H        2.0117000    -1.7770280    -1.0688530
  H        2.8946680     1.2288240     0.0607940
  H        1.8539810     2.6122500    -0.2745750
  H        1.7463830     1.7834510     1.2910380
  H       -2.4748400    -0.0372670     1.4518960
  H       -3.2625880     0.9370400     0.1753330
  H       -3.3330800    -0.8496000     0.1082720
units angstrom
no_reorient  #important for SAPT in psi4, default
symmetry c1  #important for SAPT in psi4, default
}

set PROPERTIES_ORIGIN ["COM"]
properties('MP2/aug-cc-pvtz', properties = ['dipole'])
--------------------------------------------------------------------------

    Molecular point group: c1
  Charge       = 1
  Multiplicity = 1
  Basis Set: AUG-CC-PVTZ
    Blend: AUG-CC-PVTZ
  Basis Set: (AUG-CC-PVTZ AUX)
    Blend: AUG-CC-PVTZ-JKFIT

    Orbital Energies [Eh]
    ---------------------

    Doubly Occupied:

       1A    -15.852085     2A    -11.448979     3A    -11.446114
       4A    -11.445646     5A    -11.390876     6A    -11.390069
       7A    -11.352791     8A    -11.352548     9A     -1.489386
      10A     -1.272079    11A     -1.193145    12A     -1.142623
      13A     -1.094831    14A     -1.065462    15A     -0.987168
      16A     -0.939463    17A     -0.903180    18A     -0.844763
      19A     -0.822017    20A     -0.786340    21A     -0.763220
      22A     -0.755021    23A     -0.735131    24A     -0.715512
      25A     -0.701027    26A     -0.697565    27A     -0.676078
      28A     -0.662940    29A     -0.647508    30A     -0.628387
      31A     -0.623066    32A     -0.602785

  @DF-RHF Final Energy:  -328.75416455398545

   => Energetics <=

    Nuclear Repulsion Energy =            424.4968678915946612
    One-Electron Energy =               -1273.6464547418436268
    Two-Electron Energy =                 520.3954222962635185
    Total Energy =                       -328.7541645539854471
  Basis Set: (AUG-CC-PVTZ AUX)
    Blend: AUG-CC-PVTZ-RI
    Molecular point group: c1

    Geometry (in Angstrom), charge = 1, multiplicity = 1:

       Center              X                  Y                   Z               Mass
    ------------   -----------------  -----------------  -----------------  -----------------
         N           -1.446798816439    -0.006423441926    -0.384492452643    14.003074004430
         C            0.778194183561    -0.682097441926     0.337785547357    12.000000000000
         C            0.846910183561     0.692806558074    -0.340539452643    12.000000000000
         C           -0.569130816439    -1.235521441926    -0.125235452643    12.000000000000
         C           -0.569040816439     1.209898558074    -0.143066452643    12.000000000000
         C            1.932438183561    -1.624058441926     0.018268547357    12.000000000000
         C            1.901576183561     1.636086558074     0.223284547357    12.000000000000
         C           -2.720580816439     0.011501558074     0.400168547357    12.000000000000
         H            0.736862183561    -0.517574441926     1.423679547357     1.007825032230
         H            1.027657183561     0.545305558074    -1.415784452643     1.007825032230
         H           -1.700703816439    -0.008838441926    -1.379309452643     1.007825032230
         H           -0.481447816439    -1.778280441926    -1.070344452643     1.007825032230
         H           -1.072481816439    -1.873757441926     0.603781547357     1.007825032230
         H           -0.731964816439     1.521292558074     0.893224547357     1.007825032230
         H           -0.883775816439     2.012987558074    -0.814128452643     1.007825032230
         H            2.868635583561    -1.212929941926     0.402041047357     1.007825032230
         H            1.791084183561    -2.598461441926     0.493967547357     1.007825032230
         H            2.019836183561    -1.777135441926    -1.062026452643     1.007825032230
         H            2.902804183561     1.228716558074     0.067620547357     1.007825032230
         H            1.862117183561     2.612142558074    -0.267748452643     1.007825032230
         H            1.754519183561     1.783343558074     1.297864547357     1.007825032230
         H           -2.466703816439    -0.037374441926     1.458722547357     1.007825032230
         H           -3.254451816439     0.936932558074     0.182159547357     1.007825032230
         H           -3.324943816439    -0.849707441926     0.115098547357     1.007825032230

  Basis Set: AUG-CC-PVTZ
    Blend: AUG-CC-PVTZ
  Basis Set: (AUG-CC-PVTZ AUX)
    Blend: AUG-CC-PVTZ-JKFIT
	 Reference Energy          =    -328.7541645539854471 [Eh]
	 Singles Energy            =      -0.0000000000000000 [Eh]
	 Same-Spin Energy          =      -0.3478099148917290 [Eh]
	 Opposite-Spin Energy      =      -1.2498789197854556 [Eh]
	 Correlation Energy        =      -1.5976888346771847 [Eh]
	 Total Energy              =    -330.3518533886626187 [Eh]

	 ================> DF-SCS-MP2 Energies <==================
	-----------------------------------------------------------
	 SCS Same-Spin Scale       =       0.3333333333333333 [-]
	 SCS Opposite-Spin Scale   =       1.2000000000000000 [-]
	 SCS Same-Spin Energy      =      -0.1159366382972430 [Eh]
	 SCS Opposite-Spin Energy  =      -1.4998547037425467 [Eh]
	 SCS Correlation Energy    =      -1.6157913420397898 [Eh]
	 SCS Total Energy          =    -330.3699558960252602 [Eh]
	-----------------------------------------------------------

  Dipole Moment: [D]
     X:    -4.3566      Y:    -0.0013      Z:    -0.8618     Total:     4.4410

*** Psi4 exiting successfully. Buy a developer a beer!
