                               Psi4 1.4a3.dev225

  ==> Input File <==

--------------------------------------------------------------------------
#psi4
#
memory 32 gb

molecule  {
1 1
  N       -1.4549350    -0.0063160    -0.3913190
  C        0.7700580    -0.6819900     0.3309590
  C        0.8387740     0.6929140    -0.3473660
  C       -0.5772670    -1.2354140    -0.1320620
  C       -0.5771770     1.2100060    -0.1498930
  C        1.9243020    -1.6239510     0.0114420
  C        1.8934400     1.6361940     0.2164580
  C       -2.7287170     0.0116090     0.3933420
  H        0.7287260    -0.5174670     1.4168530
  H        1.0195210     0.5454130    -1.4226110
  H       -1.7088400    -0.0087310    -1.3861360
  H       -0.4895840    -1.7781730    -1.0771710
  H       -1.0806180    -1.8736500     0.5969550
  H       -0.7549899     1.5498570     0.9811003
  H       -0.8919120     2.0130950    -0.8209550
  H        2.8677010    -1.2131930     0.3775700
  H        1.7829480    -2.5983540     0.4871410
  H        2.0117000    -1.7770280    -1.0688530
  H        2.8946680     1.2288240     0.0607940
  H        1.8539810     2.6122500    -0.2745750
  H        1.7463830     1.7834510     1.2910380
  H       -2.4748400    -0.0372670     1.4518960
  H       -3.2625880     0.9370400     0.1753330
  H       -3.3330800    -0.8496000     0.1082720
units angstrom
no_reorient  #important for SAPT in psi4, default
symmetry c1  #important for SAPT in psi4, default
}

set PROPERTIES_ORIGIN ["COM"]
properties('MP2/aug-cc-pvtz', properties = ['dipole'])
--------------------------------------------------------------------------

    Molecular point group: c1
  Charge       = 1
  Multiplicity = 1
  Basis Set: AUG-CC-PVTZ
    Blend: AUG-CC-PVTZ
  Basis Set: (AUG-CC-PVTZ AUX)
    Blend: AUG-CC-PVTZ-JKFIT

    Orbital Energies [Eh]
    ---------------------

    Doubly Occupied:

       1A    -15.852926     2A    -11.456111     3A    -11.448800
       4A    -11.446358     5A    -11.391603     6A    -11.390256
       7A    -11.352772     8A    -11.352520     9A     -1.489407
      10A     -1.271797    11A     -1.190629    12A     -1.142523
      13A     -1.093295    14A     -1.063499    15A     -0.982931
      16A     -0.939538    17A     -0.903474    18A     -0.842754
      19A     -0.821764    20A     -0.779371    21A     -0.762277
      22A     -0.754880    23A     -0.735321    24A     -0.715509
      25A     -0.699027    26A     -0.688839    27A     -0.676383
      28A     -0.663126    29A     -0.645692    30A     -0.628576
      31A     -0.622882    32A     -0.603176

  @DF-RHF Final Energy:  -328.74723471887796

   => Energetics <=

    Nuclear Repulsion Energy =            424.0172492047922219
    One-Electron Energy =               -1272.7129381984211705
    Two-Electron Energy =                 519.9484542747509295
    Total Energy =                       -328.7472347188779622
  Basis Set: (AUG-CC-PVTZ AUX)
    Blend: AUG-CC-PVTZ-RI
    Molecular point group: c1

    Geometry (in Angstrom), charge = 1, multiplicity = 1:

       Center              X                  Y                   Z               Mass
    ------------   -----------------  -----------------  -----------------  -----------------
         N           -1.446730932706    -0.006671463531    -0.385172921879    14.003074004430
         C            0.778262067294    -0.682345463531     0.337105078121    12.000000000000
         C            0.846978067294     0.692558536469    -0.341219921879    12.000000000000
         C           -0.569062932706    -1.235769463531    -0.125915921879    12.000000000000
         C           -0.568972932706     1.209650536469    -0.143746921879    12.000000000000
         C            1.932506067294    -1.624306463531     0.017588078121    12.000000000000
         C            1.901644067294     1.635838536469     0.222604078121    12.000000000000
         C           -2.720512932706     0.011253536469     0.399488078121    12.000000000000
         H            0.736930067294    -0.517822463531     1.422999078121     1.007825032230
         H            1.027725067294     0.545057536469    -1.416464921879     1.007825032230
         H           -1.700635932706    -0.009086463531    -1.379989921879     1.007825032230
         H           -0.481379932706    -1.778528463531    -1.071024921879     1.007825032230
         H           -1.072413932706    -1.874005463531     0.603101078121     1.007825032230
         H           -0.746785832706     1.549501536469     0.987246378121     1.007825032230
         H           -0.883707932706     2.012739536469    -0.814808921879     1.007825032230
         H            2.875905067294    -1.213548463531     0.383716078121     1.007825032230
         H            1.791152067294    -2.598709463531     0.493287078121     1.007825032230
         H            2.019904067294    -1.777383463531    -1.062706921879     1.007825032230
         H            2.902872067294     1.228468536469     0.066940078121     1.007825032230
         H            1.862185067294     2.611894536469    -0.268428921879     1.007825032230
         H            1.754587067294     1.783095536469     1.297184078121     1.007825032230
         H           -2.466635932706    -0.037622463531     1.458042078121     1.007825032230
         H           -3.254383932706     0.936684536469     0.181479078121     1.007825032230
         H           -3.324875932706    -0.849955463531     0.114418078121     1.007825032230

  Basis Set: AUG-CC-PVTZ
    Blend: AUG-CC-PVTZ
  Basis Set: (AUG-CC-PVTZ AUX)
    Blend: AUG-CC-PVTZ-JKFIT
	 Reference Energy          =    -328.7472347188779622 [Eh]
	 Singles Energy            =      -0.0000000000000000 [Eh]
	 Same-Spin Energy          =      -0.3480697125119256 [Eh]
	 Opposite-Spin Energy      =      -1.2508345582166855 [Eh]
	 Correlation Energy        =      -1.5989042707286112 [Eh]
	 Total Energy              =    -330.3461389896065725 [Eh]

	 ================> DF-SCS-MP2 Energies <==================
	-----------------------------------------------------------
	 SCS Same-Spin Scale       =       0.3333333333333333 [-]
	 SCS Opposite-Spin Scale   =       1.2000000000000000 [-]
	 SCS Same-Spin Energy      =      -0.1160232375039752 [Eh]
	 SCS Opposite-Spin Energy  =      -1.5010014698600227 [Eh]
	 SCS Correlation Energy    =      -1.6170247073639978 [Eh]
	 SCS Total Energy          =    -330.3642594262419721 [Eh]
	-----------------------------------------------------------

  Dipole Moment: [D]
     X:    -4.3437      Y:    -0.0027      Z:    -0.8800     Total:     4.4320

*** Psi4 exiting successfully. Buy a developer a beer!
