                               Psi4 1.4a3.dev225

  ==> Input File <==

--------------------------------------------------------------------------
#psi4
#
memory 32 gb

molecule  {
1 1
  N       -1.4549350    -0.0063160    -0.3913190
  C        0.7700580    -0.6819900     0.3309590
  C        0.8387740     0.6929140    -0.3473660
  C       -0.5772670    -1.2354140    -0.1320620
  C       -0.5771770     1.2100060    -0.1498930
  C        1.9243020    -1.6239510     0.0114420
  C        1.8934400     1.6361940     0.2164580
  C       -2.7287170     0.0116090     0.3933420
  H        0.7287260    -0.5174670     1.4168530
  H        1.0195210     0.5454130    -1.4226110
  H       -1.7088400    -0.0087310    -1.3861360
  H       -0.4895840    -1.7781730    -1.0771710
  H       -1.0806180    -1.8736500     0.5969550
  H       -0.7252121     1.4929430     0.7916957
  H       -0.8919120     2.0130950    -0.8209550
  H        2.8677010    -1.2131930     0.3775700
  H        1.7829480    -2.5983540     0.4871410
  H        2.0117000    -1.7770280    -1.0688530
  H        2.8946680     1.2288240     0.0607940
  H        1.8539810     2.6122500    -0.2745750
  H        1.7463830     1.7834510     1.2910380
  H       -2.4748400    -0.0372670     1.4518960
  H       -3.2625880     0.9370400     0.1753330
  H       -3.3330800    -0.8496000     0.1082720
units angstrom
no_reorient  #important for SAPT in psi4, default
symmetry c1  #important for SAPT in psi4, default
}

set PROPERTIES_ORIGIN ["COM"]
properties('MP2/aug-cc-pvtz', properties = ['dipole'])
--------------------------------------------------------------------------

    Molecular point group: c1
  Charge       = 1
  Multiplicity = 1
  Basis Set: AUG-CC-PVTZ
    Blend: AUG-CC-PVTZ
  Basis Set: (AUG-CC-PVTZ AUX)
    Blend: AUG-CC-PVTZ-JKFIT

    Orbital Energies [Eh]
    ---------------------

    Doubly Occupied:

       1A    -15.851557     2A    -11.449216     3A    -11.446105
       4A    -11.434447     5A    -11.390577     6A    -11.389942
       7A    -11.352841     8A    -11.352503     9A     -1.489779
      10A     -1.272717    11A     -1.197173    12A     -1.142847
      13A     -1.097406    14A     -1.067991    15A     -0.992625
      16A     -0.939640    17A     -0.903357    18A     -0.848060
      19A     -0.822524    20A     -0.794601    21A     -0.763888
      22A     -0.754923    23A     -0.735348    24A     -0.715634
      25A     -0.708573    26A     -0.698144    27A     -0.676325
      28A     -0.662861    29A     -0.648413    30A     -0.628224
      31A     -0.622982    32A     -0.602840

  @DF-RHF Final Energy:  -328.74858729071184

   => Energetics <=

    Nuclear Repulsion Energy =            425.0078034624684165
    One-Electron Energy =               -1274.6046567410044190
    Two-Electron Energy =                 520.8482659878241066
    Total Energy =                       -328.7485872907118392
  Basis Set: (AUG-CC-PVTZ AUX)
    Blend: AUG-CC-PVTZ-RI
    Molecular point group: c1

    Geometry (in Angstrom), charge = 1, multiplicity = 1:

       Center              X                  Y                   Z               Mass
    ------------   -----------------  -----------------  -----------------  -----------------
         N           -1.446993889562    -0.006168876822    -0.383500359160    14.003074004430
         C            0.777999110438    -0.681842876822     0.338777640840    12.000000000000
         C            0.846715110438     0.693061123178    -0.339547359160    12.000000000000
         C           -0.569325889562    -1.235266876822    -0.124243359160    12.000000000000
         C           -0.569235889562     1.210153123178    -0.142074359160    12.000000000000
         C            1.932243110438    -1.623803876822     0.019260640840    12.000000000000
         C            1.901381110438     1.636341123178     0.224276640840    12.000000000000
         C           -2.720775889562     0.011756123178     0.401160640840    12.000000000000
         H            0.736667110438    -0.517319876822     1.424671640840     1.007825032230
         H            1.027462110438     0.545560123178    -1.414792359160     1.007825032230
         H           -1.700898889562    -0.008583876822    -1.378317359160     1.007825032230
         H           -0.481642889562    -1.778025876822    -1.069352359160     1.007825032230
         H           -1.072676889562    -1.873502876822     0.604773640840     1.007825032230
         H           -0.717270989562     1.493090123178     0.799514340840     1.007825032230
         H           -0.883970889562     2.013242123178    -0.813136359160     1.007825032230
         H            2.875642110438    -1.213045876822     0.385388640840     1.007825032230
         H            1.790889110438    -2.598206876822     0.494959640840     1.007825032230
         H            2.019641110438    -1.776880876822    -1.061034359160     1.007825032230
         H            2.902609110438     1.228971123178     0.068612640840     1.007825032230
         H            1.861922110438     2.612397123178    -0.266756359160     1.007825032230
         H            1.754324110438     1.783598123178     1.298856640840     1.007825032230
         H           -2.466898889562    -0.037119876822     1.459714640840     1.007825032230
         H           -3.254646889562     0.937187123178     0.183151640840     1.007825032230
         H           -3.325138889562    -0.849452876822     0.116090640840     1.007825032230

  Basis Set: AUG-CC-PVTZ
    Blend: AUG-CC-PVTZ
  Basis Set: (AUG-CC-PVTZ AUX)
    Blend: AUG-CC-PVTZ-JKFIT
	 Reference Energy          =    -328.7485872907118392 [Eh]
	 Singles Energy            =      -0.0000000000000000 [Eh]
	 Same-Spin Energy          =      -0.3475895049518335 [Eh]
	 Opposite-Spin Energy      =      -1.2491407850618839 [Eh]
	 Correlation Energy        =      -1.5967302900137175 [Eh]
	 Total Energy              =    -330.3453175807255775 [Eh]

	 ================> DF-SCS-MP2 Energies <==================
	-----------------------------------------------------------
	 SCS Same-Spin Scale       =       0.3333333333333333 [-]
	 SCS Opposite-Spin Scale   =       1.2000000000000000 [-]
	 SCS Same-Spin Energy      =      -0.1158631683172778 [Eh]
	 SCS Opposite-Spin Energy  =      -1.4989689420742607 [Eh]
	 SCS Correlation Energy    =      -1.6148321103915384 [Eh]
	 SCS Total Energy          =    -330.3634194011033856 [Eh]
	-----------------------------------------------------------

  Dipole Moment: [D]
     X:    -4.3669      Y:     0.0008      Z:    -0.8589     Total:     4.4506

*** Psi4 exiting successfully. Buy a developer a beer!
