                               Psi4 1.4a3.dev225

  ==> Input File <==

--------------------------------------------------------------------------
#psi4
#
memory 32 gb

molecule  {
1 1
  N       -1.4549350    -0.0063160    -0.3913190
  C        0.7700580    -0.6819900     0.3309590
  C        0.8477292     0.8720933    -0.4357662
  C       -0.5772670    -1.2354140    -0.1320620
  C       -0.5771770     1.2100060    -0.1498930
  C        1.9243020    -1.6239510     0.0114420
  C        1.8934400     1.6361940     0.2164580
  C       -2.7287170     0.0116090     0.3933420
  H        0.7287260    -0.5174670     1.4168530
  H        1.0195210     0.5454130    -1.4226110
  H       -1.7088400    -0.0087310    -1.3861360
  H       -0.4895840    -1.7781730    -1.0771710
  H       -1.0806180    -1.8736500     0.5969550
  H       -0.7401010     1.5214000     0.8863980
  H       -0.8919120     2.0130950    -0.8209550
  H        2.8677010    -1.2131930     0.3775700
  H        1.7829480    -2.5983540     0.4871410
  H        2.0117000    -1.7770280    -1.0688530
  H        2.8946680     1.2288240     0.0607940
  H        1.8539810     2.6122500    -0.2745750
  H        1.7463830     1.7834510     1.2910380
  H       -2.4748400    -0.0372670     1.4518960
  H       -3.2625880     0.9370400     0.1753330
  H       -3.3330800    -0.8496000     0.1082720
units angstrom
no_reorient  #important for SAPT in psi4, default
symmetry c1  #important for SAPT in psi4, default
}

set PROPERTIES_ORIGIN ["COM"]
properties('MP2/aug-cc-pvtz', properties = ['dipole'])
--------------------------------------------------------------------------

    Molecular point group: c1
  Charge       = 1
  Multiplicity = 1
  Basis Set: AUG-CC-PVTZ
    Blend: AUG-CC-PVTZ
  Basis Set: (AUG-CC-PVTZ AUX)
    Blend: AUG-CC-PVTZ-JKFIT

    Orbital Energies [Eh]
    ---------------------

    Doubly Occupied:

       1A    -15.854187     2A    -11.450110     3A    -11.447352
       4A    -11.444969     5A    -11.394390     6A    -11.392804
       7A    -11.351092     8A    -11.350577     9A     -1.488556
      10A     -1.261278    11A     -1.199668    12A     -1.143828
      13A     -1.102107    14A     -1.065258    15A     -0.973371
      16A     -0.942905    17A     -0.903325    18A     -0.845198
      19A     -0.826603    20A     -0.785969    21A     -0.758970
      22A     -0.751365    23A     -0.738238    24A     -0.716826
      25A     -0.710355    26A     -0.695019    27A     -0.682749
      28A     -0.673943    29A     -0.652069    30A     -0.636307
      31A     -0.630279    32A     -0.543391

  @DF-RHF Final Energy:  -328.72323910931550

   => Energetics <=

    Nuclear Repulsion Energy =            422.5807724658072857
    One-Electron Energy =               -1269.7819077762651432
    Two-Electron Energy =                 518.4778962011423573
    Total Energy =                       -328.7232391093155002
  Basis Set: (AUG-CC-PVTZ AUX)
    Blend: AUG-CC-PVTZ-RI
    Molecular point group: c1

    Geometry (in Angstrom), charge = 1, multiplicity = 1:

       Center              X                  Y                   Z               Mass
    ------------   -----------------  -----------------  -----------------  -----------------
         N           -1.447804004270    -0.025259950319    -0.375041814987    14.003074004430
         C            0.777188995730    -0.700933950319     0.347236185013    12.000000000000
         C            0.854860195730     0.853149349681    -0.419489014987    12.000000000000
         C           -0.570136004270    -1.254357950319    -0.115784814987    12.000000000000
         C           -0.570046004270     1.191062049681    -0.133615814987    12.000000000000
         C            1.931432995730    -1.642894950319     0.027719185013    12.000000000000
         C            1.900570995730     1.617250049681     0.232735185013    12.000000000000
         C           -2.721586004270    -0.007334950319     0.409619185013    12.000000000000
         H            0.735856995730    -0.536410950319     1.433130185013     1.007825032230
         H            1.026651995730     0.526469049681    -1.406333814987     1.007825032230
         H           -1.701709004270    -0.027674950319    -1.369858814987     1.007825032230
         H           -0.482453004270    -1.797116950319    -1.060893814987     1.007825032230
         H           -1.073487004270    -1.892593950319     0.613232185013     1.007825032230
         H           -0.732970004270     1.502456049681     0.902675185013     1.007825032230
         H           -0.884781004270     1.994151049681    -0.804677814987     1.007825032230
         H            2.874831995730    -1.232136950319     0.393847185013     1.007825032230
         H            1.790078995730    -2.617297950319     0.503418185013     1.007825032230
         H            2.018830995730    -1.795971950319    -1.052575814987     1.007825032230
         H            2.901798995730     1.209880049681     0.077071185013     1.007825032230
         H            1.861111995730     2.593306049681    -0.258297814987     1.007825032230
         H            1.753513995730     1.764507049681     1.307315185013     1.007825032230
         H           -2.467709004270    -0.056210950319     1.468173185013     1.007825032230
         H           -3.255457004270     0.918096049681     0.191610185013     1.007825032230
         H           -3.325949004270    -0.868543950319     0.124549185013     1.007825032230

  Basis Set: AUG-CC-PVTZ
    Blend: AUG-CC-PVTZ
  Basis Set: (AUG-CC-PVTZ AUX)
    Blend: AUG-CC-PVTZ-JKFIT
	 Reference Energy          =    -328.7232391093155002 [Eh]
	 Singles Energy            =      -0.0000000000000000 [Eh]
	 Same-Spin Energy          =      -0.3491426881729041 [Eh]
	 Opposite-Spin Energy      =      -1.2525927077371817 [Eh]
	 Correlation Energy        =      -1.6017353959100857 [Eh]
	 Total Energy              =    -330.3249745052256117 [Eh]

	 ================> DF-SCS-MP2 Energies <==================
	-----------------------------------------------------------
	 SCS Same-Spin Scale       =       0.3333333333333333 [-]
	 SCS Opposite-Spin Scale   =       1.2000000000000000 [-]
	 SCS Same-Spin Energy      =      -0.1163808960576347 [Eh]
	 SCS Opposite-Spin Energy  =      -1.5031112492846179 [Eh]
	 SCS Correlation Energy    =      -1.6194921453422526 [Eh]
	 SCS Total Energy          =    -330.3427312546577355 [Eh]
	-----------------------------------------------------------

  Dipole Moment: [D]
     X:    -4.3260      Y:    -0.0541      Z:    -0.8285     Total:     4.4049

*** Psi4 exiting successfully. Buy a developer a beer!
