                               Psi4 1.4a3.dev225

  ==> Input File <==

--------------------------------------------------------------------------
#psi4
#
memory 32 gb

molecule  {
1 1
  N       -1.4549350    -0.0063160    -0.3913190
  C        0.7700580    -0.6819900     0.3309590
  C        0.8387740     0.6929140    -0.3473660
  C       -0.5772670    -1.2354140    -0.1320620
  C       -0.5771770     1.2100060    -0.1498930
  C        1.9243020    -1.6239510     0.0114420
  C        1.8934400     1.6361940     0.2164580
  C       -2.7287170     0.0116090     0.3933420
  H        0.7287260    -0.5174670     1.4168530
  H        1.0195210     0.5454130    -1.4226110
  H       -1.7088400    -0.0087310    -1.3861360
  H       -0.4895840    -1.7781730    -1.0771710
  H       -1.0806180    -1.8736500     0.5969550
  H       -0.7401010     1.5214000     0.8863980
  H       -0.8919120     2.0130950    -0.8209550
  H        2.8677010    -1.2131930     0.3775700
  H        1.7829480    -2.5983540     0.4871410
  H        2.0117000    -1.7770280    -1.0688530
  H        2.9130042     1.2213636     0.0579432
  H        1.8539810     2.6122500    -0.2745750
  H        1.7463830     1.7834510     1.2910380
  H       -2.4748400    -0.0372670     1.4518960
  H       -3.2625880     0.9370400     0.1753330
  H       -3.3330800    -0.8496000     0.1082720
units angstrom
no_reorient  #important for SAPT in psi4, default
symmetry c1  #important for SAPT in psi4, default
}

set PROPERTIES_ORIGIN ["COM"]
properties('MP2/aug-cc-pvtz', properties = ['dipole'])
--------------------------------------------------------------------------

    Molecular point group: c1
  Charge       = 1
  Multiplicity = 1
  Basis Set: AUG-CC-PVTZ
    Blend: AUG-CC-PVTZ
  Basis Set: (AUG-CC-PVTZ AUX)
    Blend: AUG-CC-PVTZ-JKFIT

    Orbital Energies [Eh]
    ---------------------

    Doubly Occupied:

       1A    -15.852220     2A    -11.449060     3A    -11.446228
       4A    -11.445787     5A    -11.391036     6A    -11.390202
       7A    -11.355085     8A    -11.352428     9A     -1.489501
      10A     -1.272047    11A     -1.193126    12A     -1.142483
      13A     -1.094106    14A     -1.065050    15A     -0.986894
      16A     -0.939362    17A     -0.903345    18A     -0.844481
      19A     -0.822061    20A     -0.786374    21A     -0.763016
      22A     -0.754916    23A     -0.734641    24A     -0.715478
      25A     -0.700961    26A     -0.697184    27A     -0.675628
      28A     -0.662016    29A     -0.647411    30A     -0.627515
      31A     -0.622657    32A     -0.602934

  @DF-RHF Final Energy:  -328.75367053420257

   => Energetics <=

    Nuclear Repulsion Energy =            424.4022081897432486
    One-Electron Energy =               -1273.4612927678517735
    Two-Electron Energy =                 520.3054140439058983
    Total Energy =                       -328.7536705342025698
  Basis Set: (AUG-CC-PVTZ AUX)
    Blend: AUG-CC-PVTZ-RI
    Molecular point group: c1

    Geometry (in Angstrom), charge = 1, multiplicity = 1:

       Center              X                  Y                   Z               Mass
    ------------   -----------------  -----------------  -----------------  -----------------
         N           -1.447024331407    -0.006354290113    -0.384311466148    14.003074004430
         C            0.777968668593    -0.682028290113     0.337966533852    12.000000000000
         C            0.846684668593     0.692875709887    -0.340358466148    12.000000000000
         C           -0.569356331407    -1.235452290113    -0.125054466148    12.000000000000
         C           -0.569266331407     1.209967709887    -0.142885466148    12.000000000000
         C            1.932212668593    -1.623989290113     0.018449533852    12.000000000000
         C            1.901350668593     1.636155709887     0.223465533852    12.000000000000
         C           -2.720806331407     0.011570709887     0.400349533852    12.000000000000
         H            0.736636668593    -0.517505290113     1.423860533852     1.007825032230
         H            1.027431668593     0.545374709887    -1.415603466148     1.007825032230
         H           -1.700929331407    -0.008769290113    -1.379128466148     1.007825032230
         H           -0.481673331407    -1.778211290113    -1.070163466148     1.007825032230
         H           -1.072707331407    -1.873688290113     0.603962533852     1.007825032230
         H           -0.732190331407     1.521361709887     0.893405533852     1.007825032230
         H           -0.884001331407     2.013056709887    -0.813947466148     1.007825032230
         H            2.875611668593    -1.213231290113     0.384577533852     1.007825032230
         H            1.790858668593    -2.598392290113     0.494148533852     1.007825032230
         H            2.019610668593    -1.777066290113    -1.061845466148     1.007825032230
         H            2.920914868593     1.221325309887     0.064950733852     1.007825032230
         H            1.861891668593     2.612211709887    -0.267567466148     1.007825032230
         H            1.754293668593     1.783412709887     1.298045533852     1.007825032230
         H           -2.466929331407    -0.037305290113     1.458903533852     1.007825032230
         H           -3.254677331407     0.937001709887     0.182340533852     1.007825032230
         H           -3.325169331407    -0.849638290113     0.115279533852     1.007825032230

  Basis Set: AUG-CC-PVTZ
    Blend: AUG-CC-PVTZ
  Basis Set: (AUG-CC-PVTZ AUX)
    Blend: AUG-CC-PVTZ-JKFIT
	 Reference Energy          =    -328.7536705342025698 [Eh]
	 Singles Energy            =      -0.0000000000000000 [Eh]
	 Same-Spin Energy          =      -0.3478151977479308 [Eh]
	 Opposite-Spin Energy      =      -1.2500084005287282 [Eh]
	 Correlation Energy        =      -1.5978235982766591 [Eh]
	 Total Energy              =    -330.3514941324792176 [Eh]

	 ================> DF-SCS-MP2 Energies <==================
	-----------------------------------------------------------
	 SCS Same-Spin Scale       =       0.3333333333333333 [-]
	 SCS Opposite-Spin Scale   =       1.2000000000000000 [-]
	 SCS Same-Spin Energy      =      -0.1159383992493103 [Eh]
	 SCS Opposite-Spin Energy  =      -1.5000100806344738 [Eh]
	 SCS Correlation Energy    =      -1.6159484798837842 [Eh]
	 SCS Total Energy          =    -330.3696190140863678 [Eh]
	-----------------------------------------------------------

  Dipole Moment: [D]
     X:    -4.3628      Y:     0.0021      Z:    -0.8663     Total:     4.4480

*** Psi4 exiting successfully. Buy a developer a beer!
