                               Psi4 1.4a3.dev225

  ==> Input File <==

--------------------------------------------------------------------------
#psi4
#
memory 32 gb

molecule  {
1 1
  N       -1.4549350    -0.0063160    -0.3913190
  C        0.7700580    -0.6819900     0.3309590
  C        0.8387740     0.6929140    -0.3473660
  C       -0.5772670    -1.2354140    -0.1320620
  C       -0.5771770     1.2100060    -0.1498930
  C        1.9243020    -1.6239510     0.0114420
  C        1.8934400     1.6361940     0.2164580
  C       -2.7287170     0.0116090     0.3933420
  H        0.7287260    -0.5174670     1.4168530
  H        1.0195210     0.5454130    -1.4226110
  H       -1.7088400    -0.0087310    -1.3861360
  H       -0.4895840    -1.7781730    -1.0771710
  H       -1.0806180    -1.8736500     0.5969550
  H       -0.7326565     1.5071715     0.8390469
  H       -0.8919120     2.0130950    -0.8209550
  H        2.8677010    -1.2131930     0.3775700
  H        1.7829480    -2.5983540     0.4871410
  H        2.0117000    -1.7770280    -1.0688530
  H        2.8946680     1.2288240     0.0607940
  H        1.8539810     2.6122500    -0.2745750
  H        1.7463830     1.7834510     1.2910380
  H       -2.4748400    -0.0372670     1.4518960
  H       -3.2625880     0.9370400     0.1753330
  H       -3.3330800    -0.8496000     0.1082720
units angstrom
no_reorient  #important for SAPT in psi4, default
symmetry c1  #important for SAPT in psi4, default
}

set PROPERTIES_ORIGIN ["COM"]
properties('MP2/aug-cc-pvtz', properties = ['dipole'])
--------------------------------------------------------------------------

    Molecular point group: c1
  Charge       = 1
  Multiplicity = 1
  Basis Set: AUG-CC-PVTZ
    Blend: AUG-CC-PVTZ
  Basis Set: (AUG-CC-PVTZ AUX)
    Blend: AUG-CC-PVTZ-JKFIT

    Orbital Energies [Eh]
    ---------------------

    Doubly Occupied:

       1A    -15.851823     2A    -11.449112     3A    -11.446142
       4A    -11.440129     5A    -11.390694     6A    -11.390073
       7A    -11.352819     8A    -11.352493     9A     -1.489561
      10A     -1.272346    11A     -1.194940    12A     -1.142720
      13A     -1.095933    14A     -1.066680    15A     -0.989789
      16A     -0.939594    17A     -0.903313    18A     -0.846217
      19A     -0.822242    20A     -0.790406    21A     -0.763567
      22A     -0.754906    23A     -0.735320    24A     -0.715454
      25A     -0.704893    26A     -0.697982    27A     -0.676324
      28A     -0.662910    29A     -0.647968    30A     -0.628296
      31A     -0.622977    32A     -0.602896

  @DF-RHF Final Energy:  -328.75344287665723

   => Energetics <=

    Nuclear Repulsion Energy =            424.7404533068102523
    One-Electron Energy =               -1274.1067606705632898
    Two-Electron Energy =                 520.6128644870958624
    Total Energy =                       -328.7534428766572319
  Basis Set: (AUG-CC-PVTZ AUX)
    Blend: AUG-CC-PVTZ-RI
    Molecular point group: c1

    Geometry (in Angstrom), charge = 1, multiplicity = 1:

       Center              X                  Y                   Z               Mass
    ------------   -----------------  -----------------  -----------------  -----------------
         N           -1.446928150789    -0.006294523499    -0.383918500282    14.003074004430
         C            0.778064849211    -0.681968523499     0.338359499718    12.000000000000
         C            0.846780849211     0.692935476501    -0.339965500282    12.000000000000
         C           -0.569260150789    -1.235392523499    -0.124661500282    12.000000000000
         C           -0.569170150789     1.210027476501    -0.142492500282    12.000000000000
         C            1.932308849211    -1.623929523499     0.018842499718    12.000000000000
         C            1.901446849211     1.636215476501     0.223858499718    12.000000000000
         C           -2.720710150789     0.011630476501     0.400742499718    12.000000000000
         H            0.736732849211    -0.517445523499     1.424253499718     1.007825032230
         H            1.027527849211     0.545434476501    -1.415210500282     1.007825032230
         H           -1.700833150789    -0.008709523499    -1.378735500282     1.007825032230
         H           -0.481577150789    -1.778151523499    -1.069770500282     1.007825032230
         H           -1.072611150789    -1.873628523499     0.604355499718     1.007825032230
         H           -0.724649650789     1.507192976501     0.846447399718     1.007825032230
         H           -0.883905150789     2.013116476501    -0.813554500282     1.007825032230
         H            2.875707849211    -1.213171523499     0.384970499718     1.007825032230
         H            1.790954849211    -2.598332523499     0.494541499718     1.007825032230
         H            2.019706849211    -1.777006523499    -1.061452500282     1.007825032230
         H            2.902674849211     1.228845476501     0.068194499718     1.007825032230
         H            1.861987849211     2.612271476501    -0.267174500282     1.007825032230
         H            1.754389849211     1.783472476501     1.298438499718     1.007825032230
         H           -2.466833150789    -0.037245523499     1.459296499718     1.007825032230
         H           -3.254581150789     0.937061476501     0.182733499718     1.007825032230
         H           -3.325073150789    -0.849578523499     0.115672499718     1.007825032230

  Basis Set: AUG-CC-PVTZ
    Blend: AUG-CC-PVTZ
  Basis Set: (AUG-CC-PVTZ AUX)
    Blend: AUG-CC-PVTZ-JKFIT
	 Reference Energy          =    -328.7534428766572319 [Eh]
	 Singles Energy            =      -0.0000000000000000 [Eh]
	 Same-Spin Energy          =      -0.3476877913861143 [Eh]
	 Opposite-Spin Energy      =      -1.2494643188260202 [Eh]
	 Correlation Energy        =      -1.5971521102121344 [Eh]
	 Total Energy              =    -330.3505949868693392 [Eh]

	 ================> DF-SCS-MP2 Energies <==================
	-----------------------------------------------------------
	 SCS Same-Spin Scale       =       0.3333333333333333 [-]
	 SCS Opposite-Spin Scale   =       1.2000000000000000 [-]
	 SCS Same-Spin Energy      =      -0.1158959304620381 [Eh]
	 SCS Opposite-Spin Energy  =      -1.4993571825912242 [Eh]
	 SCS Correlation Energy    =      -1.6152531130532624 [Eh]
	 SCS Total Energy          =    -330.3686959897104884 [Eh]
	-----------------------------------------------------------

  Dipole Moment: [D]
     X:    -4.3618      Y:     0.0015      Z:    -0.8620     Total:     4.4461

*** Psi4 exiting successfully. Buy a developer a beer!
