                               Psi4 1.4a3.dev225

  ==> Input File <==

--------------------------------------------------------------------------
#psi4
#
memory 32 gb

molecule  {
1 1
  N       -1.4549350    -0.0063160    -0.3913190
  C        0.7700580    -0.6819900     0.3309590
  C        0.8387740     0.6929140    -0.3473660
  C       -0.5772670    -1.2354140    -0.1320620
  C       -0.5771770     1.2100060    -0.1498930
  C        1.9243020    -1.6239510     0.0114420
  C        1.8934400     1.6361940     0.2164580
  C       -2.7287170     0.0116090     0.3933420
  H        0.7268457    -0.5099823     1.4662538
  H        1.0195210     0.5454130    -1.4226110
  H       -1.7088400    -0.0087310    -1.3861360
  H       -0.4895840    -1.7781730    -1.0771710
  H       -1.0806180    -1.8736500     0.5969550
  H       -0.7401010     1.5214000     0.8863980
  H       -0.8919120     2.0130950    -0.8209550
  H        2.8677010    -1.2131930     0.3775700
  H        1.7829480    -2.5983540     0.4871410
  H        2.0117000    -1.7770280    -1.0688530
  H        2.8946680     1.2288240     0.0607940
  H        1.8539810     2.6122500    -0.2745750
  H        1.7463830     1.7834510     1.2910380
  H       -2.4748400    -0.0372670     1.4518960
  H       -3.2625880     0.9370400     0.1753330
  H       -3.3330800    -0.8496000     0.1082720
units angstrom
no_reorient  #important for SAPT in psi4, default
symmetry c1  #important for SAPT in psi4, default
}

set PROPERTIES_ORIGIN ["COM"]
properties('MP2/aug-cc-pvtz', properties = ['dipole'])
--------------------------------------------------------------------------

    Molecular point group: c1
  Charge       = 1
  Multiplicity = 1
  Basis Set: AUG-CC-PVTZ
    Blend: AUG-CC-PVTZ
  Basis Set: (AUG-CC-PVTZ AUX)
    Blend: AUG-CC-PVTZ-JKFIT

    Orbital Energies [Eh]
    ---------------------

    Doubly Occupied:

       1A    -15.852234     2A    -11.448983     3A    -11.446628
       4A    -11.445660     5A    -11.396199     6A    -11.391200
       7A    -11.352987     8A    -11.352765     9A     -1.489483
      10A     -1.271150    11A     -1.192865    12A     -1.142494
      13A     -1.094774    14A     -1.065537    15A     -0.986880
      16A     -0.935974    17A     -0.902253    18A     -0.843584
      19A     -0.821818    20A     -0.785424    21A     -0.763154
      22A     -0.754483    23A     -0.735395    24A     -0.715034
      25A     -0.701007    26A     -0.697087    27A     -0.676450
      28A     -0.663271    29A     -0.646251    30A     -0.628239
      31A     -0.619552    32A     -0.602784

  @DF-RHF Final Energy:  -328.75206199457460

   => Energetics <=

    Nuclear Repulsion Energy =            424.2354957495339249
    One-Electron Energy =               -1273.1319099251236366
    Two-Electron Energy =                 520.1443521810150514
    Total Energy =                       -328.7520619945746603
  Basis Set: (AUG-CC-PVTZ AUX)
    Blend: AUG-CC-PVTZ-RI
    Molecular point group: c1

    Geometry (in Angstrom), charge = 1, multiplicity = 1:

       Center              X                  Y                   Z               Mass
    ------------   -----------------  -----------------  -----------------  -----------------
         N           -1.446845806892    -0.006486264823    -0.384772880909    14.003074004430
         C            0.778147193108    -0.682160264823     0.337505119091    12.000000000000
         C            0.846863193108     0.692743735177    -0.340819880909    12.000000000000
         C           -0.569177806892    -1.235584264823    -0.125515880909    12.000000000000
         C           -0.569087806892     1.209835735177    -0.143346880909    12.000000000000
         C            1.932391193108    -1.624121264823     0.017988119091    12.000000000000
         C            1.901529193108     1.636023735177     0.223004119091    12.000000000000
         C           -2.720627806892     0.011438735177     0.399888119091    12.000000000000
         H            0.734934893108    -0.510152564823     1.472799919091     1.007825032230
         H            1.027610193108     0.545242735177    -1.416064880909     1.007825032230
         H           -1.700750806892    -0.008901264823    -1.379589880909     1.007825032230
         H           -0.481494806892    -1.778343264823    -1.070624880909     1.007825032230
         H           -1.072528806892    -1.873820264823     0.603501119091     1.007825032230
         H           -0.732011806892     1.521229735177     0.892944119091     1.007825032230
         H           -0.883822806892     2.012924735177    -0.814408880909     1.007825032230
         H            2.875790193108    -1.213363264823     0.384116119091     1.007825032230
         H            1.791037193108    -2.598524264823     0.493687119091     1.007825032230
         H            2.019789193108    -1.777198264823    -1.062306880909     1.007825032230
         H            2.902757193108     1.228653735177     0.067340119091     1.007825032230
         H            1.862070193108     2.612079735177    -0.268028880909     1.007825032230
         H            1.754472193108     1.783280735177     1.297584119091     1.007825032230
         H           -2.466750806892    -0.037437264823     1.458442119091     1.007825032230
         H           -3.254498806892     0.936869735177     0.181879119091     1.007825032230
         H           -3.324990806892    -0.849770264823     0.114818119091     1.007825032230

  Basis Set: AUG-CC-PVTZ
    Blend: AUG-CC-PVTZ
  Basis Set: (AUG-CC-PVTZ AUX)
    Blend: AUG-CC-PVTZ-JKFIT
	 Reference Energy          =    -328.7520619945746034 [Eh]
	 Singles Energy            =      -0.0000000000000000 [Eh]
	 Same-Spin Energy          =      -0.3478726976567665 [Eh]
	 Opposite-Spin Energy      =      -1.2502728675795505 [Eh]
	 Correlation Energy        =      -1.5981455652363170 [Eh]
	 Total Energy              =    -330.3502075598109400 [Eh]

	 ================> DF-SCS-MP2 Energies <==================
	-----------------------------------------------------------
	 SCS Same-Spin Scale       =       0.3333333333333333 [-]
	 SCS Opposite-Spin Scale   =       1.2000000000000000 [-]
	 SCS Same-Spin Energy      =      -0.1159575658855888 [Eh]
	 SCS Opposite-Spin Energy  =      -1.5003274410954606 [Eh]
	 SCS Correlation Energy    =      -1.6162850069810495 [Eh]
	 SCS Total Energy          =    -330.3683470015556622 [Eh]
	-----------------------------------------------------------

  Dipole Moment: [D]
     X:    -4.3498      Y:    -0.0068      Z:    -0.8890     Total:     4.4397

*** Psi4 exiting successfully. Buy a developer a beer!
