                               Psi4 1.4a3.dev225

  ==> Input File <==

--------------------------------------------------------------------------
#psi4
#
memory 32 gb

molecule  {
1 1
  N       -1.4549350    -0.0063160    -0.3913190
  C        0.7700580    -0.6819900     0.3309590
  C        0.8387740     0.6929140    -0.3473660
  C       -0.5772670    -1.2354140    -0.1320620
  C       -0.5771770     1.2100060    -0.1498930
  C        1.9243020    -1.6239510     0.0114420
  C        1.8934400     1.6361940     0.2164580
  C       -2.8037623     0.0117096     0.2558864
  H        0.7287260    -0.5174670     1.4168530
  H        1.0195210     0.5454130    -1.4226110
  H       -1.7088400    -0.0087310    -1.3861360
  H       -0.4895840    -1.7781730    -1.0771710
  H       -1.0806180    -1.8736500     0.5969550
  H       -0.7401010     1.5214000     0.8863980
  H       -0.8919120     2.0130950    -0.8209550
  H        2.8677010    -1.2131930     0.3775700
  H        1.7829480    -2.5983540     0.4871410
  H        2.0117000    -1.7770280    -1.0688530
  H        2.8946680     1.2288240     0.0607940
  H        1.8539810     2.6122500    -0.2745750
  H        1.7463830     1.7834510     1.2910380
  H       -2.4748400    -0.0372670     1.4518960
  H       -3.2625880     0.9370400     0.1753330
  H       -3.3330800    -0.8496000     0.1082720
units angstrom
no_reorient  #important for SAPT in psi4, default
symmetry c1  #important for SAPT in psi4, default
}

set PROPERTIES_ORIGIN ["COM"]
properties('MP2/aug-cc-pvtz', properties = ['dipole'])
--------------------------------------------------------------------------

    Molecular point group: c1
  Charge       = 1
  Multiplicity = 1
  Basis Set: AUG-CC-PVTZ
    Blend: AUG-CC-PVTZ
  Basis Set: (AUG-CC-PVTZ AUX)
    Blend: AUG-CC-PVTZ-JKFIT

    Orbital Energies [Eh]
    ---------------------

    Doubly Occupied:

       1A    -15.853244     2A    -11.452540     3A    -11.447528
       4A    -11.447045     5A    -11.391738     6A    -11.390830
       7A    -11.353292     8A    -11.352897     9A     -1.490056
      10A     -1.274077    11A     -1.193587    12A     -1.145201
      13A     -1.095196    14A     -1.063215    15A     -0.987764
      16A     -0.941178    17A     -0.902724    18A     -0.851035
      19A     -0.833507    20A     -0.790789    21A     -0.776792
      22A     -0.746878    23A     -0.727154    24A     -0.705958
      25A     -0.702342    26A     -0.680896    27A     -0.676780
      28A     -0.663736    29A     -0.647918    30A     -0.629717
      31A     -0.623296    32A     -0.603443

  @DF-RHF Final Energy:  -328.72952684510415

   => Energetics <=

    Nuclear Repulsion Energy =            423.8952572661604563
    One-Electron Energy =               -1272.3648644134405004
    Two-Electron Energy =                 519.7400803021758975
    Total Energy =                       -328.7295268451041466
  Basis Set: (AUG-CC-PVTZ AUX)
    Blend: AUG-CC-PVTZ-RI
    Molecular point group: c1

    Geometry (in Angstrom), charge = 1, multiplicity = 1:

       Center              X                  Y                   Z               Mass
    ------------   -----------------  -----------------  -----------------  -----------------
         N           -1.438971784523    -0.006430747748    -0.369883892444    14.003074004430
         C            0.786021215477    -0.682104747748     0.352394107556    12.000000000000
         C            0.854737215477     0.692799252252    -0.325930892444    12.000000000000
         C           -0.561303784523    -1.235528747748    -0.110626892444    12.000000000000
         C           -0.561213784523     1.209891252252    -0.128457892444    12.000000000000
         C            1.940265215477    -1.624065747748     0.032877107556    12.000000000000
         C            1.909403215477     1.636079252252     0.237893107556    12.000000000000
         C           -2.787799084523     0.011594852252     0.277321507556    12.000000000000
         H            0.744689215477    -0.517581747748     1.438288107556     1.007825032230
         H            1.035484215477     0.545298252252    -1.401175892444     1.007825032230
         H           -1.692876784523    -0.008845747748    -1.364700892444     1.007825032230
         H           -0.473620784523    -1.778287747748    -1.055735892444     1.007825032230
         H           -1.064654784523    -1.873764747748     0.618390107556     1.007825032230
         H           -0.724137784523     1.521285252252     0.907833107556     1.007825032230
         H           -0.875948784523     2.012980252252    -0.799519892444     1.007825032230
         H            2.883664215477    -1.213307747748     0.399005107556     1.007825032230
         H            1.798911215477    -2.598468747748     0.508576107556     1.007825032230
         H            2.027663215477    -1.777142747748    -1.047417892444     1.007825032230
         H            2.910631215477     1.228709252252     0.082229107556     1.007825032230
         H            1.869944215477     2.612135252252    -0.253139892444     1.007825032230
         H            1.762346215477     1.783336252252     1.312473107556     1.007825032230
         H           -2.458876784523    -0.037381747748     1.473331107556     1.007825032230
         H           -3.246624784523     0.936925252252     0.196768107556     1.007825032230
         H           -3.317116784523    -0.849714747748     0.129707107556     1.007825032230

  Basis Set: AUG-CC-PVTZ
    Blend: AUG-CC-PVTZ
  Basis Set: (AUG-CC-PVTZ AUX)
    Blend: AUG-CC-PVTZ-JKFIT
	 Reference Energy          =    -328.7295268451041466 [Eh]
	 Singles Energy            =      -0.0000000000000000 [Eh]
	 Same-Spin Energy          =      -0.3482794651699110 [Eh]
	 Opposite-Spin Energy      =      -1.2509856335821774 [Eh]
	 Correlation Energy        =      -1.5992650987520884 [Eh]
	 Total Energy              =    -330.3287919438562312 [Eh]

	 ================> DF-SCS-MP2 Energies <==================
	-----------------------------------------------------------
	 SCS Same-Spin Scale       =       0.3333333333333333 [-]
	 SCS Opposite-Spin Scale   =       1.2000000000000000 [-]
	 SCS Same-Spin Energy      =      -0.1160931550566370 [Eh]
	 SCS Opposite-Spin Energy  =      -1.5011827602986128 [Eh]
	 SCS Correlation Energy    =      -1.6172759153552498 [Eh]
	 SCS Total Energy          =    -330.3468027604594113 [Eh]
	-----------------------------------------------------------

  Dipole Moment: [D]
     X:    -4.2911      Y:     0.0043      Z:    -0.8932     Total:     4.3830

*** Psi4 exiting successfully. Buy a developer a beer!
