                               Psi4 1.4a3.dev225

  ==> Input File <==

--------------------------------------------------------------------------
#psi4
#
memory 32 gb

molecule  {
1 1
  N       -1.4549350    -0.0063160    -0.3913190
  C        0.7700580    -0.6819900     0.3309590
  C        0.8342964     0.6033244    -0.3031659
  C       -0.5772670    -1.2354140    -0.1320620
  C       -0.5771770     1.2100060    -0.1498930
  C        1.9243020    -1.6239510     0.0114420
  C        1.8934400     1.6361940     0.2164580
  C       -2.7287170     0.0116090     0.3933420
  H        0.7287260    -0.5174670     1.4168530
  H        1.0195210     0.5454130    -1.4226110
  H       -1.7088400    -0.0087310    -1.3861360
  H       -0.4895840    -1.7781730    -1.0771710
  H       -1.0806180    -1.8736500     0.5969550
  H       -0.7401010     1.5214000     0.8863980
  H       -0.8919120     2.0130950    -0.8209550
  H        2.8677010    -1.2131930     0.3775700
  H        1.7829480    -2.5983540     0.4871410
  H        2.0117000    -1.7770280    -1.0688530
  H        2.8946680     1.2288240     0.0607940
  H        1.8539810     2.6122500    -0.2745750
  H        1.7463830     1.7834510     1.2910380
  H       -2.4748400    -0.0372670     1.4518960
  H       -3.2625880     0.9370400     0.1753330
  H       -3.3330800    -0.8496000     0.1082720
units angstrom
no_reorient  #important for SAPT in psi4, default
symmetry c1  #important for SAPT in psi4, default
}

set PROPERTIES_ORIGIN ["COM"]
properties('MP2/aug-cc-pvtz', properties = ['dipole'])
--------------------------------------------------------------------------

    Molecular point group: c1
  Charge       = 1
  Multiplicity = 1
  Basis Set: AUG-CC-PVTZ
    Blend: AUG-CC-PVTZ
  Basis Set: (AUG-CC-PVTZ AUX)
    Blend: AUG-CC-PVTZ-JKFIT

    Orbital Energies [Eh]
    ---------------------

    Doubly Occupied:

       1A    -15.851023     2A    -11.448335     3A    -11.446931
       4A    -11.446101     5A    -11.392436     6A    -11.386682
       7A    -11.355047     8A    -11.353787     9A     -1.489998
      10A     -1.283252    11A     -1.188518    12A     -1.142886
      13A     -1.091200    14A     -1.065536    15A     -0.999027
      16A     -0.935698    17A     -0.903312    18A     -0.845207
      19A     -0.819729    20A     -0.786460    21A     -0.766223
      22A     -0.757357    23A     -0.735366    24A     -0.714926
      25A     -0.701723    26A     -0.695997    27A     -0.676344
      28A     -0.664518    29A     -0.645888    30A     -0.626851
      31A     -0.615838    32A     -0.608365

  @DF-RHF Final Energy:  -328.74311910359756

   => Energetics <=

    Nuclear Repulsion Energy =            425.4606668992017831
    One-Electron Energy =               -1275.5264524652091040
    Two-Electron Energy =                 521.3226664624097566
    Total Energy =                       -328.7431191035975644
  Basis Set: (AUG-CC-PVTZ AUX)
    Blend: AUG-CC-PVTZ-RI
    Molecular point group: c1

    Geometry (in Angstrom), charge = 1, multiplicity = 1:

       Center              X                  Y                   Z               Mass
    ------------   -----------------  -----------------  -----------------  -----------------
         N           -1.446391614565     0.002999714638    -0.388984053286    14.003074004430
         C            0.778601385435    -0.672674285362     0.333293946714    12.000000000000
         C            0.842839785435     0.612640114638    -0.300830953286    12.000000000000
         C           -0.568723614565    -1.226098285362    -0.129727053286    12.000000000000
         C           -0.568633614565     1.219321714638    -0.147558053286    12.000000000000
         C            1.932845385435    -1.614635285362     0.013776946714    12.000000000000
         C            1.901983385435     1.645509714638     0.218792946714    12.000000000000
         C           -2.720173614565     0.020924714638     0.395676946714    12.000000000000
         H            0.737269385435    -0.508151285362     1.419187946714     1.007825032230
         H            1.028064385435     0.554728714638    -1.420276053286     1.007825032230
         H           -1.700296614565     0.000584714638    -1.383801053286     1.007825032230
         H           -0.481040614565    -1.768857285362    -1.074836053286     1.007825032230
         H           -1.072074614565    -1.864334285362     0.599289946714     1.007825032230
         H           -0.731557614565     1.530715714638     0.888732946714     1.007825032230
         H           -0.883368614565     2.022410714638    -0.818620053286     1.007825032230
         H            2.876244385435    -1.203877285362     0.379904946714     1.007825032230
         H            1.791491385435    -2.589038285362     0.489475946714     1.007825032230
         H            2.020243385435    -1.767712285362    -1.066518053286     1.007825032230
         H            2.903211385435     1.238139714638     0.063128946714     1.007825032230
         H            1.862524385435     2.621565714638    -0.272240053286     1.007825032230
         H            1.754926385435     1.792766714638     1.293372946714     1.007825032230
         H           -2.466296614565    -0.027951285362     1.454230946714     1.007825032230
         H           -3.254044614565     0.946355714638     0.177667946714     1.007825032230
         H           -3.324536614565    -0.840284285362     0.110606946714     1.007825032230

  Basis Set: AUG-CC-PVTZ
    Blend: AUG-CC-PVTZ
  Basis Set: (AUG-CC-PVTZ AUX)
    Blend: AUG-CC-PVTZ-JKFIT
	 Reference Energy          =    -328.7431191035975644 [Eh]
	 Singles Energy            =      -0.0000000000000000 [Eh]
	 Same-Spin Energy          =      -0.3485050586978345 [Eh]
	 Opposite-Spin Energy      =      -1.2509191770248624 [Eh]
	 Correlation Energy        =      -1.5994242357226969 [Eh]
	 Total Energy              =    -330.3425433393202866 [Eh]

	 ================> DF-SCS-MP2 Energies <==================
	-----------------------------------------------------------
	 SCS Same-Spin Scale       =       0.3333333333333333 [-]
	 SCS Opposite-Spin Scale   =       1.2000000000000000 [-]
	 SCS Same-Spin Energy      =      -0.1161683528992782 [Eh]
	 SCS Opposite-Spin Energy  =      -1.5011030124298348 [Eh]
	 SCS Correlation Energy    =      -1.6172713653291129 [Eh]
	 SCS Total Energy          =    -330.3603904689266528 [Eh]
	-----------------------------------------------------------

  Dipole Moment: [D]
     X:    -4.3520      Y:     0.0260      Z:    -0.8750     Total:     4.4392

*** Psi4 exiting successfully. Buy a developer a beer!
