                               Psi4 1.4a3.dev225

  ==> Input File <==

--------------------------------------------------------------------------
#psi4
#
memory 32 gb

molecule  {
1 1
  N       -1.4549350    -0.0063160    -0.3913190
  C        0.7700580    -0.6819900     0.3309590
  C        0.8387740     0.6929140    -0.3473660
  C       -0.5772670    -1.2354140    -0.1320620
  C       -0.5771770     1.2100060    -0.1498930
  C        1.9243020    -1.6239510     0.0114420
  C        1.8934400     1.6361940     0.2164580
  C       -2.7287170     0.0116090     0.3933420
  H        0.7287260    -0.5174670     1.4168530
  H        1.0195210     0.5454130    -1.4226110
  H       -1.7088400    -0.0087310    -1.3861360
  H       -0.4895840    -1.7781730    -1.0771710
  H       -1.0806180    -1.8736500     0.5969550
  H       -0.7401010     1.5214000     0.8863980
  H       -0.8919120     2.0130950    -0.8209550
  H        2.8746153    -1.2136887     0.3598139
  H        1.7829480    -2.5983540     0.4871410
  H        2.0117000    -1.7770280    -1.0688530
  H        2.8946680     1.2288240     0.0607940
  H        1.8539810     2.6122500    -0.2745750
  H        1.7463830     1.7834510     1.2910380
  H       -2.4748400    -0.0372670     1.4518960
  H       -3.2625880     0.9370400     0.1753330
  H       -3.3330800    -0.8496000     0.1082720
units angstrom
no_reorient  #important for SAPT in psi4, default
symmetry c1  #important for SAPT in psi4, default
}

set PROPERTIES_ORIGIN ["COM"]
properties('MP2/aug-cc-pvtz', properties = ['dipole'])
--------------------------------------------------------------------------

    Molecular point group: c1
  Charge       = 1
  Multiplicity = 1
  Basis Set: AUG-CC-PVTZ
    Blend: AUG-CC-PVTZ
  Basis Set: (AUG-CC-PVTZ AUX)
    Blend: AUG-CC-PVTZ-JKFIT

    Orbital Energies [Eh]
    ---------------------

    Doubly Occupied:

       1A    -15.852198     2A    -11.449035     3A    -11.446277
       4A    -11.445689     5A    -11.390954     6A    -11.390250
       7A    -11.352807     8A    -11.352436     9A     -1.489476
      10A     -1.272083    11A     -1.193165    12A     -1.142631
      13A     -1.094768    14A     -1.065503    15A     -0.987260
      16A     -0.939659    17A     -0.903460    18A     -0.844748
      19A     -0.822033    20A     -0.786340    21A     -0.763186
      22A     -0.754768    23A     -0.735488    24A     -0.715311
      25A     -0.701204    26A     -0.696979    27A     -0.676579
      28A     -0.662994    29A     -0.647291    30A     -0.628354
      31A     -0.622822    32A     -0.603150

  @DF-RHF Final Energy:  -328.75418670954235

   => Energetics <=

    Nuclear Repulsion Energy =            424.4781136654457327
    One-Electron Energy =               -1273.6068084299845395
    Two-Electron Energy =                 520.3745080549964541
    Total Energy =                       -328.7541867095422958
  Basis Set: (AUG-CC-PVTZ AUX)
    Blend: AUG-CC-PVTZ-RI
    Molecular point group: c1

    Geometry (in Angstrom), charge = 1, multiplicity = 1:

       Center              X                  Y                   Z               Mass
    ------------   -----------------  -----------------  -----------------  -----------------
         N           -1.446923468787    -0.006415792831    -0.384179842898    14.003074004430
         C            0.778069531213    -0.682089792831     0.338098157102    12.000000000000
         C            0.846785531213     0.692814207169    -0.340226842898    12.000000000000
         C           -0.569255468787    -1.235513792831    -0.124922842898    12.000000000000
         C           -0.569165468787     1.209906207169    -0.142753842898    12.000000000000
         C            1.932313531213    -1.624050792831     0.018581157102    12.000000000000
         C            1.901451531213     1.636094207169     0.223597157102    12.000000000000
         C           -2.720705468787     0.011509207169     0.400481157102    12.000000000000
         H            0.736737531213    -0.517566792831     1.423992157102     1.007825032230
         H            1.027532531213     0.545313207169    -1.415471842898     1.007825032230
         H           -1.700828468787    -0.008830792831    -1.378996842898     1.007825032230
         H           -0.481572468787    -1.778272792831    -1.070031842898     1.007825032230
         H           -1.072606468787    -1.873749792831     0.604094157102     1.007825032230
         H           -0.732089468787     1.521300207169     0.893537157102     1.007825032230
         H           -0.883900468787     2.012995207169    -0.813815842898     1.007825032230
         H            2.882626831213    -1.213788492831     0.366953057102     1.007825032230
         H            1.790959531213    -2.598453792831     0.494280157102     1.007825032230
         H            2.019711531213    -1.777127792831    -1.061713842898     1.007825032230
         H            2.902679531213     1.228724207169     0.067933157102     1.007825032230
         H            1.861992531213     2.612150207169    -0.267435842898     1.007825032230
         H            1.754394531213     1.783351207169     1.298177157102     1.007825032230
         H           -2.466828468787    -0.037366792831     1.459035157102     1.007825032230
         H           -3.254576468787     0.936940207169     0.182472157102     1.007825032230
         H           -3.325068468787    -0.849699792831     0.115411157102     1.007825032230

  Basis Set: AUG-CC-PVTZ
    Blend: AUG-CC-PVTZ
  Basis Set: (AUG-CC-PVTZ AUX)
    Blend: AUG-CC-PVTZ-JKFIT
	 Reference Energy          =    -328.7541867095423527 [Eh]
	 Singles Energy            =      -0.0000000000000000 [Eh]
	 Same-Spin Energy          =      -0.3478002289062169 [Eh]
	 Opposite-Spin Energy      =      -1.2498538589228489 [Eh]
	 Correlation Energy        =      -1.5976540878290657 [Eh]
	 Total Energy              =    -330.3518407973714375 [Eh]

	 ================> DF-SCS-MP2 Energies <==================
	-----------------------------------------------------------
	 SCS Same-Spin Scale       =       0.3333333333333333 [-]
	 SCS Opposite-Spin Scale   =       1.2000000000000000 [-]
	 SCS Same-Spin Energy      =      -0.1159334096354056 [Eh]
	 SCS Opposite-Spin Energy  =      -1.4998246307074188 [Eh]
	 SCS Correlation Energy    =      -1.6157580403428244 [Eh]
	 SCS Total Energy          =    -330.3699447498851782 [Eh]
	-----------------------------------------------------------

  Dipole Moment: [D]
     X:    -4.3559      Y:     0.0035      Z:    -0.8715     Total:     4.4422

*** Psi4 exiting successfully. Buy a developer a beer!
