                               Psi4 1.4a3.dev225

  ==> Input File <==

--------------------------------------------------------------------------
#psi4
#
memory 32 gb

molecule  {
1 1
  N       -1.4549350    -0.0063160    -0.3913190
  C        0.7700580    -0.6819900     0.3309590
  C        0.8387740     0.6929140    -0.3473660
  C       -0.5772670    -1.2354140    -0.1320620
  C       -0.5771770     1.2100060    -0.1498930
  C        1.9243020    -1.6239510     0.0114420
  C        1.8706312     1.6316229     0.2642641
  C       -2.7287170     0.0116090     0.3933420
  H        0.7287260    -0.5174670     1.4168530
  H        1.0195210     0.5454130    -1.4226110
  H       -1.7088400    -0.0087310    -1.3861360
  H       -0.4895840    -1.7781730    -1.0771710
  H       -1.0806180    -1.8736500     0.5969550
  H       -0.7401010     1.5214000     0.8863980
  H       -0.8919120     2.0130950    -0.8209550
  H        2.8677010    -1.2131930     0.3775700
  H        1.7829480    -2.5983540     0.4871410
  H        2.0117000    -1.7770280    -1.0688530
  H        2.8946680     1.2288240     0.0607940
  H        1.8539810     2.6122500    -0.2745750
  H        1.7463830     1.7834510     1.2910380
  H       -2.4748400    -0.0372670     1.4518960
  H       -3.2625880     0.9370400     0.1753330
  H       -3.3330800    -0.8496000     0.1082720
units angstrom
no_reorient  #important for SAPT in psi4, default
symmetry c1  #important for SAPT in psi4, default
}

set PROPERTIES_ORIGIN ["COM"]
properties('MP2/aug-cc-pvtz', properties = ['dipole'])
--------------------------------------------------------------------------

    Molecular point group: c1
  Charge       = 1
  Multiplicity = 1
  Basis Set: AUG-CC-PVTZ
    Blend: AUG-CC-PVTZ
  Basis Set: (AUG-CC-PVTZ AUX)
    Blend: AUG-CC-PVTZ-JKFIT

    Orbital Energies [Eh]
    ---------------------

    Doubly Occupied:

       1A    -15.851789     2A    -11.448869     3A    -11.445912
       4A    -11.445270     5A    -11.391152     6A    -11.389893
       7A    -11.352996     8A    -11.352318     9A     -1.489236
      10A     -1.272433    11A     -1.193223    12A     -1.142521
      13A     -1.094412    14A     -1.065016    15A     -0.987569
      16A     -0.940366    17A     -0.903305    18A     -0.844301
      19A     -0.822717    20A     -0.786400    21A     -0.762844
      22A     -0.754191    23A     -0.732999    24A     -0.717272
      25A     -0.706418    26A     -0.697187    27A     -0.669850
      28A     -0.659954    29A     -0.656118    30A     -0.626310
      31A     -0.623452    32A     -0.599521

  @DF-RHF Final Energy:  -328.75082116963404

   => Energetics <=

    Nuclear Repulsion Energy =            424.6646645395852602
    One-Electron Energy =               -1273.9793485396330652
    Two-Electron Energy =                 520.5638628304137683
    Total Energy =                       -328.7508211696340368
  Basis Set: (AUG-CC-PVTZ AUX)
    Blend: AUG-CC-PVTZ-RI
    Molecular point group: c1

    Geometry (in Angstrom), charge = 1, multiplicity = 1:

       Center              X                  Y                   Z               Mass
    ------------   -----------------  -----------------  -----------------  -----------------
         N           -1.444464183340    -0.005939542564    -0.389363205605    14.003074004430
         C            0.780528816660    -0.681613542564     0.332914794395    12.000000000000
         C            0.849244816660     0.693290457436    -0.345410205605    12.000000000000
         C           -0.566796183340    -1.235037542564    -0.130106205605    12.000000000000
         C           -0.566706183340     1.210382457436    -0.147937205605    12.000000000000
         C            1.934772816660    -1.623574542564     0.013397794395    12.000000000000
         C            1.881102016660     1.631999357436     0.266219894395    12.000000000000
         C           -2.718246183340     0.011985457436     0.395297794395    12.000000000000
         H            0.739196816660    -0.517090542564     1.418808794395     1.007825032230
         H            1.029991816660     0.545789457436    -1.420655205605     1.007825032230
         H           -1.698369183340    -0.008354542564    -1.384180205605     1.007825032230
         H           -0.479113183340    -1.777796542564    -1.075215205605     1.007825032230
         H           -1.070147183340    -1.873273542564     0.598910794395     1.007825032230
         H           -0.729630183340     1.521776457436     0.888353794395     1.007825032230
         H           -0.881441183340     2.013471457436    -0.818999205605     1.007825032230
         H            2.878171816660    -1.212816542564     0.379525794395     1.007825032230
         H            1.793418816660    -2.597977542564     0.489096794395     1.007825032230
         H            2.022170816660    -1.776651542564    -1.066897205605     1.007825032230
         H            2.905138816660     1.229200457436     0.062749794395     1.007825032230
         H            1.864451816660     2.612626457436    -0.272619205605     1.007825032230
         H            1.756853816660     1.783827457436     1.292993794395     1.007825032230
         H           -2.464369183340    -0.036890542564     1.453851794395     1.007825032230
         H           -3.252117183340     0.937416457436     0.177288794395     1.007825032230
         H           -3.322609183340    -0.849223542564     0.110227794395     1.007825032230

  Basis Set: AUG-CC-PVTZ
    Blend: AUG-CC-PVTZ
  Basis Set: (AUG-CC-PVTZ AUX)
    Blend: AUG-CC-PVTZ-JKFIT
	 Reference Energy          =    -328.7508211696340368 [Eh]
	 Singles Energy            =      -0.0000000000000000 [Eh]
	 Same-Spin Energy          =      -0.3479156769748994 [Eh]
	 Opposite-Spin Energy      =      -1.2501235885369781 [Eh]
	 Correlation Energy        =      -1.5980392655118776 [Eh]
	 Total Energy              =    -330.3488604351459230 [Eh]

	 ================> DF-SCS-MP2 Energies <==================
	-----------------------------------------------------------
	 SCS Same-Spin Scale       =       0.3333333333333333 [-]
	 SCS Opposite-Spin Scale   =       1.2000000000000000 [-]
	 SCS Same-Spin Energy      =      -0.1159718923249665 [Eh]
	 SCS Opposite-Spin Energy  =      -1.5001483062443737 [Eh]
	 SCS Correlation Energy    =      -1.6161201985693401 [Eh]
	 SCS Total Energy          =    -330.3669413682033564 [Eh]
	-----------------------------------------------------------

  Dipole Moment: [D]
     X:    -4.3423      Y:     0.0043      Z:    -0.8781     Total:     4.4302

*** Psi4 exiting successfully. Buy a developer a beer!
