                               Psi4 1.4a3.dev225

  ==> Input File <==

--------------------------------------------------------------------------
#psi4
#
memory 32 gb

molecule  {
1 1
  N       -1.4549350    -0.0063160    -0.3913190
  C        0.7700580    -0.6819900     0.3309590
  C        0.8387740     0.6929140    -0.3473660
  C       -0.5772670    -1.2354140    -0.1320620
  C       -0.5585497     1.2032035    -0.1524908
  C        1.9243020    -1.6239510     0.0114420
  C        1.8934400     1.6361940     0.2164580
  C       -2.7287170     0.0116090     0.3933420
  H        0.7287260    -0.5174670     1.4168530
  H        1.0195210     0.5454130    -1.4226110
  H       -1.7088400    -0.0087310    -1.3861360
  H       -0.4895840    -1.7781730    -1.0771710
  H       -1.0806180    -1.8736500     0.5969550
  H       -0.7401010     1.5214000     0.8863980
  H       -0.8919120     2.0130950    -0.8209550
  H        2.8677010    -1.2131930     0.3775700
  H        1.7829480    -2.5983540     0.4871410
  H        2.0117000    -1.7770280    -1.0688530
  H        2.8946680     1.2288240     0.0607940
  H        1.8539810     2.6122500    -0.2745750
  H        1.7463830     1.7834510     1.2910380
  H       -2.4748400    -0.0372670     1.4518960
  H       -3.2625880     0.9370400     0.1753330
  H       -3.3330800    -0.8496000     0.1082720
units angstrom
no_reorient  #important for SAPT in psi4, default
symmetry c1  #important for SAPT in psi4, default
}

set PROPERTIES_ORIGIN ["COM"]
properties('MP2/aug-cc-pvtz', properties = ['dipole'])
--------------------------------------------------------------------------

    Molecular point group: c1
  Charge       = 1
  Multiplicity = 1
  Basis Set: AUG-CC-PVTZ
    Blend: AUG-CC-PVTZ
  Basis Set: (AUG-CC-PVTZ AUX)
    Blend: AUG-CC-PVTZ-JKFIT

    Orbital Energies [Eh]
    ---------------------

    Doubly Occupied:

       1A    -15.851610     2A    -11.449040     3A    -11.446853
       4A    -11.445945     5A    -11.390609     6A    -11.389664
       7A    -11.353277     8A    -11.352515     9A     -1.488639
      10A     -1.274194    11A     -1.193919    12A     -1.142614
      13A     -1.094157    14A     -1.065658    15A     -0.986818
      16A     -0.940572    17A     -0.902422    18A     -0.844833
      19A     -0.822197    20A     -0.785543    21A     -0.763480
      22A     -0.755181    23A     -0.735923    24A     -0.714635
      25A     -0.699208    26A     -0.696567    27A     -0.676390
      28A     -0.663820    29A     -0.646978    30A     -0.630064
      31A     -0.623961    32A     -0.603293

  @DF-RHF Final Energy:  -328.75350224618501

   => Energetics <=

    Nuclear Repulsion Energy =            424.6970793476864401
    One-Electron Energy =               -1274.0400116630628418
    Two-Electron Energy =                 520.5894300691913941
    Total Energy =                       -328.7535022461850076
  Basis Set: (AUG-CC-PVTZ AUX)
    Blend: AUG-CC-PVTZ-RI
    Molecular point group: c1

    Geometry (in Angstrom), charge = 1, multiplicity = 1:

       Center              X                  Y                   Z               Mass
    ------------   -----------------  -----------------  -----------------  -----------------
         N           -1.448820975748    -0.005704922352    -0.384063495235    14.003074004430
         C            0.776172024252    -0.681378922352     0.338214504765    12.000000000000
         C            0.844888024252     0.693525077648    -0.340110495235    12.000000000000
         C           -0.571152975748    -1.234802922352    -0.124806495235    12.000000000000
         C           -0.552435675748     1.203814577648    -0.145235295235    12.000000000000
         C            1.930416024252    -1.623339922352     0.018697504765    12.000000000000
         C            1.899554024252     1.636805077648     0.223713504765    12.000000000000
         C           -2.722602975748     0.012220077648     0.400597504765    12.000000000000
         H            0.734840024252    -0.516855922352     1.424108504765     1.007825032230
         H            1.025635024252     0.546024077648    -1.415355495235     1.007825032230
         H           -1.702725975748    -0.008119922352    -1.378880495235     1.007825032230
         H           -0.483469975748    -1.777561922352    -1.069915495235     1.007825032230
         H           -1.074503975748    -1.873038922352     0.604210504765     1.007825032230
         H           -0.733986975748     1.522011077648     0.893653504765     1.007825032230
         H           -0.885797975748     2.013706077648    -0.813699495235     1.007825032230
         H            2.873815024252    -1.212581922352     0.384825504765     1.007825032230
         H            1.789062024252    -2.597742922352     0.494396504765     1.007825032230
         H            2.017814024252    -1.776416922352    -1.061597495235     1.007825032230
         H            2.900782024252     1.229435077648     0.068049504765     1.007825032230
         H            1.860095024252     2.612861077648    -0.267319495235     1.007825032230
         H            1.752497024252     1.784062077648     1.298293504765     1.007825032230
         H           -2.468725975748    -0.036655922352     1.459151504765     1.007825032230
         H           -3.256473975748     0.937651077648     0.182588504765     1.007825032230
         H           -3.326965975748    -0.848988922352     0.115527504765     1.007825032230

  Basis Set: AUG-CC-PVTZ
    Blend: AUG-CC-PVTZ
  Basis Set: (AUG-CC-PVTZ AUX)
    Blend: AUG-CC-PVTZ-JKFIT
	 Reference Energy          =    -328.7535022461850076 [Eh]
	 Singles Energy            =      -0.0000000000000000 [Eh]
	 Same-Spin Energy          =      -0.3479810392291707 [Eh]
	 Opposite-Spin Energy      =      -1.2500402603043608 [Eh]
	 Correlation Energy        =      -1.5980212995335314 [Eh]
	 Total Energy              =    -330.3515235457185213 [Eh]

	 ================> DF-SCS-MP2 Energies <==================
	-----------------------------------------------------------
	 SCS Same-Spin Scale       =       0.3333333333333333 [-]
	 SCS Opposite-Spin Scale   =       1.2000000000000000 [-]
	 SCS Same-Spin Energy      =      -0.1159936797430569 [Eh]
	 SCS Opposite-Spin Energy  =      -1.5000483123652328 [Eh]
	 SCS Correlation Energy    =      -1.6160419921082898 [Eh]
	 SCS Total Energy          =    -330.3695442382933152 [Eh]
	-----------------------------------------------------------

  Dipole Moment: [D]
     X:    -4.3476      Y:     0.0072      Z:    -0.8626     Total:     4.4323

*** Psi4 exiting successfully. Buy a developer a beer!
