                               Psi4 1.4a3.dev225

  ==> Input File <==

--------------------------------------------------------------------------
#psi4
#
memory 32 gb

molecule  {
1 1
  N       -1.4549350    -0.0063160    -0.3913190
  C        0.7700580    -0.6819900     0.3309590
  C        0.8387740     0.6929140    -0.3473660
  C       -0.5772670    -1.2354140    -0.1320620
  C       -0.5771770     1.2100060    -0.1498930
  C        1.9243020    -1.6239510     0.0114420
  C        1.8934400     1.6361940     0.2164580
  C       -2.6708764     0.0114326     0.4802923
  H        0.7287260    -0.5174670     1.4168530
  H        1.0195210     0.5454130    -1.4226110
  H       -1.7088400    -0.0087310    -1.3861360
  H       -0.4895840    -1.7781730    -1.0771710
  H       -1.0806180    -1.8736500     0.5969550
  H       -0.7401010     1.5214000     0.8863980
  H       -0.8919120     2.0130950    -0.8209550
  H        2.8677010    -1.2131930     0.3775700
  H        1.7829480    -2.5983540     0.4871410
  H        2.0117000    -1.7770280    -1.0688530
  H        2.8946680     1.2288240     0.0607940
  H        1.8539810     2.6122500    -0.2745750
  H        1.7463830     1.7834510     1.2910380
  H       -2.4748400    -0.0372670     1.4518960
  H       -3.2625880     0.9370400     0.1753330
  H       -3.3330800    -0.8496000     0.1082720
units angstrom
no_reorient  #important for SAPT in psi4, default
symmetry c1  #important for SAPT in psi4, default
}

set PROPERTIES_ORIGIN ["COM"]
properties('MP2/aug-cc-pvtz', properties = ['dipole'])
--------------------------------------------------------------------------

    Molecular point group: c1
  Charge       = 1
  Multiplicity = 1
  Basis Set: AUG-CC-PVTZ
    Blend: AUG-CC-PVTZ
  Basis Set: (AUG-CC-PVTZ AUX)
    Blend: AUG-CC-PVTZ-JKFIT

    Orbital Energies [Eh]
    ---------------------

    Doubly Occupied:

       1A    -15.853081     2A    -11.450636     3A    -11.445704
       4A    -11.445237     5A    -11.390696     6A    -11.390024
       7A    -11.352708     8A    -11.352463     9A     -1.490306
      10A     -1.271272    11A     -1.193331    12A     -1.143898
      13A     -1.094936    14A     -1.069368    15A     -0.987097
      16A     -0.939077    17A     -0.903256    18A     -0.848453
      19A     -0.821302    20A     -0.790356    21A     -0.773438
      22A     -0.752976    23A     -0.737053    24A     -0.709291
      25A     -0.699819    26A     -0.691165    27A     -0.676229
      28A     -0.660653    29A     -0.647179    30A     -0.627111
      31A     -0.622575    32A     -0.602930

  @DF-RHF Final Energy:  -328.73971477339137

   => Energetics <=

    Nuclear Repulsion Energy =            424.9531901222888450
    One-Electron Energy =               -1274.5185682305557293
    Two-Electron Energy =                 520.8256633348755713
    Total Energy =                       -328.7397147733913698
  Basis Set: (AUG-CC-PVTZ AUX)
    Blend: AUG-CC-PVTZ-RI
    Molecular point group: c1

    Geometry (in Angstrom), charge = 1, multiplicity = 1:

       Center              X                  Y                   Z               Mass
    ------------   -----------------  -----------------  -----------------  -----------------
         N           -1.452944052190    -0.006401622625    -0.393479016538    14.003074004430
         C            0.772048947810    -0.682075622625     0.328798983462    12.000000000000
         C            0.840764947810     0.692828377375    -0.349526016538    12.000000000000
         C           -0.575276052190    -1.235499622625    -0.134222016538    12.000000000000
         C           -0.575186052190     1.209920377375    -0.152053016538    12.000000000000
         C            1.926292947810    -1.624036622625     0.009281983462    12.000000000000
         C            1.895430947810     1.636108377375     0.214297983462    12.000000000000
         C           -2.668885452190     0.011346977375     0.478132283462    12.000000000000
         H            0.730716947810    -0.517552622625     1.414692983462     1.007825032230
         H            1.021511947810     0.545327377375    -1.424771016538     1.007825032230
         H           -1.706849052190    -0.008816622625    -1.388296016538     1.007825032230
         H           -0.487593052190    -1.778258622625    -1.079331016538     1.007825032230
         H           -1.078627052190    -1.873735622625     0.594794983462     1.007825032230
         H           -0.738110052190     1.521314377375     0.884237983462     1.007825032230
         H           -0.889921052190     2.013009377375    -0.823115016538     1.007825032230
         H            2.869691947810    -1.213278622625     0.375409983462     1.007825032230
         H            1.784938947810    -2.598439622625     0.484980983462     1.007825032230
         H            2.013690947810    -1.777113622625    -1.071013016538     1.007825032230
         H            2.896658947810     1.228738377375     0.058633983462     1.007825032230
         H            1.855971947810     2.612164377375    -0.276735016538     1.007825032230
         H            1.748373947810     1.783365377375     1.288877983462     1.007825032230
         H           -2.472849052190    -0.037352622625     1.449735983462     1.007825032230
         H           -3.260597052190     0.936954377375     0.173172983462     1.007825032230
         H           -3.331089052190    -0.849685622625     0.106111983462     1.007825032230

  Basis Set: AUG-CC-PVTZ
    Blend: AUG-CC-PVTZ
  Basis Set: (AUG-CC-PVTZ AUX)
    Blend: AUG-CC-PVTZ-JKFIT
	 Reference Energy          =    -328.7397147733913698 [Eh]
	 Singles Energy            =      -0.0000000000000000 [Eh]
	 Same-Spin Energy          =      -0.3480597297699727 [Eh]
	 Opposite-Spin Energy      =      -1.2507024178978221 [Eh]
	 Correlation Energy        =      -1.5987621476677949 [Eh]
	 Total Energy              =    -330.3384769210591685 [Eh]

	 ================> DF-SCS-MP2 Energies <==================
	-----------------------------------------------------------
	 SCS Same-Spin Scale       =       0.3333333333333333 [-]
	 SCS Opposite-Spin Scale   =       1.2000000000000000 [-]
	 SCS Same-Spin Energy      =      -0.1160199099233242 [Eh]
	 SCS Opposite-Spin Energy  =      -1.5008429014773865 [Eh]
	 SCS Correlation Energy    =      -1.6168628114007109 [Eh]
	 SCS Total Energy          =    -330.3565775847920918 [Eh]
	-----------------------------------------------------------

  Dipole Moment: [D]
     X:    -4.3652      Y:     0.0021      Z:    -0.8837     Total:     4.4537

*** Psi4 exiting successfully. Buy a developer a beer!
