                               Psi4 1.4a3.dev225

  ==> Input File <==

--------------------------------------------------------------------------
#psi4
#
memory 32 gb

molecule  {
1 1
  N       -1.4549350    -0.0063160    -0.3913190
  C        0.7700580    -0.6819900     0.3309590
  C        0.8387740     0.6929140    -0.3473660
  C       -0.5772670    -1.2354140    -0.1320620
  C       -0.5771770     1.2100060    -0.1498930
  C        1.9243020    -1.6239510     0.0114420
  C        1.8934400     1.6361940     0.2164580
  C       -2.7287170     0.0116090     0.3933420
  H        0.7249653    -0.5024976     1.5156547
  H        1.0195210     0.5454130    -1.4226110
  H       -1.7088400    -0.0087310    -1.3861360
  H       -0.4895840    -1.7781730    -1.0771710
  H       -1.0806180    -1.8736500     0.5969550
  H       -0.7401010     1.5214000     0.8863980
  H       -0.8919120     2.0130950    -0.8209550
  H        2.8677010    -1.2131930     0.3775700
  H        1.7829480    -2.5983540     0.4871410
  H        2.0117000    -1.7770280    -1.0688530
  H        2.8946680     1.2288240     0.0607940
  H        1.8539810     2.6122500    -0.2745750
  H        1.7463830     1.7834510     1.2910380
  H       -2.4748400    -0.0372670     1.4518960
  H       -3.2625880     0.9370400     0.1753330
  H       -3.3330800    -0.8496000     0.1082720
units angstrom
no_reorient  #important for SAPT in psi4, default
symmetry c1  #important for SAPT in psi4, default
}

set PROPERTIES_ORIGIN ["COM"]
properties('MP2/aug-cc-pvtz', properties = ['dipole'])
--------------------------------------------------------------------------

    Molecular point group: c1
  Charge       = 1
  Multiplicity = 1
  Basis Set: AUG-CC-PVTZ
    Blend: AUG-CC-PVTZ
  Basis Set: (AUG-CC-PVTZ AUX)
    Blend: AUG-CC-PVTZ-JKFIT

    Orbital Energies [Eh]
    ---------------------

    Doubly Occupied:

       1A    -15.852348     2A    -11.448963     3A    -11.447116
       4A    -11.445668     5A    -11.401838     6A    -11.391727
       7A    -11.353536     8A    -11.352740     9A     -1.489564
      10A     -1.270462    11A     -1.192696    12A     -1.142410
      13A     -1.094817    14A     -1.065623    15A     -0.986741
      16A     -0.933101    17A     -0.901214    18A     -0.842487
      19A     -0.821613    20A     -0.784597    21A     -0.763123
      22A     -0.754072    23A     -0.735502    24A     -0.714728
      25A     -0.700932    26A     -0.696966    27A     -0.676599
      28A     -0.663612    29A     -0.645453    30A     -0.628383
      31A     -0.615707    32A     -0.602075

  @DF-RHF Final Energy:  -328.74770070103801

   => Energetics <=

    Nuclear Repulsion Energy =            423.9949964632891692
    One-Electron Energy =               -1272.6525639956764735
    Two-Electron Energy =                 519.9098668313492908
    Total Energy =                       -328.7477007010379566
  Basis Set: (AUG-CC-PVTZ AUX)
    Blend: AUG-CC-PVTZ-RI
    Molecular point group: c1

    Geometry (in Angstrom), charge = 1, multiplicity = 1:

       Center              X                  Y                   Z               Mass
    ------------   -----------------  -----------------  -----------------  -----------------
         N           -1.446829201768    -0.006552359470    -0.385209122180    14.003074004430
         C            0.778163798232    -0.682226359470     0.337068877820    12.000000000000
         C            0.846879798232     0.692677640530    -0.341256122180    12.000000000000
         C           -0.569161201768    -1.235650359470    -0.125952122180    12.000000000000
         C           -0.569071201768     1.209769640530    -0.143783122180    12.000000000000
         C            1.932407798232    -1.624187359470     0.017551877820    12.000000000000
         C            1.901545798232     1.635957640530     0.222567877820    12.000000000000
         C           -2.720611201768     0.011372640530     0.399451877820    12.000000000000
         H            0.733071098232    -0.502733959470     1.521764577820     1.007825032230
         H            1.027626798232     0.545176640530    -1.416501122180     1.007825032230
         H           -1.700734201768    -0.008967359470    -1.380026122180     1.007825032230
         H           -0.481478201768    -1.778409359470    -1.071061122180     1.007825032230
         H           -1.072512201768    -1.873886359470     0.603064877820     1.007825032230
         H           -0.731995201768     1.521163640530     0.892507877820     1.007825032230
         H           -0.883806201768     2.012858640530    -0.814845122180     1.007825032230
         H            2.875806798232    -1.213429359470     0.383679877820     1.007825032230
         H            1.791053798232    -2.598590359470     0.493250877820     1.007825032230
         H            2.019805798232    -1.777264359470    -1.062743122180     1.007825032230
         H            2.902773798232     1.228587640530     0.066903877820     1.007825032230
         H            1.862086798232     2.612013640530    -0.268465122180     1.007825032230
         H            1.754488798232     1.783214640530     1.297147877820     1.007825032230
         H           -2.466734201768    -0.037503359470     1.458005877820     1.007825032230
         H           -3.254482201768     0.936803640530     0.181442877820     1.007825032230
         H           -3.324974201768    -0.849836359470     0.114381877820     1.007825032230

  Basis Set: AUG-CC-PVTZ
    Blend: AUG-CC-PVTZ
  Basis Set: (AUG-CC-PVTZ AUX)
    Blend: AUG-CC-PVTZ-JKFIT
	 Reference Energy          =    -328.7477007010380134 [Eh]
	 Singles Energy            =      -0.0000000000000000 [Eh]
	 Same-Spin Energy          =      -0.3479456922586085 [Eh]
	 Opposite-Spin Energy      =      -1.2507218742740300 [Eh]
	 Correlation Energy        =      -1.5986675665326384 [Eh]
	 Total Energy              =    -330.3463682675706536 [Eh]

	 ================> DF-SCS-MP2 Energies <==================
	-----------------------------------------------------------
	 SCS Same-Spin Scale       =       0.3333333333333333 [-]
	 SCS Opposite-Spin Scale   =       1.2000000000000000 [-]
	 SCS Same-Spin Energy      =      -0.1159818974195362 [Eh]
	 SCS Opposite-Spin Energy  =      -1.5008662491288360 [Eh]
	 SCS Correlation Energy    =      -1.6168481465483722 [Eh]
	 SCS Total Energy          =    -330.3645488475863772 [Eh]
	-----------------------------------------------------------

  Dipole Moment: [D]
     X:    -4.3432      Y:    -0.0151      Z:    -0.9148     Total:     4.4385

*** Psi4 exiting successfully. Buy a developer a beer!
