                               Psi4 1.4a3.dev225

  ==> Input File <==

--------------------------------------------------------------------------
#psi4
#
memory 32 gb

molecule  {
1 1
  N       -1.4549350    -0.0063160    -0.3913190
  C        0.7700580    -0.6819900     0.3309590
  C        0.8387740     0.6929140    -0.3473660
  C       -0.4627176    -1.3958306    -0.0982249
  C       -0.5771770     1.2100060    -0.1498930
  C        1.9243020    -1.6239510     0.0114420
  C        1.8934400     1.6361940     0.2164580
  C       -2.7287170     0.0116090     0.3933420
  H        0.7287260    -0.5174670     1.4168530
  H        1.0195210     0.5454130    -1.4226110
  H       -1.7088400    -0.0087310    -1.3861360
  H       -0.4895840    -1.7781730    -1.0771710
  H       -1.0806180    -1.8736500     0.5969550
  H       -0.7401010     1.5214000     0.8863980
  H       -0.8919120     2.0130950    -0.8209550
  H        2.8677010    -1.2131930     0.3775700
  H        1.7829480    -2.5983540     0.4871410
  H        2.0117000    -1.7770280    -1.0688530
  H        2.8946680     1.2288240     0.0607940
  H        1.8539810     2.6122500    -0.2745750
  H        1.7463830     1.7834510     1.2910380
  H       -2.4748400    -0.0372670     1.4518960
  H       -3.2625880     0.9370400     0.1753330
  H       -3.3330800    -0.8496000     0.1082720
units angstrom
no_reorient  #important for SAPT in psi4, default
symmetry c1  #important for SAPT in psi4, default
}

set PROPERTIES_ORIGIN ["COM"]
properties('MP2/aug-cc-pvtz', properties = ['dipole'])
--------------------------------------------------------------------------

    Molecular point group: c1
  Charge       = 1
  Multiplicity = 1
  Basis Set: AUG-CC-PVTZ
    Blend: AUG-CC-PVTZ
  Basis Set: (AUG-CC-PVTZ AUX)
    Blend: AUG-CC-PVTZ-JKFIT

    Orbital Energies [Eh]
    ---------------------

    Doubly Occupied:

       1A    -15.829271     2A    -11.462464     3A    -11.439087
       4A    -11.438456     5A    -11.394223     6A    -11.393152
       7A    -11.356825     8A    -11.354045     9A     -1.452624
      10A     -1.276233    11A     -1.199710    12A     -1.130033
      13A     -1.092429    14A     -1.059797    15A     -0.993009
      16A     -0.941893    17A     -0.882259    18A     -0.841585
      19A     -0.808003    20A     -0.797728    21A     -0.770824
      22A     -0.756270    23A     -0.734676    24A     -0.712172
      25A     -0.698920    26A     -0.690990    27A     -0.678286
      28A     -0.652898    29A     -0.647053    30A     -0.631395
      31A     -0.623691    32A     -0.610290

  @DF-RHF Final Energy:  -328.73026857704207

   => Energetics <=

    Nuclear Repulsion Energy =            422.3319309532321881
    One-Electron Energy =               -1269.4238158468656366
    Two-Electron Energy =                 518.3616163165914941
    Total Energy =                       -328.7302685770420112
  Basis Set: (AUG-CC-PVTZ AUX)
    Blend: AUG-CC-PVTZ-RI
    Molecular point group: c1

    Geometry (in Angstrom), charge = 1, multiplicity = 1:

       Center              X                  Y                   Z               Mass
    ------------   -----------------  -----------------  -----------------  -----------------
         N           -1.458906690308     0.010446808739    -0.387894437233    14.003074004430
         C            0.766086309692    -0.665227191261     0.334383562767    12.000000000000
         C            0.834802309692     0.709676808739    -0.343941437233    12.000000000000
         C           -0.466689290308    -1.379067791261    -0.094800337233    12.000000000000
         C           -0.581148690308     1.226768808739    -0.146468437233    12.000000000000
         C            1.920330309692    -1.607188191261     0.014866562767    12.000000000000
         C            1.889468309692     1.652956808739     0.219882562767    12.000000000000
         C           -2.732688690308     0.028371808739     0.396766562767    12.000000000000
         H            0.724754309692    -0.500704191261     1.420277562767     1.007825032230
         H            1.015549309692     0.562175808739    -1.419186437233     1.007825032230
         H           -1.712811690308     0.008031808739    -1.382711437233     1.007825032230
         H           -0.493555690308    -1.761410191261    -1.073746437233     1.007825032230
         H           -1.084589690308    -1.856887191261     0.600379562767     1.007825032230
         H           -0.744072690308     1.538162808739     0.889822562767     1.007825032230
         H           -0.895883690308     2.029857808739    -0.817530437233     1.007825032230
         H            2.863729309692    -1.196430191261     0.380994562767     1.007825032230
         H            1.778976309692    -2.581591191261     0.490565562767     1.007825032230
         H            2.007728309692    -1.760265191261    -1.065428437233     1.007825032230
         H            2.890696309692     1.245586808739     0.064218562767     1.007825032230
         H            1.850009309692     2.629012808739    -0.271150437233     1.007825032230
         H            1.742411309692     1.800213808739     1.294462562767     1.007825032230
         H           -2.478811690308    -0.020504191261     1.455320562767     1.007825032230
         H           -3.266559690308     0.953802808739     0.178757562767     1.007825032230
         H           -3.337051690308    -0.832837191261     0.111696562767     1.007825032230

  Basis Set: AUG-CC-PVTZ
    Blend: AUG-CC-PVTZ
  Basis Set: (AUG-CC-PVTZ AUX)
    Blend: AUG-CC-PVTZ-JKFIT
	 Reference Energy          =    -328.7302685770420680 [Eh]
	 Singles Energy            =      -0.0000000000000000 [Eh]
	 Same-Spin Energy          =      -0.3481041070992680 [Eh]
	 Opposite-Spin Energy      =      -1.2514381774419365 [Eh]
	 Correlation Energy        =      -1.5995422845412046 [Eh]
	 Total Energy              =    -330.3298108615832689 [Eh]

	 ================> DF-SCS-MP2 Energies <==================
	-----------------------------------------------------------
	 SCS Same-Spin Scale       =       0.3333333333333333 [-]
	 SCS Opposite-Spin Scale   =       1.2000000000000000 [-]
	 SCS Same-Spin Energy      =      -0.1160347023664227 [Eh]
	 SCS Opposite-Spin Energy  =      -1.5017258129303237 [Eh]
	 SCS Correlation Energy    =      -1.6177605152967465 [Eh]
	 SCS Total Energy          =    -330.3480290923388338 [Eh]
	-----------------------------------------------------------

  Dipole Moment: [D]
     X:    -4.0140      Y:    -0.2579      Z:    -0.8378     Total:     4.1086

*** Psi4 exiting successfully. Buy a developer a beer!
