                               Psi4 1.4a3.dev225

  ==> Input File <==

--------------------------------------------------------------------------
#psi4
#
memory 32 gb

molecule  {
1 1
  N       -1.4549350    -0.0063160    -0.3913190
  C        0.7700580    -0.6819900     0.3309590
  C        0.8387740     0.6929140    -0.3473660
  C       -0.5772670    -1.2354140    -0.1320620
  C       -0.5771770     1.2100060    -0.1498930
  C        1.9243020    -1.6239510     0.0114420
  C        1.8934400     1.6361940     0.2164580
  C       -2.7287170     0.0116090     0.3933420
  H        0.7287260    -0.5174670     1.4168530
  H        1.0195210     0.5454130    -1.4226110
  H       -1.7088400    -0.0087310    -1.3861360
  H       -0.4895840    -1.7781730    -1.0771710
  H       -1.0806180    -1.8736500     0.5969550
  H       -0.7401010     1.5214000     0.8863980
  H       -0.8919120     2.0130950    -0.8209550
  H        2.8677010    -1.2131930     0.3775700
  H        1.7829480    -2.5983540     0.4871410
  H        2.0117000    -1.7770280    -1.0688530
  H        2.8946680     1.2288240     0.0607940
  H        1.8539810     2.6122500    -0.2745750
  H        1.7463830     1.7834510     1.2910380
  H       -2.4748400    -0.0372670     1.4518960
  H       -3.2625880     0.9370400     0.1753330
  H       -3.3330800    -0.8496000     0.1082720
units angstrom
no_reorient  #important for SAPT in psi4, default
symmetry c1  #important for SAPT in psi4, default
}

set PROPERTIES_ORIGIN ["COM"]
properties('MP2/aug-cc-pvtz', properties = ['dipole'])
--------------------------------------------------------------------------

    Molecular point group: c1
  Charge       = 1
  Multiplicity = 1
  Basis Set: AUG-CC-PVTZ
    Blend: AUG-CC-PVTZ
  Basis Set: (AUG-CC-PVTZ AUX)
    Blend: AUG-CC-PVTZ-JKFIT

    Orbital Energies [Eh]
    ---------------------

    Doubly Occupied:

       1A    -15.852142     2A    -11.449007     3A    -11.446197
       4A    -11.445667     5A    -11.390913     6A    -11.390160
       7A    -11.352799     8A    -11.352491     9A     -1.489432
      10A     -1.272080    11A     -1.193155    12A     -1.142626
      13A     -1.094797    14A     -1.065481    15A     -0.987213
      16A     -0.939560    17A     -0.903320    18A     -0.844755
      19A     -0.822025    20A     -0.786338    21A     -0.763202
      22A     -0.754893    23A     -0.735307    24A     -0.715407
      25A     -0.701108    26A     -0.697257    27A     -0.676333
      28A     -0.662972    29A     -0.647403    30A     -0.628382
      31A     -0.622968    32A     -0.602972

  @DF-RHF Final Energy:  -328.75421058921711

   => Energetics <=

    Nuclear Repulsion Energy =            424.4873513491151016
    One-Electron Energy =               -1273.6263985642488024
    Two-Electron Energy =                 520.3848366259165914
    Total Energy =                       -328.7542105892171094
  Basis Set: (AUG-CC-PVTZ AUX)
    Blend: AUG-CC-PVTZ-RI
    Molecular point group: c1

    Geometry (in Angstrom), charge = 1, multiplicity = 1:

       Center              X                  Y                   Z               Mass
    ------------   -----------------  -----------------  -----------------  -----------------
         N           -1.446862411134    -0.006420170176    -0.384336640520    14.003074004430
         C            0.778130588866    -0.682094170176     0.337941359480    12.000000000000
         C            0.846846588866     0.692809829824    -0.340383640520    12.000000000000
         C           -0.569194411134    -1.235518170176    -0.125079640520    12.000000000000
         C           -0.569104411134     1.209901829824    -0.142910640520    12.000000000000
         C            1.932374588866    -1.624055170176     0.018424359480    12.000000000000
         C            1.901512588866     1.636089829824     0.223440359480    12.000000000000
         C           -2.720644411134     0.011504829824     0.400324359480    12.000000000000
         H            0.736798588866    -0.517571170176     1.423835359480     1.007825032230
         H            1.027593588866     0.545308829824    -1.415628640520     1.007825032230
         H           -1.700767411134    -0.008835170176    -1.379153640520     1.007825032230
         H           -0.481511411134    -1.778277170176    -1.070188640520     1.007825032230
         H           -1.072545411134    -1.873754170176     0.603937359480     1.007825032230
         H           -0.732028411134     1.521295829824     0.893380359480     1.007825032230
         H           -0.883839411134     2.012990829824    -0.813972640520     1.007825032230
         H            2.875773588866    -1.213297170176     0.384552359480     1.007825032230
         H            1.791020588866    -2.598458170176     0.494123359480     1.007825032230
         H            2.019772588866    -1.777132170176    -1.061870640520     1.007825032230
         H            2.902740588866     1.228719829824     0.067776359480     1.007825032230
         H            1.862053588866     2.612145829824    -0.267592640520     1.007825032230
         H            1.754455588866     1.783346829824     1.298020359480     1.007825032230
         H           -2.466767411134    -0.037371170176     1.458878359480     1.007825032230
         H           -3.254515411134     0.936935829824     0.182315359480     1.007825032230
         H           -3.325007411134    -0.849704170176     0.115254359480     1.007825032230

  Basis Set: AUG-CC-PVTZ
    Blend: AUG-CC-PVTZ
  Basis Set: (AUG-CC-PVTZ AUX)
    Blend: AUG-CC-PVTZ-JKFIT
	 Reference Energy          =    -328.7542105892171094 [Eh]
	 Singles Energy            =      -0.0000000000000000 [Eh]
	 Same-Spin Energy          =      -0.3478034768104997 [Eh]
	 Opposite-Spin Energy      =      -1.2498640653696451 [Eh]
	 Correlation Energy        =      -1.5976675421801447 [Eh]
	 Total Energy              =    -330.3518781313972568 [Eh]

	 ================> DF-SCS-MP2 Energies <==================
	-----------------------------------------------------------
	 SCS Same-Spin Scale       =       0.3333333333333333 [-]
	 SCS Opposite-Spin Scale   =       1.2000000000000000 [-]
	 SCS Same-Spin Energy      =      -0.1159344922701666 [Eh]
	 SCS Opposite-Spin Energy  =      -1.4998368784435741 [Eh]
	 SCS Correlation Energy    =      -1.6157713707137407 [Eh]
	 SCS Total Energy          =    -330.3699819599308398 [Eh]
	-----------------------------------------------------------

  Dipole Moment: [D]
     X:    -4.3563      Y:     0.0011      Z:    -0.8666     Total:     4.4416

*** Psi4 exiting successfully. Buy a developer a beer!
