                               Psi4 1.4a3.dev225

  ==> Input File <==

--------------------------------------------------------------------------
#psi4
#
memory 32 gb

molecule  {
1 1
  N       -1.4549350    -0.0063160    -0.3913190
  C        0.7700580    -0.6819900     0.3309590
  C        0.8387740     0.6929140    -0.3473660
  C       -0.5772670    -1.2354140    -0.1320620
  C       -0.5771770     1.2100060    -0.1498930
  C        1.9243020    -1.6239510     0.0114420
  C        1.8934400     1.6361940     0.2164580
  C       -2.7287170     0.0116090     0.3933420
  H        0.7287260    -0.5174670     1.4168530
  H        1.0195210     0.5454130    -1.4226110
  H       -1.7088400    -0.0087310    -1.3861360
  H       -0.4895840    -1.7781730    -1.0771710
  H       -1.0575680    -1.8444232     0.5635710
  H       -0.7401010     1.5214000     0.8863980
  H       -0.8919120     2.0130950    -0.8209550
  H        2.8677010    -1.2131930     0.3775700
  H        1.7829480    -2.5983540     0.4871410
  H        2.0117000    -1.7770280    -1.0688530
  H        2.8946680     1.2288240     0.0607940
  H        1.8539810     2.6122500    -0.2745750
  H        1.7463830     1.7834510     1.2910380
  H       -2.4748400    -0.0372670     1.4518960
  H       -3.2625880     0.9370400     0.1753330
  H       -3.3330800    -0.8496000     0.1082720
units angstrom
no_reorient  #important for SAPT in psi4, default
symmetry c1  #important for SAPT in psi4, default
}

set PROPERTIES_ORIGIN ["COM"]
properties('MP2/aug-cc-pvtz', properties = ['dipole'])
--------------------------------------------------------------------------

    Molecular point group: c1
  Charge       = 1
  Multiplicity = 1
  Basis Set: AUG-CC-PVTZ
    Blend: AUG-CC-PVTZ
  Basis Set: (AUG-CC-PVTZ AUX)
    Blend: AUG-CC-PVTZ-JKFIT

    Orbital Energies [Eh]
    ---------------------

    Doubly Occupied:

       1A    -15.851880     2A    -11.449142     3A    -11.445539
       4A    -11.440763     5A    -11.390720     6A    -11.389957
       7A    -11.352661     8A    -11.352464     9A     -1.489530
      10A     -1.272099    11A     -1.195181    12A     -1.142774
      13A     -1.095958    14A     -1.066472    15A     -0.989466
      16A     -0.939795    17A     -0.903382    18A     -0.846526
      19A     -0.823289    20A     -0.787385    21A     -0.765966
      22A     -0.755168    23A     -0.736329    24A     -0.716773
      25A     -0.701045    26A     -0.698072    27A     -0.676482
      28A     -0.662918    29A     -0.647674    30A     -0.628352
      31A     -0.622952    32A     -0.603296

  @DF-RHF Final Energy:  -328.75345772035439

   => Energetics <=

    Nuclear Repulsion Energy =            424.7503628129138633
    One-Electron Energy =               -1274.1276236318042265
    Two-Electron Energy =                 520.6238030985359728
    Total Energy =                       -328.7534577203543904
  Basis Set: (AUG-CC-PVTZ AUX)
    Blend: AUG-CC-PVTZ-RI
    Molecular point group: c1

    Geometry (in Angstrom), charge = 1, multiplicity = 1:

       Center              X                  Y                   Z               Mass
    ------------   -----------------  -----------------  -----------------  -----------------
         N           -1.447065957250    -0.006678261353    -0.384041838631    14.003074004430
         C            0.777927042750    -0.682352261353     0.338236161369    12.000000000000
         C            0.846643042750     0.692551738647    -0.340088838631    12.000000000000
         C           -0.569397957250    -1.235776261353    -0.124784838631    12.000000000000
         C           -0.569307957250     1.209643738647    -0.142615838631    12.000000000000
         C            1.932171042750    -1.624313261353     0.018719161369    12.000000000000
         C            1.901309042750     1.635831738647     0.223735161369    12.000000000000
         C           -2.720847957250     0.011246738647     0.400619161369    12.000000000000
         H            0.736595042750    -0.517829261353     1.424130161369     1.007825032230
         H            1.027390042750     0.545050738647    -1.415333838631     1.007825032230
         H           -1.700970957250    -0.009093261353    -1.378858838631     1.007825032230
         H           -0.481714957250    -1.778535261353    -1.069893838631     1.007825032230
         H           -1.049698957250    -1.844785461353     0.570848161369     1.007825032230
         H           -0.732231957250     1.521037738647     0.893675161369     1.007825032230
         H           -0.884042957250     2.012732738647    -0.813677838631     1.007825032230
         H            2.875570042750    -1.213555261353     0.384847161369     1.007825032230
         H            1.790817042750    -2.598716261353     0.494418161369     1.007825032230
         H            2.019569042750    -1.777390261353    -1.061575838631     1.007825032230
         H            2.902537042750     1.228461738647     0.068071161369     1.007825032230
         H            1.861850042750     2.611887738647    -0.267297838631     1.007825032230
         H            1.754252042750     1.783088738647     1.298315161369     1.007825032230
         H           -2.466970957250    -0.037629261353     1.459173161369     1.007825032230
         H           -3.254718957250     0.936677738647     0.182610161369     1.007825032230
         H           -3.325210957250    -0.849962261353     0.115549161369     1.007825032230

  Basis Set: AUG-CC-PVTZ
    Blend: AUG-CC-PVTZ
  Basis Set: (AUG-CC-PVTZ AUX)
    Blend: AUG-CC-PVTZ-JKFIT
	 Reference Energy          =    -328.7534577203543904 [Eh]
	 Singles Energy            =      -0.0000000000000000 [Eh]
	 Same-Spin Energy          =      -0.3477045320334705 [Eh]
	 Opposite-Spin Energy      =      -1.2494518224939337 [Eh]
	 Correlation Energy        =      -1.5971563545274043 [Eh]
	 Total Energy              =    -330.3506140748817757 [Eh]

	 ================> DF-SCS-MP2 Energies <==================
	-----------------------------------------------------------
	 SCS Same-Spin Scale       =       0.3333333333333333 [-]
	 SCS Opposite-Spin Scale   =       1.2000000000000000 [-]
	 SCS Same-Spin Energy      =      -0.1159015106778235 [Eh]
	 SCS Opposite-Spin Energy  =      -1.4993421869927204 [Eh]
	 SCS Correlation Energy    =      -1.6152436976705438 [Eh]
	 SCS Total Energy          =    -330.3687014180249548 [Eh]
	-----------------------------------------------------------

  Dipole Moment: [D]
     X:    -4.3638      Y:    -0.0029      Z:    -0.8696     Total:     4.4496

*** Psi4 exiting successfully. Buy a developer a beer!
