                               Psi4 1.4a3.dev225

  ==> Input File <==

--------------------------------------------------------------------------
#psi4
#
memory 32 gb

molecule  {
1 1
  N       -1.4880109     0.0022498    -0.2909305
  C        0.7700580    -0.6819900     0.3309590
  C        0.8387740     0.6929140    -0.3473660
  C       -0.5772670    -1.2354140    -0.1320620
  C       -0.5771770     1.2100060    -0.1498930
  C        1.9243020    -1.6239510     0.0114420
  C        1.8934400     1.6361940     0.2164580
  C       -2.7287170     0.0116090     0.3933420
  H        0.7287260    -0.5174670     1.4168530
  H        1.0195210     0.5454130    -1.4226110
  H       -1.7088400    -0.0087310    -1.3861360
  H       -0.4895840    -1.7781730    -1.0771710
  H       -1.0806180    -1.8736500     0.5969550
  H       -0.7401010     1.5214000     0.8863980
  H       -0.8919120     2.0130950    -0.8209550
  H        2.8677010    -1.2131930     0.3775700
  H        1.7829480    -2.5983540     0.4871410
  H        2.0117000    -1.7770280    -1.0688530
  H        2.8946680     1.2288240     0.0607940
  H        1.8539810     2.6122500    -0.2745750
  H        1.7463830     1.7834510     1.2910380
  H       -2.4748400    -0.0372670     1.4518960
  H       -3.2625880     0.9370400     0.1753330
  H       -3.3330800    -0.8496000     0.1082720
units angstrom
no_reorient  #important for SAPT in psi4, default
symmetry c1  #important for SAPT in psi4, default
}

set PROPERTIES_ORIGIN ["COM"]
properties('MP2/aug-cc-pvtz', properties = ['dipole'])
--------------------------------------------------------------------------

    Molecular point group: c1
  Charge       = 1
  Multiplicity = 1
  Basis Set: AUG-CC-PVTZ
    Blend: AUG-CC-PVTZ
  Basis Set: (AUG-CC-PVTZ AUX)
    Blend: AUG-CC-PVTZ-JKFIT

    Orbital Energies [Eh]
    ---------------------

    Doubly Occupied:

       1A    -15.857163     2A    -11.449028     3A    -11.446682
       4A    -11.441916     5A    -11.392743     6A    -11.391491
       7A    -11.354125     8A    -11.353452     9A     -1.494157
      10A     -1.278092    11A     -1.193946    12A     -1.148824
      13A     -1.095924    14A     -1.051951    15A     -0.983963
      16A     -0.943359    17A     -0.901164    18A     -0.848438
      19A     -0.832273    20A     -0.786755    21A     -0.765538
      22A     -0.754407    23A     -0.732972    24A     -0.705840
      25A     -0.704691    26A     -0.689751    27A     -0.677164
      28A     -0.663638    29A     -0.647430    30A     -0.629033
      31A     -0.624077    32A     -0.604172

  @DF-RHF Final Energy:  -328.73816433078179

   => Energetics <=

    Nuclear Repulsion Energy =            424.8718257894421981
    One-Electron Energy =               -1274.3316535719452531
    Two-Electron Energy =                 520.7216634517212697
    Total Energy =                       -328.7381643307817285
  Basis Set: (AUG-CC-PVTZ AUX)
    Blend: AUG-CC-PVTZ-RI
    Molecular point group: c1

    Geometry (in Angstrom), charge = 1, multiplicity = 1:

       Center              X                  Y                   Z               Mass
    ------------   -----------------  -----------------  -----------------  -----------------
         N           -1.475880033048     0.001094641085    -0.296265400205    14.003074004430
         C            0.782188866952    -0.683145158915     0.325624099795    12.000000000000
         C            0.850904866952     0.691758841085    -0.352700900205    12.000000000000
         C           -0.565136133048    -1.236569158915    -0.137396900205    12.000000000000
         C           -0.565046133048     1.208850841085    -0.155227900205    12.000000000000
         C            1.936432866952    -1.625106158915     0.006107099795    12.000000000000
         C            1.905570866952     1.635038841085     0.211123099795    12.000000000000
         C           -2.716586133048     0.010453841085     0.388007099795    12.000000000000
         H            0.740856866952    -0.518622158915     1.411518099795     1.007825032230
         H            1.031651866952     0.544257841085    -1.427945900205     1.007825032230
         H           -1.696709133048    -0.009886158915    -1.391470900205     1.007825032230
         H           -0.477453133048    -1.779328158915    -1.082505900205     1.007825032230
         H           -1.068487133048    -1.874805158915     0.591620099795     1.007825032230
         H           -0.727970133048     1.520244841085     0.881063099795     1.007825032230
         H           -0.879781133048     2.011939841085    -0.826289900205     1.007825032230
         H            2.879831866952    -1.214348158915     0.372235099795     1.007825032230
         H            1.795078866952    -2.599509158915     0.481806099795     1.007825032230
         H            2.023830866952    -1.778183158915    -1.074187900205     1.007825032230
         H            2.906798866952     1.227668841085     0.055459099795     1.007825032230
         H            1.866111866952     2.611094841085    -0.279909900205     1.007825032230
         H            1.758513866952     1.782295841085     1.285703099795     1.007825032230
         H           -2.462709133048    -0.038422158915     1.446561099795     1.007825032230
         H           -3.250457133048     0.935884841085     0.169998099795     1.007825032230
         H           -3.320949133048    -0.850755158915     0.102937099795     1.007825032230

  Basis Set: AUG-CC-PVTZ
    Blend: AUG-CC-PVTZ
  Basis Set: (AUG-CC-PVTZ AUX)
    Blend: AUG-CC-PVTZ-JKFIT
	 Reference Energy          =    -328.7381643307817853 [Eh]
	 Singles Energy            =      -0.0000000000000000 [Eh]
	 Same-Spin Energy          =      -0.3491611960113939 [Eh]
	 Opposite-Spin Energy      =      -1.2519868070275846 [Eh]
	 Correlation Energy        =      -1.6011480030389784 [Eh]
	 Total Energy              =    -330.3393123338207715 [Eh]

	 ================> DF-SCS-MP2 Energies <==================
	-----------------------------------------------------------
	 SCS Same-Spin Scale       =       0.3333333333333333 [-]
	 SCS Opposite-Spin Scale   =       1.2000000000000000 [-]
	 SCS Same-Spin Energy      =      -0.1163870653371313 [Eh]
	 SCS Opposite-Spin Energy  =      -1.5023841684331014 [Eh]
	 SCS Correlation Energy    =      -1.6187712337702327 [Eh]
	 SCS Total Energy          =    -330.3569355645520318 [Eh]
	-----------------------------------------------------------

  Dipole Moment: [D]
     X:    -4.2340      Y:    -0.0213      Z:    -0.9846     Total:     4.3470

*** Psi4 exiting successfully. Buy a developer a beer!
