                               Psi4 1.4a3.dev225

  ==> Input File <==

--------------------------------------------------------------------------
#psi4
#
memory 32 gb

molecule  {
1 1
  N       -1.4549350    -0.0063160    -0.3913190
  C        0.7700580    -0.6819900     0.3309590
  C        0.7956273     0.8122903    -0.4438336
  C       -0.5772670    -1.2354140    -0.1320620
  C       -0.5771770     1.2100060    -0.1498930
  C        1.9243020    -1.6239510     0.0114420
  C        1.8934400     1.6361940     0.2164580
  C       -2.7287170     0.0116090     0.3933420
  H        0.7287260    -0.5174670     1.4168530
  H        1.0195210     0.5454130    -1.4226110
  H       -1.7088400    -0.0087310    -1.3861360
  H       -0.4895840    -1.7781730    -1.0771710
  H       -1.0806180    -1.8736500     0.5969550
  H       -0.7401010     1.5214000     0.8863980
  H       -0.8919120     2.0130950    -0.8209550
  H        2.8677010    -1.2131930     0.3775700
  H        1.7829480    -2.5983540     0.4871410
  H        2.0117000    -1.7770280    -1.0688530
  H        2.8946680     1.2288240     0.0607940
  H        1.8539810     2.6122500    -0.2745750
  H        1.7463830     1.7834510     1.2910380
  H       -2.4748400    -0.0372670     1.4518960
  H       -3.2625880     0.9370400     0.1753330
  H       -3.3330800    -0.8496000     0.1082720
units angstrom
no_reorient  #important for SAPT in psi4, default
symmetry c1  #important for SAPT in psi4, default
}

set PROPERTIES_ORIGIN ["COM"]
properties('MP2/aug-cc-pvtz', properties = ['dipole'])
--------------------------------------------------------------------------

    Molecular point group: c1
  Charge       = 1
  Multiplicity = 1
  Basis Set: AUG-CC-PVTZ
    Blend: AUG-CC-PVTZ
  Basis Set: (AUG-CC-PVTZ AUX)
    Blend: AUG-CC-PVTZ-JKFIT

    Orbital Energies [Eh]
    ---------------------

    Doubly Occupied:

       1A    -15.852764     2A    -11.449475     3A    -11.446033
       4A    -11.444269     5A    -11.393231     6A    -11.389997
       7A    -11.354065     8A    -11.351534     9A     -1.489697
      10A     -1.263366    11A     -1.199321    12A     -1.140922
      13A     -1.095670    14A     -1.065003    15A     -0.978620
      16A     -0.945209    17A     -0.903722    18A     -0.845444
      19A     -0.828670    20A     -0.787091    21A     -0.760614
      22A     -0.751108    23A     -0.735573    24A     -0.716114
      25A     -0.707609    26A     -0.695598    27A     -0.676186
      28A     -0.661994    29A     -0.655597    30A     -0.639467
      31A     -0.629846    32A     -0.560210

  @DF-RHF Final Energy:  -328.73366024634737

   => Energetics <=

    Nuclear Repulsion Energy =            423.2959983881457333
    One-Electron Energy =               -1271.2312837248234700
    Two-Electron Energy =                 519.2016250903302534
    Total Energy =                       -328.7336602463474264
  Basis Set: (AUG-CC-PVTZ AUX)
    Blend: AUG-CC-PVTZ-RI
    Molecular point group: c1

    Geometry (in Angstrom), charge = 1, multiplicity = 1:

       Center              X                  Y                   Z               Mass
    ------------   -----------------  -----------------  -----------------  -----------------
         N           -1.442325757950    -0.018971973014    -0.374193569446    14.003074004430
         C            0.782667242050    -0.694645973014     0.348084430554    12.000000000000
         C            0.808236542050     0.799634326986    -0.426708169446    12.000000000000
         C           -0.564657757950    -1.248069973014    -0.114936569446    12.000000000000
         C           -0.564567757950     1.197350026986    -0.132767569446    12.000000000000
         C            1.936911242050    -1.636606973014     0.028567430554    12.000000000000
         C            1.906049242050     1.623538026986     0.233583430554    12.000000000000
         C           -2.716107757950    -0.001046973014     0.410467430554    12.000000000000
         H            0.741335242050    -0.530122973014     1.433978430554     1.007825032230
         H            1.032130242050     0.532757026986    -1.405485569446     1.007825032230
         H           -1.696230757950    -0.021386973014    -1.369010569446     1.007825032230
         H           -0.476974757950    -1.790828973014    -1.060045569446     1.007825032230
         H           -1.068008757950    -1.886305973014     0.614080430554     1.007825032230
         H           -0.727491757950     1.508744026986     0.903523430554     1.007825032230
         H           -0.879302757950     2.000439026986    -0.803829569446     1.007825032230
         H            2.880310242050    -1.225848973014     0.394695430554     1.007825032230
         H            1.795557242050    -2.611009973014     0.504266430554     1.007825032230
         H            2.024309242050    -1.789683973014    -1.051727569446     1.007825032230
         H            2.907277242050     1.216168026986     0.077919430554     1.007825032230
         H            1.866590242050     2.599594026986    -0.257449569446     1.007825032230
         H            1.758992242050     1.770795026986     1.308163430554     1.007825032230
         H           -2.462230757950    -0.049922973014     1.469021430554     1.007825032230
         H           -3.249978757950     0.924384026986     0.192458430554     1.007825032230
         H           -3.320470757950    -0.862255973014     0.125397430554     1.007825032230

  Basis Set: AUG-CC-PVTZ
    Blend: AUG-CC-PVTZ
  Basis Set: (AUG-CC-PVTZ AUX)
    Blend: AUG-CC-PVTZ-JKFIT
	 Reference Energy          =    -328.7336602463473696 [Eh]
	 Singles Energy            =      -0.0000000000000000 [Eh]
	 Same-Spin Energy          =      -0.3485168414442166 [Eh]
	 Opposite-Spin Energy      =      -1.2513988221917218 [Eh]
	 Correlation Energy        =      -1.5999156636359384 [Eh]
	 Total Energy              =    -330.3335759099833240 [Eh]

	 ================> DF-SCS-MP2 Energies <==================
	-----------------------------------------------------------
	 SCS Same-Spin Scale       =       0.3333333333333333 [-]
	 SCS Opposite-Spin Scale   =       1.2000000000000000 [-]
	 SCS Same-Spin Energy      =      -0.1161722804814055 [Eh]
	 SCS Opposite-Spin Energy  =      -1.5016785866300661 [Eh]
	 SCS Correlation Energy    =      -1.6178508671114717 [Eh]
	 SCS Total Energy          =    -330.3515111134588551 [Eh]
	-----------------------------------------------------------

  Dipole Moment: [D]
     X:    -4.3092      Y:    -0.0450      Z:    -0.8301     Total:     4.3887

*** Psi4 exiting successfully. Buy a developer a beer!
