                               Psi4 1.4a3.dev225

  ==> Input File <==

--------------------------------------------------------------------------
#psi4
#
memory 32 gb

molecule  {
1 1
  N       -1.4549350    -0.0063160    -0.3913190
  C        0.7700580    -0.6819900     0.3309590
  C        0.8387740     0.6929140    -0.3473660
  C       -0.5772670    -1.2354140    -0.1320620
  C       -0.5771770     1.2100060    -0.1498930
  C        1.9243020    -1.6239510     0.0114420
  C        1.8934400     1.6361940     0.2164580
  C       -2.7287170     0.0116090     0.3933420
  H        0.7287260    -0.5174670     1.4168530
  H        1.0195210     0.5454130    -1.4226110
  H       -1.7088400    -0.0087310    -1.3861360
  H       -0.4895840    -1.7781730    -1.0771710
  H       -1.0806180    -1.8736500     0.5969550
  H       -0.7401010     1.5214000     0.8863980
  H       -0.8919120     2.0130950    -0.8209550
  H        2.8677010    -1.2131930     0.3775700
  H        1.7829480    -2.5983540     0.4871410
  H        2.0117000    -1.7770280    -1.0688530
  H        2.8946680     1.2288240     0.0607940
  H        1.8557855     2.5676129    -0.2521190
  H        1.7463830     1.7834510     1.2910380
  H       -2.4748400    -0.0372670     1.4518960
  H       -3.2625880     0.9370400     0.1753330
  H       -3.3330800    -0.8496000     0.1082720
units angstrom
no_reorient  #important for SAPT in psi4, default
symmetry c1  #important for SAPT in psi4, default
}

set PROPERTIES_ORIGIN ["COM"]
properties('MP2/aug-cc-pvtz', properties = ['dipole'])
--------------------------------------------------------------------------

    Molecular point group: c1
  Charge       = 1
  Multiplicity = 1
  Basis Set: AUG-CC-PVTZ
    Blend: AUG-CC-PVTZ
  Basis Set: (AUG-CC-PVTZ AUX)
    Blend: AUG-CC-PVTZ-JKFIT

    Orbital Energies [Eh]
    ---------------------

    Doubly Occupied:

       1A    -15.852083     2A    -11.448954     3A    -11.446010
       4A    -11.445643     5A    -11.390581     6A    -11.389867
       7A    -11.352290     8A    -11.346875     9A     -1.489353
      10A     -1.272105    11A     -1.193482    12A     -1.142960
      13A     -1.096778    14A     -1.066304    15A     -0.988664
      16A     -0.939675    17A     -0.903336    18A     -0.845213
      19A     -0.821904    20A     -0.786808    21A     -0.763092
      22A     -0.756133    23A     -0.736365    24A     -0.715945
      25A     -0.701458    26A     -0.697147    27A     -0.681119
      28A     -0.662701    29A     -0.647213    30A     -0.628099
      31A     -0.622815    32A     -0.604762

  @DF-RHF Final Energy:  -328.75321047822075

   => Energetics <=

    Nuclear Repulsion Energy =            424.7203822221042060
    One-Electron Energy =               -1274.0757190730364528
    Two-Electron Energy =                 520.6021263727113819
    Total Energy =                       -328.7532104782208080
  Basis Set: (AUG-CC-PVTZ AUX)
    Blend: AUG-CC-PVTZ-RI
    Molecular point group: c1

    Geometry (in Angstrom), charge = 1, multiplicity = 1:

       Center              X                  Y                   Z               Mass
    ------------   -----------------  -----------------  -----------------  -----------------
         N           -1.446878346013    -0.006025996279    -0.384534941239    14.003074004430
         C            0.778114653987    -0.681699996279     0.337743058761    12.000000000000
         C            0.846830653987     0.693204003721    -0.340581941239    12.000000000000
         C           -0.569210346013    -1.235123996279    -0.125277941239    12.000000000000
         C           -0.569120346013     1.210296003721    -0.143108941239    12.000000000000
         C            1.932358653987    -1.623660996279     0.018226058761    12.000000000000
         C            1.901496653987     1.636484003721     0.223242058761    12.000000000000
         C           -2.720660346013     0.011899003721     0.400126058761    12.000000000000
         H            0.736782653987    -0.517176996279     1.423637058761     1.007825032230
         H            1.027577653987     0.545703003721    -1.415826941239     1.007825032230
         H           -1.700783346013    -0.008440996279    -1.379351941239     1.007825032230
         H           -0.481527346013    -1.777882996279    -1.070386941239     1.007825032230
         H           -1.072561346013    -1.873359996279     0.603739058761     1.007825032230
         H           -0.732044346013     1.521690003721     0.893182058761     1.007825032230
         H           -0.883855346013     2.013385003721    -0.814170941239     1.007825032230
         H            2.875757653987    -1.212902996279     0.384354058761     1.007825032230
         H            1.791004653987    -2.598063996279     0.493925058761     1.007825032230
         H            2.019756653987    -1.776737996279    -1.062068941239     1.007825032230
         H            2.902724653987     1.229114003721     0.067578058761     1.007825032230
         H            1.863842153987     2.567902903721    -0.245334941239     1.007825032230
         H            1.754439653987     1.783741003721     1.297822058761     1.007825032230
         H           -2.466783346013    -0.036976996279     1.458680058761     1.007825032230
         H           -3.254531346013     0.937330003721     0.182117058761     1.007825032230
         H           -3.325023346013    -0.849309996279     0.115056058761     1.007825032230

  Basis Set: AUG-CC-PVTZ
    Blend: AUG-CC-PVTZ
  Basis Set: (AUG-CC-PVTZ AUX)
    Blend: AUG-CC-PVTZ-JKFIT
	 Reference Energy          =    -328.7532104782207512 [Eh]
	 Singles Energy            =      -0.0000000000000000 [Eh]
	 Same-Spin Energy          =      -0.3478142363501812 [Eh]
	 Opposite-Spin Energy      =      -1.2495789581051602 [Eh]
	 Correlation Energy        =      -1.5973931944553414 [Eh]
	 Total Energy              =    -330.3506036726760726 [Eh]

	 ================> DF-SCS-MP2 Energies <==================
	-----------------------------------------------------------
	 SCS Same-Spin Scale       =       0.3333333333333333 [-]
	 SCS Opposite-Spin Scale   =       1.2000000000000000 [-]
	 SCS Same-Spin Energy      =      -0.1159380787833937 [Eh]
	 SCS Opposite-Spin Energy  =      -1.4994947497261921 [Eh]
	 SCS Correlation Energy    =      -1.6154328285095858 [Eh]
	 SCS Total Energy          =    -330.3686433067303483 [Eh]
	-----------------------------------------------------------

  Dipole Moment: [D]
     X:    -4.3540      Y:     0.0188      Z:    -0.8712     Total:     4.4403

*** Psi4 exiting successfully. Buy a developer a beer!
