                               Psi4 1.4a3.dev225

  ==> Input File <==

--------------------------------------------------------------------------
#psi4
#
memory 32 gb

molecule  {
1 1
  N       -1.4549350    -0.0063160    -0.3913190
  C        0.7700580    -0.6819900     0.3309590
  C        0.8387740     0.6929140    -0.3473660
  C       -0.5772670    -1.2354140    -0.1320620
  C       -0.5771770     1.2100060    -0.1498930
  C        1.9243020    -1.6239510     0.0114420
  C        1.8934400     1.6361940     0.2164580
  C       -2.7287170     0.0116090     0.3933420
  H        0.7287260    -0.5174670     1.4168530
  H        1.0195210     0.5454130    -1.4226110
  H       -1.7088400    -0.0087310    -1.3861360
  H       -0.4895840    -1.7781730    -1.0771710
  H       -1.0806180    -1.8736500     0.5969550
  H       -0.7401010     1.5214000     0.8863980
  H       -0.8919120     2.0130950    -0.8209550
  H        2.8677010    -1.2131930     0.3775700
  H        1.7829480    -2.5983540     0.4871410
  H        2.0117000    -1.7770280    -1.0688530
  H        2.8946680     1.2288240     0.0607940
  H        1.8521765     2.6568871    -0.2970310
  H        1.7463830     1.7834510     1.2910380
  H       -2.4748400    -0.0372670     1.4518960
  H       -3.2625880     0.9370400     0.1753330
  H       -3.3330800    -0.8496000     0.1082720
units angstrom
no_reorient  #important for SAPT in psi4, default
symmetry c1  #important for SAPT in psi4, default
}

set PROPERTIES_ORIGIN ["COM"]
properties('MP2/aug-cc-pvtz', properties = ['dipole'])
--------------------------------------------------------------------------

    Molecular point group: c1
  Charge       = 1
  Multiplicity = 1
  Basis Set: AUG-CC-PVTZ
    Blend: AUG-CC-PVTZ
  Basis Set: (AUG-CC-PVTZ AUX)
    Blend: AUG-CC-PVTZ-JKFIT

    Orbital Energies [Eh]
    ---------------------

    Doubly Occupied:

       1A    -15.852219     2A    -11.449073     3A    -11.446412
       4A    -11.445709     5A    -11.391297     6A    -11.390500
       7A    -11.358556     8A    -11.352722     9A     -1.489529
      10A     -1.272139    11A     -1.192943    12A     -1.142420
      13A     -1.093291    14A     -1.064738    15A     -0.985958
      16A     -0.939504    17A     -0.903337    18A     -0.844419
      19A     -0.822174    20A     -0.786015    21A     -0.763344
      22A     -0.754012    23A     -0.734459    24A     -0.714977
      25A     -0.700952    26A     -0.697402    27A     -0.671202
      28A     -0.663235    29A     -0.647593    30A     -0.628715
      31A     -0.623157    32A     -0.600723

  @DF-RHF Final Energy:  -328.75211076220103

   => Energetics <=

    Nuclear Repulsion Energy =            424.2677987550025591
    One-Electron Energy =               -1273.1943708850699295
    Two-Electron Energy =                 520.1744613678663427
    Total Energy =                       -328.7521107622010277
  Basis Set: (AUG-CC-PVTZ AUX)
    Blend: AUG-CC-PVTZ-RI
    Molecular point group: c1

    Geometry (in Angstrom), charge = 1, multiplicity = 1:

       Center              X                  Y                   Z               Mass
    ------------   -----------------  -----------------  -----------------  -----------------
         N           -1.446846476254    -0.006814344073    -0.384138339800    14.003074004430
         C            0.778146523746    -0.682488344073     0.338139660200    12.000000000000
         C            0.846862523746     0.692415655927    -0.340185339800    12.000000000000
         C           -0.569178476254    -1.235912344073    -0.124881339800    12.000000000000
         C           -0.569088476254     1.209507655927    -0.142712339800    12.000000000000
         C            1.932390523746    -1.624449344073     0.018622660200    12.000000000000
         C            1.901528523746     1.635695655927     0.223638660200    12.000000000000
         C           -2.720628476254     0.011110655927     0.400522660200    12.000000000000
         H            0.736814523746    -0.517965344073     1.424033660200     1.007825032230
         H            1.027609523746     0.544914655927    -1.415430339800     1.007825032230
         H           -1.700751476254    -0.009229344073    -1.378955339800     1.007825032230
         H           -0.481495476254    -1.778671344073    -1.069990339800     1.007825032230
         H           -1.072529476254    -1.874148344073     0.604135660200     1.007825032230
         H           -0.732012476254     1.520901655927     0.893578660200     1.007825032230
         H           -0.883823476254     2.012596655927    -0.813774339800     1.007825032230
         H            2.875789523746    -1.213691344073     0.384750660200     1.007825032230
         H            1.791036523746    -2.598852344073     0.494321660200     1.007825032230
         H            2.019788523746    -1.777526344073    -1.061672339800     1.007825032230
         H            2.902756523746     1.228325655927     0.067974660200     1.007825032230
         H            1.860265023746     2.656388755927    -0.289850339800     1.007825032230
         H            1.754471523746     1.782952655927     1.298218660200     1.007825032230
         H           -2.466751476254    -0.037765344073     1.459076660200     1.007825032230
         H           -3.254499476254     0.936541655927     0.182513660200     1.007825032230
         H           -3.324991476254    -0.850098344073     0.115452660200     1.007825032230

  Basis Set: AUG-CC-PVTZ
    Blend: AUG-CC-PVTZ
  Basis Set: (AUG-CC-PVTZ AUX)
    Blend: AUG-CC-PVTZ-JKFIT
	 Reference Energy          =    -328.7521107622010277 [Eh]
	 Singles Energy            =      -0.0000000000000000 [Eh]
	 Same-Spin Energy          =      -0.3477997028651102 [Eh]
	 Opposite-Spin Energy      =      -1.2502088427435072 [Eh]
	 Correlation Energy        =      -1.5980085456086175 [Eh]
	 Total Energy              =    -330.3501193078096208 [Eh]

	 ================> DF-SCS-MP2 Energies <==================
	-----------------------------------------------------------
	 SCS Same-Spin Scale       =       0.3333333333333333 [-]
	 SCS Opposite-Spin Scale   =       1.2000000000000000 [-]
	 SCS Same-Spin Energy      =      -0.1159332342883701 [Eh]
	 SCS Opposite-Spin Energy  =      -1.5002506112922085 [Eh]
	 SCS Correlation Energy    =      -1.6161838455805786 [Eh]
	 SCS Total Energy          =    -330.3682946077815927 [Eh]
	-----------------------------------------------------------

  Dipole Moment: [D]
     X:    -4.3592      Y:    -0.0194      Z:    -0.8610     Total:     4.4434

*** Psi4 exiting successfully. Buy a developer a beer!
