                               Psi4 1.4a3.dev225

  ==> Input File <==

--------------------------------------------------------------------------
#psi4
#
memory 32 gb

molecule  {
1 1
  N       -1.4549350    -0.0063160    -0.3913190
  C        0.7700580    -0.6819900     0.3309590
  C        0.8609706     0.6982914    -0.3953759
  C       -0.5772670    -1.2354140    -0.1320620
  C       -0.5771770     1.2100060    -0.1498930
  C        1.9243020    -1.6239510     0.0114420
  C        1.8934400     1.6361940     0.2164580
  C       -2.7287170     0.0116090     0.3933420
  H        0.7287260    -0.5174670     1.4168530
  H        1.0195210     0.5454130    -1.4226110
  H       -1.7088400    -0.0087310    -1.3861360
  H       -0.4895840    -1.7781730    -1.0771710
  H       -1.0806180    -1.8736500     0.5969550
  H       -0.7401010     1.5214000     0.8863980
  H       -0.8919120     2.0130950    -0.8209550
  H        2.8677010    -1.2131930     0.3775700
  H        1.7829480    -2.5983540     0.4871410
  H        2.0117000    -1.7770280    -1.0688530
  H        2.8946680     1.2288240     0.0607940
  H        1.8539810     2.6122500    -0.2745750
  H        1.7463830     1.7834510     1.2910380
  H       -2.4748400    -0.0372670     1.4518960
  H       -3.2625880     0.9370400     0.1753330
  H       -3.3330800    -0.8496000     0.1082720
units angstrom
no_reorient  #important for SAPT in psi4, default
symmetry c1  #important for SAPT in psi4, default
}

set PROPERTIES_ORIGIN ["COM"]
properties('MP2/aug-cc-pvtz', properties = ['dipole'])
--------------------------------------------------------------------------

    Molecular point group: c1
  Charge       = 1
  Multiplicity = 1
  Basis Set: AUG-CC-PVTZ
    Blend: AUG-CC-PVTZ
  Basis Set: (AUG-CC-PVTZ AUX)
    Blend: AUG-CC-PVTZ-JKFIT

    Orbital Energies [Eh]
    ---------------------

    Doubly Occupied:

       1A    -15.851648     2A    -11.448702     3A    -11.445827
       4A    -11.445738     5A    -11.391157     6A    -11.389866
       7A    -11.352546     8A    -11.351702     9A     -1.488155
      10A     -1.267814    11A     -1.191214    12A     -1.142015
      13A     -1.094635    14A     -1.063759    15A     -0.986481
      16A     -0.942092    17A     -0.903405    18A     -0.842728
      19A     -0.824333    20A     -0.785765    21A     -0.761050
      22A     -0.753372    23A     -0.733900    24A     -0.715020
      25A     -0.703406    26A     -0.696862    27A     -0.675480
      28A     -0.660690    29A     -0.654345    30A     -0.629756
      31A     -0.624560    32A     -0.594741

  @DF-RHF Final Energy:  -328.75140577424503

   => Energetics <=

    Nuclear Repulsion Energy =            423.8984102790981865
    One-Electron Energy =               -1272.4741004794043420
    Two-Electron Energy =                 519.8242844260610127
    Total Energy =                       -328.7514057742450859
  Basis Set: (AUG-CC-PVTZ AUX)
    Blend: AUG-CC-PVTZ-RI
    Molecular point group: c1

    Geometry (in Angstrom), charge = 1, multiplicity = 1:

       Center              X                  Y                   Z               Mass
    ------------   -----------------  -----------------  -----------------  -----------------
         N           -1.449196269252    -0.006985576078    -0.379288646914    14.003074004430
         C            0.775796730748    -0.682659576078     0.342989353086    12.000000000000
         C            0.866709330748     0.697621823922    -0.383345546914    12.000000000000
         C           -0.571528269252    -1.236083576078    -0.120031646914    12.000000000000
         C           -0.571438269252     1.209336423922    -0.137862646914    12.000000000000
         C            1.930040730748    -1.624620576078     0.023472353086    12.000000000000
         C            1.899178730748     1.635524423922     0.228488353086    12.000000000000
         C           -2.722978269252     0.010939423922     0.405372353086    12.000000000000
         H            0.734464730748    -0.518136576078     1.428883353086     1.007825032230
         H            1.025259730748     0.544743423922    -1.410580646914     1.007825032230
         H           -1.703101269252    -0.009400576078    -1.374105646914     1.007825032230
         H           -0.483845269252    -1.778842576078    -1.065140646914     1.007825032230
         H           -1.074879269252    -1.874319576078     0.608985353086     1.007825032230
         H           -0.734362269252     1.520730423922     0.898428353086     1.007825032230
         H           -0.886173269252     2.012425423922    -0.808924646914     1.007825032230
         H            2.873439730748    -1.213862576078     0.389600353086     1.007825032230
         H            1.788686730748    -2.599023576078     0.499171353086     1.007825032230
         H            2.017438730748    -1.777697576078    -1.056822646914     1.007825032230
         H            2.900406730748     1.228154423922     0.072824353086     1.007825032230
         H            1.859719730748     2.611580423922    -0.262544646914     1.007825032230
         H            1.752121730748     1.782781423922     1.303068353086     1.007825032230
         H           -2.469101269252    -0.037936576078     1.463926353086     1.007825032230
         H           -3.256849269252     0.936370423922     0.187363353086     1.007825032230
         H           -3.327341269252    -0.850269576078     0.120302353086     1.007825032230

  Basis Set: AUG-CC-PVTZ
    Blend: AUG-CC-PVTZ
  Basis Set: (AUG-CC-PVTZ AUX)
    Blend: AUG-CC-PVTZ-JKFIT
	 Reference Energy          =    -328.7514057742450291 [Eh]
	 Singles Energy            =      -0.0000000000000000 [Eh]
	 Same-Spin Energy          =      -0.3475688279971997 [Eh]
	 Opposite-Spin Energy      =      -1.2498013754591761 [Eh]
	 Correlation Energy        =      -1.5973702034563759 [Eh]
	 Total Energy              =    -330.3487759777013935 [Eh]

	 ================> DF-SCS-MP2 Energies <==================
	-----------------------------------------------------------
	 SCS Same-Spin Scale       =       0.3333333333333333 [-]
	 SCS Opposite-Spin Scale   =       1.2000000000000000 [-]
	 SCS Same-Spin Energy      =      -0.1158562759990666 [Eh]
	 SCS Opposite-Spin Energy  =      -1.4997616505510114 [Eh]
	 SCS Correlation Energy    =      -1.6156179265500781 [Eh]
	 SCS Total Energy          =    -330.3670237007951300 [Eh]
	-----------------------------------------------------------

  Dipole Moment: [D]
     X:    -4.3556      Y:     0.0027      Z:    -0.8599     Total:     4.4396

*** Psi4 exiting successfully. Buy a developer a beer!
