                               Psi4 1.4a3.dev225

  ==> Input File <==

--------------------------------------------------------------------------
#psi4
#
memory 32 gb

molecule  {
1 1
  N       -1.4549350    -0.0063160    -0.3913190
  C        0.7700580    -0.6819900     0.3309590
  C        0.8387740     0.6929140    -0.3473660
  C       -0.5658121    -1.2514557    -0.1286783
  C       -0.5771770     1.2100060    -0.1498930
  C        1.9243020    -1.6239510     0.0114420
  C        1.8934400     1.6361940     0.2164580
  C       -2.7287170     0.0116090     0.3933420
  H        0.7287260    -0.5174670     1.4168530
  H        1.0195210     0.5454130    -1.4226110
  H       -1.7088400    -0.0087310    -1.3861360
  H       -0.4895840    -1.7781730    -1.0771710
  H       -1.0806180    -1.8736500     0.5969550
  H       -0.7401010     1.5214000     0.8863980
  H       -0.8919120     2.0130950    -0.8209550
  H        2.8677010    -1.2131930     0.3775700
  H        1.7829480    -2.5983540     0.4871410
  H        2.0117000    -1.7770280    -1.0688530
  H        2.8946680     1.2288240     0.0607940
  H        1.8539810     2.6122500    -0.2745750
  H        1.7463830     1.7834510     1.2910380
  H       -2.4748400    -0.0372670     1.4518960
  H       -3.2625880     0.9370400     0.1753330
  H       -3.3330800    -0.8496000     0.1082720
units angstrom
no_reorient  #important for SAPT in psi4, default
symmetry c1  #important for SAPT in psi4, default
}

set PROPERTIES_ORIGIN ["COM"]
properties('MP2/aug-cc-pvtz', properties = ['dipole'])
--------------------------------------------------------------------------

    Molecular point group: c1
  Charge       = 1
  Multiplicity = 1
  Basis Set: AUG-CC-PVTZ
    Blend: AUG-CC-PVTZ
  Basis Set: (AUG-CC-PVTZ AUX)
    Blend: AUG-CC-PVTZ-JKFIT

    Orbital Energies [Eh]
    ---------------------

    Doubly Occupied:

       1A    -15.850466     2A    -11.448176     3A    -11.447286
       4A    -11.445045     5A    -11.391112     6A    -11.390304
       7A    -11.352906     8A    -11.352724     9A     -1.485260
      10A     -1.272352    11A     -1.193748    12A     -1.141251
      13A     -1.094284    14A     -1.065108    15A     -0.987741
      16A     -0.939728    17A     -0.901010    18A     -0.843849
      19A     -0.820411    20A     -0.787491    21A     -0.763833
      22A     -0.755249    23A     -0.735579    24A     -0.712936
      25A     -0.700782    26A     -0.699082    27A     -0.676584
      28A     -0.662043    29A     -0.647837    30A     -0.628892
      31A     -0.623519    32A     -0.603963

  @DF-RHF Final Energy:  -328.75387934616930

   => Energetics <=

    Nuclear Repulsion Energy =            424.2641335378503413
    One-Electron Energy =               -1273.1949268269167987
    Two-Electron Energy =                 520.1769139428972721
    Total Energy =                       -328.7538793461692421
  Basis Set: (AUG-CC-PVTZ AUX)
    Blend: AUG-CC-PVTZ-RI
    Molecular point group: c1

    Geometry (in Angstrom), charge = 1, multiplicity = 1:

       Center              X                  Y                   Z               Mass
    ------------   -----------------  -----------------  -----------------  -----------------
         N           -1.448066834845    -0.004733468079    -0.384692419140    14.003074004430
         C            0.776926165155    -0.680407468079     0.337585580860    12.000000000000
         C            0.845642165155     0.694496531921    -0.340739419140    12.000000000000
         C           -0.558943934845    -1.249873168079    -0.122051719140    12.000000000000
         C           -0.570308834845     1.211588531921    -0.143266419140    12.000000000000
         C            1.931170165155    -1.622368468079     0.018068580860    12.000000000000
         C            1.900308165155     1.637776531921     0.223084580860    12.000000000000
         C           -2.721848834845     0.013191531921     0.399968580860    12.000000000000
         H            0.735594165155    -0.515884468079     1.423479580860     1.007825032230
         H            1.026389165155     0.546995531921    -1.415984419140     1.007825032230
         H           -1.701971834845    -0.007148468079    -1.379509419140     1.007825032230
         H           -0.482715834845    -1.776590468079    -1.070544419140     1.007825032230
         H           -1.073749834845    -1.872067468079     0.603581580860     1.007825032230
         H           -0.733232834845     1.522982531921     0.893024580860     1.007825032230
         H           -0.885043834845     2.014677531921    -0.814328419140     1.007825032230
         H            2.874569165155    -1.211610468079     0.384196580860     1.007825032230
         H            1.789816165155    -2.596771468079     0.493767580860     1.007825032230
         H            2.018568165155    -1.775445468079    -1.062226419140     1.007825032230
         H            2.901536165155     1.230406531921     0.067420580860     1.007825032230
         H            1.860849165155     2.613832531921    -0.267948419140     1.007825032230
         H            1.753251165155     1.785033531921     1.297664580860     1.007825032230
         H           -2.467971834845    -0.035684468079     1.458522580860     1.007825032230
         H           -3.255719834845     0.938622531921     0.181959580860     1.007825032230
         H           -3.326211834845    -0.848017468079     0.114898580860     1.007825032230

  Basis Set: AUG-CC-PVTZ
    Blend: AUG-CC-PVTZ
  Basis Set: (AUG-CC-PVTZ AUX)
    Blend: AUG-CC-PVTZ-JKFIT
	 Reference Energy          =    -328.7538793461692990 [Eh]
	 Singles Energy            =      -0.0000000000000000 [Eh]
	 Same-Spin Energy          =      -0.3477462549471345 [Eh]
	 Opposite-Spin Energy      =      -1.2499005766108899 [Eh]
	 Correlation Energy        =      -1.5976468315580243 [Eh]
	 Total Energy              =    -330.3515261777273508 [Eh]

	 ================> DF-SCS-MP2 Energies <==================
	-----------------------------------------------------------
	 SCS Same-Spin Scale       =       0.3333333333333333 [-]
	 SCS Opposite-Spin Scale   =       1.2000000000000000 [-]
	 SCS Same-Spin Energy      =      -0.1159154183157115 [Eh]
	 SCS Opposite-Spin Energy  =      -1.4998806919330678 [Eh]
	 SCS Correlation Energy    =      -1.6157961102487792 [Eh]
	 SCS Total Energy          =    -330.3696754564180651 [Eh]
	-----------------------------------------------------------

  Dipole Moment: [D]
     X:    -4.3313      Y:    -0.0213      Z:    -0.8648     Total:     4.4168

*** Psi4 exiting successfully. Buy a developer a beer!
