                               Psi4 1.4a3.dev225

  ==> Input File <==

--------------------------------------------------------------------------
#psi4
#
memory 32 gb

molecule  {
1 1
  N       -1.4549350    -0.0063160    -0.3913190
  C        0.7700580    -0.6819900     0.3309590
  C        0.8471032     0.6739890    -0.3306579
  C       -0.5772670    -1.2354140    -0.1320620
  C       -0.5771770     1.2100060    -0.1498930
  C        1.9243020    -1.6239510     0.0114420
  C        1.8934400     1.6361940     0.2164580
  C       -2.7287170     0.0116090     0.3933420
  H        0.7287260    -0.5174670     1.4168530
  H        1.0195210     0.5454130    -1.4226110
  H       -1.7088400    -0.0087310    -1.3861360
  H       -0.4895840    -1.7781730    -1.0771710
  H       -1.0806180    -1.8736500     0.5969550
  H       -0.7401010     1.5214000     0.8863980
  H       -0.8919120     2.0130950    -0.8209550
  H        2.8677010    -1.2131930     0.3775700
  H        1.7829480    -2.5983540     0.4871410
  H        2.0117000    -1.7770280    -1.0688530
  H        2.8946680     1.2288240     0.0607940
  H        1.8539810     2.6122500    -0.2745750
  H        1.7463830     1.7834510     1.2910380
  H       -2.4748400    -0.0372670     1.4518960
  H       -3.2625880     0.9370400     0.1753330
  H       -3.3330800    -0.8496000     0.1082720
units angstrom
no_reorient  #important for SAPT in psi4, default
symmetry c1  #important for SAPT in psi4, default
}

set PROPERTIES_ORIGIN ["COM"]
properties('MP2/aug-cc-pvtz', properties = ['dipole'])
--------------------------------------------------------------------------

    Molecular point group: c1
  Charge       = 1
  Multiplicity = 1
  Basis Set: AUG-CC-PVTZ
    Blend: AUG-CC-PVTZ
  Basis Set: (AUG-CC-PVTZ AUX)
    Blend: AUG-CC-PVTZ-JKFIT

    Orbital Energies [Eh]
    ---------------------

    Doubly Occupied:

       1A    -15.852031     2A    -11.448910     3A    -11.446596
       4A    -11.445701     5A    -11.391607     6A    -11.389575
       7A    -11.352888     8A    -11.352699     9A     -1.489332
      10A     -1.274294    11A     -1.191948    12A     -1.142978
      13A     -1.094777    14A     -1.065626    15A     -0.989668
      16A     -0.937984    17A     -0.903217    18A     -0.844773
      19A     -0.821003    20A     -0.786063    21A     -0.763780
      22A     -0.755779    23A     -0.735585    24A     -0.715287
      25A     -0.700941    26A     -0.697168    27A     -0.676946
      28A     -0.663450    29A     -0.646802    30A     -0.626703
      31A     -0.618881    32A     -0.608719

  @DF-RHF Final Energy:  -328.75340371570184

   => Energetics <=

    Nuclear Repulsion Energy =            424.6677294606013220
    One-Electron Energy =               -1273.9788490051664667
    Two-Electron Energy =                 520.5577158288633655
    Total Energy =                       -328.7534037157017792
  Basis Set: (AUG-CC-PVTZ AUX)
    Blend: AUG-CC-PVTZ-RI
    Molecular point group: c1

    Geometry (in Angstrom), charge = 1, multiplicity = 1:

       Center              X                  Y                   Z               Mass
    ------------   -----------------  -----------------  -----------------  -----------------
         N           -1.447738183596    -0.004430303940    -0.386093411143    14.003074004430
         C            0.777254816404    -0.680104303940     0.336184588857    12.000000000000
         C            0.854300016404     0.675874696060    -0.325432311143    12.000000000000
         C           -0.570070183596    -1.233528303940    -0.126836411143    12.000000000000
         C           -0.569980183596     1.211891696060    -0.144667411143    12.000000000000
         C            1.931498816404    -1.622065303940     0.016667588857    12.000000000000
         C            1.900636816404     1.638079696060     0.221683588857    12.000000000000
         C           -2.721520183596     0.013494696060     0.398567588857    12.000000000000
         H            0.735922816404    -0.515581303940     1.422078588857     1.007825032230
         H            1.026717816404     0.547298696060    -1.417385411143     1.007825032230
         H           -1.701643183596    -0.006845303940    -1.380910411143     1.007825032230
         H           -0.482387183596    -1.776287303940    -1.071945411143     1.007825032230
         H           -1.073421183596    -1.871764303940     0.602180588857     1.007825032230
         H           -0.732904183596     1.523285696060     0.891623588857     1.007825032230
         H           -0.884715183596     2.014980696060    -0.815729411143     1.007825032230
         H            2.874897816404    -1.211307303940     0.382795588857     1.007825032230
         H            1.790144816404    -2.596468303940     0.492366588857     1.007825032230
         H            2.018896816404    -1.775142303940    -1.063627411143     1.007825032230
         H            2.901864816404     1.230709696060     0.066019588857     1.007825032230
         H            1.861177816404     2.614135696060    -0.269349411143     1.007825032230
         H            1.753579816404     1.785336696060     1.296263588857     1.007825032230
         H           -2.467643183596    -0.035381303940     1.457121588857     1.007825032230
         H           -3.255391183596     0.938925696060     0.180558588857     1.007825032230
         H           -3.325883183596    -0.847714303940     0.113497588857     1.007825032230

  Basis Set: AUG-CC-PVTZ
    Blend: AUG-CC-PVTZ
  Basis Set: (AUG-CC-PVTZ AUX)
    Blend: AUG-CC-PVTZ-JKFIT
	 Reference Energy          =    -328.7534037157018361 [Eh]
	 Singles Energy            =      -0.0000000000000000 [Eh]
	 Same-Spin Energy          =      -0.3478889738648205 [Eh]
	 Opposite-Spin Energy      =      -1.2499874286309323 [Eh]
	 Correlation Energy        =      -1.5978764024957528 [Eh]
	 Total Energy              =    -330.3512801181975647 [Eh]

	 ================> DF-SCS-MP2 Energies <==================
	-----------------------------------------------------------
	 SCS Same-Spin Scale       =       0.3333333333333333 [-]
	 SCS Opposite-Spin Scale   =       1.2000000000000000 [-]
	 SCS Same-Spin Energy      =      -0.1159629912882735 [Eh]
	 SCS Opposite-Spin Energy  =      -1.4999849143571187 [Eh]
	 SCS Correlation Energy    =      -1.6159479056453923 [Eh]
	 SCS Total Energy          =    -330.3693516213472208 [Eh]
	-----------------------------------------------------------

  Dipole Moment: [D]
     X:    -4.3608      Y:     0.0065      Z:    -0.8696     Total:     4.4467

*** Psi4 exiting successfully. Buy a developer a beer!
