                               Psi4 1.4a3.dev225

  ==> Input File <==

--------------------------------------------------------------------------
#psi4
#
memory 32 gb

molecule  {
1 1
  N       -1.4549350    -0.0063160    -0.3913190
  C        0.7700580    -0.6819900     0.3309590
  C        0.8387740     0.6929140    -0.3473660
  C       -0.5772670    -1.2354140    -0.1320620
  C       -0.5771770     1.2100060    -0.1498930
  C        1.9243020    -1.6239510     0.0114420
  C        1.8465652     1.6259082     0.3113249
  C       -2.7287170     0.0116090     0.3933420
  H        0.7287260    -0.5174670     1.4168530
  H        1.0195210     0.5454130    -1.4226110
  H       -1.7088400    -0.0087310    -1.3861360
  H       -0.4895840    -1.7781730    -1.0771710
  H       -1.0806180    -1.8736500     0.5969550
  H       -0.7401010     1.5214000     0.8863980
  H       -0.8919120     2.0130950    -0.8209550
  H        2.8677010    -1.2131930     0.3775700
  H        1.7829480    -2.5983540     0.4871410
  H        2.0117000    -1.7770280    -1.0688530
  H        2.8946680     1.2288240     0.0607940
  H        1.8539810     2.6122500    -0.2745750
  H        1.7463830     1.7834510     1.2910380
  H       -2.4748400    -0.0372670     1.4518960
  H       -3.2625880     0.9370400     0.1753330
  H       -3.3330800    -0.8496000     0.1082720
units angstrom
no_reorient  #important for SAPT in psi4, default
symmetry c1  #important for SAPT in psi4, default
}

set PROPERTIES_ORIGIN ["COM"]
properties('MP2/aug-cc-pvtz', properties = ['dipole'])
--------------------------------------------------------------------------

    Molecular point group: c1
  Charge       = 1
  Multiplicity = 1
  Basis Set: AUG-CC-PVTZ
    Blend: AUG-CC-PVTZ
  Basis Set: (AUG-CC-PVTZ AUX)
    Blend: AUG-CC-PVTZ-JKFIT

    Orbital Energies [Eh]
    ---------------------

    Doubly Occupied:

       1A    -15.851489     2A    -11.448774     3A    -11.445687
       4A    -11.444979     5A    -11.391915     6A    -11.389691
       7A    -11.354078     8A    -11.352205     9A     -1.489110
      10A     -1.272987    11A     -1.193446    12A     -1.142543
      13A     -1.094412    14A     -1.064801    15A     -0.988513
      16A     -0.941602    17A     -0.903433    18A     -0.844216
      19A     -0.823615    20A     -0.786432    21A     -0.762615
      22A     -0.754043    23A     -0.731496    24A     -0.722510
      25A     -0.709777    26A     -0.697088    27A     -0.665369
      28A     -0.663926    29A     -0.655858    30A     -0.627110
      31A     -0.618858    32A     -0.594545

  @DF-RHF Final Energy:  -328.74027755663826

   => Energetics <=

    Nuclear Repulsion Energy =            424.8587334284011945
    One-Electron Energy =               -1274.3437803294821151
    Two-Electron Energy =                 520.7447693444427159
    Total Energy =                       -328.7402775566382616
  Basis Set: (AUG-CC-PVTZ AUX)
    Blend: AUG-CC-PVTZ-RI
    Molecular point group: c1

    Geometry (in Angstrom), charge = 1, multiplicity = 1:

       Center              X                  Y                   Z               Mass
    ------------   -----------------  -----------------  -----------------  -----------------
         N           -1.441933767444    -0.005338671305    -0.394311406236    14.003074004430
         C            0.783059232556    -0.681012671305     0.327966593764    12.000000000000
         C            0.851775232556     0.693891328695    -0.350358406236    12.000000000000
         C           -0.564265767444    -1.234436671305    -0.135054406236    12.000000000000
         C           -0.564175767444     1.210983328695    -0.152885406236    12.000000000000
         C            1.937303232556    -1.622973671305     0.008449593764    12.000000000000
         C            1.859566432556     1.626885528695     0.308332493764    12.000000000000
         C           -2.715715767444     0.012586328695     0.390349593764    12.000000000000
         H            0.741727232556    -0.516489671305     1.413860593764     1.007825032230
         H            1.032522232556     0.546390328695    -1.425603406236     1.007825032230
         H           -1.695838767444    -0.007753671305    -1.389128406236     1.007825032230
         H           -0.476582767444    -1.777195671305    -1.080163406236     1.007825032230
         H           -1.067616767444    -1.872672671305     0.593962593764     1.007825032230
         H           -0.727099767444     1.522377328695     0.883405593764     1.007825032230
         H           -0.878910767444     2.014072328695    -0.823947406236     1.007825032230
         H            2.880702232556    -1.212215671305     0.374577593764     1.007825032230
         H            1.795949232556    -2.597376671305     0.484148593764     1.007825032230
         H            2.024701232556    -1.776050671305    -1.071845406236     1.007825032230
         H            2.907669232556     1.229801328695     0.057801593764     1.007825032230
         H            1.866982232556     2.613227328695    -0.277567406236     1.007825032230
         H            1.759384232556     1.784428328695     1.288045593764     1.007825032230
         H           -2.461838767444    -0.036289671305     1.448903593764     1.007825032230
         H           -3.249586767444     0.938017328695     0.172340593764     1.007825032230
         H           -3.320078767444    -0.848622671305     0.105279593764     1.007825032230

  Basis Set: AUG-CC-PVTZ
    Blend: AUG-CC-PVTZ
  Basis Set: (AUG-CC-PVTZ AUX)
    Blend: AUG-CC-PVTZ-JKFIT
	 Reference Energy          =    -328.7402775566382616 [Eh]
	 Singles Energy            =      -0.0000000000000000 [Eh]
	 Same-Spin Energy          =      -0.3481333038783030 [Eh]
	 Opposite-Spin Energy      =      -1.2506971502920101 [Eh]
	 Correlation Energy        =      -1.5988304541703131 [Eh]
	 Total Energy              =    -330.3391080108085589 [Eh]

	 ================> DF-SCS-MP2 Energies <==================
	-----------------------------------------------------------
	 SCS Same-Spin Scale       =       0.3333333333333333 [-]
	 SCS Opposite-Spin Scale   =       1.2000000000000000 [-]
	 SCS Same-Spin Energy      =      -0.1160444346261010 [Eh]
	 SCS Opposite-Spin Energy  =      -1.5008365803504120 [Eh]
	 SCS Correlation Energy    =      -1.6168810149765129 [Eh]
	 SCS Total Energy          =    -330.3571585716147752 [Eh]
	-----------------------------------------------------------

  Dipole Moment: [D]
     X:    -4.3313      Y:     0.0020      Z:    -0.8979     Total:     4.4234

*** Psi4 exiting successfully. Buy a developer a beer!
