                               Psi4 1.4a3.dev225

  ==> Input File <==

--------------------------------------------------------------------------
#psi4
#
memory 32 gb

molecule  {
1 1
  N       -1.4549350    -0.0063160    -0.3913190
  C        0.7700580    -0.6819900     0.3309590
  C        0.8387740     0.6929140    -0.3473660
  C       -0.5772670    -1.2354140    -0.1320620
  C       -0.5771770     1.2100060    -0.1498930
  C        1.9243020    -1.6239510     0.0114420
  C        1.8934400     1.6361940     0.2164580
  C       -2.7287170     0.0116090     0.3933420
  H        0.7287260    -0.5174670     1.4168530
  H        1.0195210     0.5454130    -1.4226110
  H       -1.7582999    -0.0092014    -1.5799232
  H       -0.4895840    -1.7781730    -1.0771710
  H       -1.0806180    -1.8736500     0.5969550
  H       -0.7401010     1.5214000     0.8863980
  H       -0.8919120     2.0130950    -0.8209550
  H        2.8677010    -1.2131930     0.3775700
  H        1.7829480    -2.5983540     0.4871410
  H        2.0117000    -1.7770280    -1.0688530
  H        2.8946680     1.2288240     0.0607940
  H        1.8539810     2.6122500    -0.2745750
  H        1.7463830     1.7834510     1.2910380
  H       -2.4748400    -0.0372670     1.4518960
  H       -3.2625880     0.9370400     0.1753330
  H       -3.3330800    -0.8496000     0.1082720
units angstrom
no_reorient  #important for SAPT in psi4, default
symmetry c1  #important for SAPT in psi4, default
}

set PROPERTIES_ORIGIN ["COM"]
properties('MP2/aug-cc-pvtz', properties = ['dipole'])
--------------------------------------------------------------------------

    Molecular point group: c1
  Charge       = 1
  Multiplicity = 1
  Basis Set: AUG-CC-PVTZ
    Blend: AUG-CC-PVTZ
  Basis Set: (AUG-CC-PVTZ AUX)
    Blend: AUG-CC-PVTZ-JKFIT

    Orbital Energies [Eh]
    ---------------------

    Doubly Occupied:

       1A    -15.865095     2A    -11.447618     3A    -11.444637
       4A    -11.444248     5A    -11.389777     6A    -11.389059
       7A    -11.351971     8A    -11.351809     9A     -1.470540
      10A     -1.267748    11A     -1.191480    12A     -1.139220
      13A     -1.093364    14A     -1.046868    15A     -0.978647
      16A     -0.936848    17A     -0.884307    18A     -0.841209
      19A     -0.817356    20A     -0.784460    21A     -0.761319
      22A     -0.751098    23A     -0.731324    24A     -0.712086
      25A     -0.699707    26A     -0.685809    27A     -0.675470
      28A     -0.660834    29A     -0.645851    30A     -0.626884
      31A     -0.621569    32A     -0.601923

  @DF-RHF Final Energy:  -328.72578222266043

   => Energetics <=

    Nuclear Repulsion Energy =            423.3743710723112486
    One-Electron Energy =               -1271.5800417191530869
    Two-Electron Energy =                 519.4798884241813539
    Total Energy =                       -328.7257822226604276
  Basis Set: (AUG-CC-PVTZ AUX)
    Blend: AUG-CC-PVTZ-RI
    Molecular point group: c1

    Geometry (in Angstrom), charge = 1, multiplicity = 1:

       Center              X                  Y                   Z               Mass
    ------------   -----------------  -----------------  -----------------  -----------------
         N           -1.446425648854    -0.006416016246    -0.382625376664    14.003074004430
         C            0.778567351146    -0.682090016246     0.339652623336    12.000000000000
         C            0.847283351146     0.692813983754    -0.338672376664    12.000000000000
         C           -0.568757648854    -1.235514016246    -0.123368376664    12.000000000000
         C           -0.568667648854     1.209905983754    -0.141199376664    12.000000000000
         C            1.932811351146    -1.624051016246     0.020135623336    12.000000000000
         C            1.901949351146     1.636093983754     0.225151623336    12.000000000000
         C           -2.720207648854     0.011508983754     0.402035623336    12.000000000000
         H            0.737235351146    -0.517567016246     1.425546623336     1.007825032230
         H            1.028030351146     0.545312983754    -1.413917376664     1.007825032230
         H           -1.749790548854    -0.009301416246    -1.571229576664     1.007825032230
         H           -0.481074648854    -1.778273016246    -1.068477376664     1.007825032230
         H           -1.072108648854    -1.873750016246     0.605648623336     1.007825032230
         H           -0.731591648854     1.521299983754     0.895091623336     1.007825032230
         H           -0.883402648854     2.012994983754    -0.812261376664     1.007825032230
         H            2.876210351146    -1.213293016246     0.386263623336     1.007825032230
         H            1.791457351146    -2.598454016246     0.495834623336     1.007825032230
         H            2.020209351146    -1.777128016246    -1.060159376664     1.007825032230
         H            2.903177351146     1.228723983754     0.069487623336     1.007825032230
         H            1.862490351146     2.612149983754    -0.265881376664     1.007825032230
         H            1.754892351146     1.783350983754     1.299731623336     1.007825032230
         H           -2.466330648854    -0.037367016246     1.460589623336     1.007825032230
         H           -3.254078648854     0.936939983754     0.184026623336     1.007825032230
         H           -3.324570648854    -0.849700016246     0.116965623336     1.007825032230

  Basis Set: AUG-CC-PVTZ
    Blend: AUG-CC-PVTZ
  Basis Set: (AUG-CC-PVTZ AUX)
    Blend: AUG-CC-PVTZ-JKFIT
	 Reference Energy          =    -328.7257822226604276 [Eh]
	 Singles Energy            =      -0.0000000000000000 [Eh]
	 Same-Spin Energy          =      -0.3493251023378177 [Eh]
	 Opposite-Spin Energy      =      -1.2544698368338185 [Eh]
	 Correlation Energy        =      -1.6037949391716362 [Eh]
	 Total Energy              =    -330.3295771618320487 [Eh]

	 ================> DF-SCS-MP2 Energies <==================
	-----------------------------------------------------------
	 SCS Same-Spin Scale       =       0.3333333333333333 [-]
	 SCS Opposite-Spin Scale   =       1.2000000000000000 [-]
	 SCS Same-Spin Energy      =      -0.1164417007792725 [Eh]
	 SCS Opposite-Spin Energy  =      -1.5053638042005821 [Eh]
	 SCS Correlation Energy    =      -1.6218055049798548 [Eh]
	 SCS Total Energy          =    -330.3475877276403025 [Eh]
	-----------------------------------------------------------

  Dipole Moment: [D]
     X:    -4.4336      Y:    -0.0009      Z:    -1.0746     Total:     4.5620

*** Psi4 exiting successfully. Buy a developer a beer!
