                               Psi4 1.4a3.dev225

  ==> Input File <==

--------------------------------------------------------------------------
#psi4
#
memory 32 gb

molecule  {
1 1
  N       -1.4366649     0.0027950    -0.4085955
  C        0.7700580    -0.6819900     0.3309590
  C        0.8387740     0.6929140    -0.3473660
  C       -0.5772670    -1.2354140    -0.1320620
  C       -0.5771770     1.2100060    -0.1498930
  C        1.9243020    -1.6239510     0.0114420
  C        1.8934400     1.6361940     0.2164580
  C       -2.7287170     0.0116090     0.3933420
  H        0.7287260    -0.5174670     1.4168530
  H        1.0195210     0.5454130    -1.4226110
  H       -1.7088400    -0.0087310    -1.3861360
  H       -0.4895840    -1.7781730    -1.0771710
  H       -1.0806180    -1.8736500     0.5969550
  H       -0.7401010     1.5214000     0.8863980
  H       -0.8919120     2.0130950    -0.8209550
  H        2.8677010    -1.2131930     0.3775700
  H        1.7829480    -2.5983540     0.4871410
  H        2.0117000    -1.7770280    -1.0688530
  H        2.8946680     1.2288240     0.0607940
  H        1.8539810     2.6122500    -0.2745750
  H        1.7463830     1.7834510     1.2910380
  H       -2.4748400    -0.0372670     1.4518960
  H       -3.2625880     0.9370400     0.1753330
  H       -3.3330800    -0.8496000     0.1082720
units angstrom
no_reorient  #important for SAPT in psi4, default
symmetry c1  #important for SAPT in psi4, default
}

set PROPERTIES_ORIGIN ["COM"]
properties('MP2/aug-cc-pvtz', properties = ['dipole'])
--------------------------------------------------------------------------

    Molecular point group: c1
  Charge       = 1
  Multiplicity = 1
  Basis Set: AUG-CC-PVTZ
    Blend: AUG-CC-PVTZ
  Basis Set: (AUG-CC-PVTZ AUX)
    Blend: AUG-CC-PVTZ-JKFIT

    Orbital Energies [Eh]
    ---------------------

    Doubly Occupied:

       1A    -15.851522     2A    -11.451495     3A    -11.446015
       4A    -11.444132     5A    -11.390251     6A    -11.389611
       7A    -11.352159     8A    -11.352137     9A     -1.489701
      10A     -1.270411    11A     -1.193682    12A     -1.141310
      13A     -1.094993    14A     -1.067574    15A     -0.987432
      16A     -0.939243    17A     -0.903528    18A     -0.844540
      19A     -0.820028    20A     -0.786551    21A     -0.762591
      22A     -0.754581    23A     -0.736120    24A     -0.718306
      25A     -0.700489    26A     -0.697629    27A     -0.676035
      28A     -0.661379    29A     -0.647001    30A     -0.627915
      31A     -0.622544    32A     -0.602542

  @DF-RHF Final Energy:  -328.75373015326323

   => Energetics <=

    Nuclear Repulsion Energy =            424.5762962695822580
    One-Electron Energy =               -1273.8131585131727661
    Two-Electron Energy =                 520.4831320903273308
    Total Energy =                       -328.7537301532631773
  Basis Set: (AUG-CC-PVTZ AUX)
    Blend: AUG-CC-PVTZ-RI
    Molecular point group: c1

    Geometry (in Angstrom), charge = 1, multiplicity = 1:

       Center              X                  Y                   Z               Mass
    ------------   -----------------  -----------------  -----------------  -----------------
         N           -1.430833977920     0.001572947268    -0.399493384403    14.003074004430
         C            0.775888922080    -0.683212052732     0.340061115597    12.000000000000
         C            0.844604922080     0.691691947268    -0.338263884403    12.000000000000
         C           -0.571436077920    -1.236636052732    -0.122959884403    12.000000000000
         C           -0.571346077920     1.208783947268    -0.140790884403    12.000000000000
         C            1.930132922080    -1.625173052732     0.020544115597    12.000000000000
         C            1.899270922080     1.634971947268     0.225560115597    12.000000000000
         C           -2.722886077920     0.010386947268     0.402444115597    12.000000000000
         H            0.734556922080    -0.518689052732     1.425955115597     1.007825032230
         H            1.025351922080     0.544190947268    -1.413508884403     1.007825032230
         H           -1.703009077920    -0.009953052732    -1.377033884403     1.007825032230
         H           -0.483753077920    -1.779395052732    -1.068068884403     1.007825032230
         H           -1.074787077920    -1.874872052732     0.606057115597     1.007825032230
         H           -0.734270077920     1.520177947268     0.895500115597     1.007825032230
         H           -0.886081077920     2.011872947268    -0.811852884403     1.007825032230
         H            2.873531922080    -1.214415052732     0.386672115597     1.007825032230
         H            1.788778922080    -2.599576052732     0.496243115597     1.007825032230
         H            2.017530922080    -1.778250052732    -1.059750884403     1.007825032230
         H            2.900498922080     1.227601947268     0.069896115597     1.007825032230
         H            1.859811922080     2.611027947268    -0.265472884403     1.007825032230
         H            1.752213922080     1.782228947268     1.300140115597     1.007825032230
         H           -2.469009077920    -0.038489052732     1.460998115597     1.007825032230
         H           -3.256757077920     0.935817947268     0.184435115597     1.007825032230
         H           -3.327249077920    -0.850822052732     0.117374115597     1.007825032230

  Basis Set: AUG-CC-PVTZ
    Blend: AUG-CC-PVTZ
  Basis Set: (AUG-CC-PVTZ AUX)
    Blend: AUG-CC-PVTZ-JKFIT
	 Reference Energy          =    -328.7537301532632341 [Eh]
	 Singles Energy            =      -0.0000000000000000 [Eh]
	 Same-Spin Energy          =      -0.3477051911868935 [Eh]
	 Opposite-Spin Energy      =      -1.2497610963729504 [Eh]
	 Correlation Energy        =      -1.5974662875598438 [Eh]
	 Total Energy              =    -330.3511964408230597 [Eh]

	 ================> DF-SCS-MP2 Energies <==================
	-----------------------------------------------------------
	 SCS Same-Spin Scale       =       0.3333333333333333 [-]
	 SCS Opposite-Spin Scale   =       1.2000000000000000 [-]
	 SCS Same-Spin Energy      =      -0.1159017303956311 [Eh]
	 SCS Opposite-Spin Energy  =      -1.4997133156475404 [Eh]
	 SCS Correlation Energy    =      -1.6156150460431715 [Eh]
	 SCS Total Energy          =    -330.3693451993063945 [Eh]
	-----------------------------------------------------------

  Dipole Moment: [D]
     X:    -4.4134      Y:    -0.0164      Z:    -0.8438     Total:     4.4934

*** Psi4 exiting successfully. Buy a developer a beer!
