                               Psi4 1.4a3.dev225

  ==> Input File <==

--------------------------------------------------------------------------
#psi4
#
memory 32 gb

molecule  {
1 1
  N       -1.4549350    -0.0063160    -0.3913190
  C        0.7700580    -0.6819900     0.3309590
  C        0.8387740     0.6929140    -0.3473660
  C       -0.6059044    -1.1953099    -0.1405213
  C       -0.5771770     1.2100060    -0.1498930
  C        1.9243020    -1.6239510     0.0114420
  C        1.8934400     1.6361940     0.2164580
  C       -2.7287170     0.0116090     0.3933420
  H        0.7287260    -0.5174670     1.4168530
  H        1.0195210     0.5454130    -1.4226110
  H       -1.7088400    -0.0087310    -1.3861360
  H       -0.4895840    -1.7781730    -1.0771710
  H       -1.0806180    -1.8736500     0.5969550
  H       -0.7401010     1.5214000     0.8863980
  H       -0.8919120     2.0130950    -0.8209550
  H        2.8677010    -1.2131930     0.3775700
  H        1.7829480    -2.5983540     0.4871410
  H        2.0117000    -1.7770280    -1.0688530
  H        2.8946680     1.2288240     0.0607940
  H        1.8539810     2.6122500    -0.2745750
  H        1.7463830     1.7834510     1.2910380
  H       -2.4748400    -0.0372670     1.4518960
  H       -3.2625880     0.9370400     0.1753330
  H       -3.3330800    -0.8496000     0.1082720
units angstrom
no_reorient  #important for SAPT in psi4, default
symmetry c1  #important for SAPT in psi4, default
}

set PROPERTIES_ORIGIN ["COM"]
properties('MP2/aug-cc-pvtz', properties = ['dipole'])
--------------------------------------------------------------------------

    Molecular point group: c1
  Charge       = 1
  Multiplicity = 1
  Basis Set: AUG-CC-PVTZ
    Blend: AUG-CC-PVTZ
  Basis Set: (AUG-CC-PVTZ AUX)
    Blend: AUG-CC-PVTZ-JKFIT

    Orbital Energies [Eh]
    ---------------------

    Doubly Occupied:

       1A    -15.855690     2A    -11.450938     3A    -11.447136
       4A    -11.444000     5A    -11.390560     6A    -11.389948
       7A    -11.352560     8A    -11.352084     9A     -1.500553
      10A     -1.271547    11A     -1.191852    12A     -1.146200
      13A     -1.096322    14A     -1.066277    15A     -0.986107
      16A     -0.939207    17A     -0.909175    18A     -0.847496
      19A     -0.826065    20A     -0.784056    21A     -0.761794
      22A     -0.754105    23A     -0.734557    24A     -0.721399
      25A     -0.701819    26A     -0.691774    27A     -0.675806
      28A     -0.664576    29A     -0.646186    30A     -0.627490
      31A     -0.620981    32A     -0.600110

  @DF-RHF Final Energy:  -328.75221113241372

   => Energetics <=

    Nuclear Repulsion Energy =            425.0585543068186212
    One-Electron Energy =               -1274.7247894601132430
    Two-Electron Energy =                 520.9140240208807882
    Total Energy =                       -328.7522111324137768
  Basis Set: (AUG-CC-PVTZ AUX)
    Blend: AUG-CC-PVTZ-RI
    Molecular point group: c1

    Geometry (in Angstrom), charge = 1, multiplicity = 1:

       Center              X                  Y                   Z               Mass
    ------------   -----------------  -----------------  -----------------  -----------------
         N           -1.443851336083    -0.010636909648    -0.383447188713    14.003074004430
         C            0.781141663917    -0.686310909648     0.338830811287    12.000000000000
         C            0.849857663917     0.688593090352    -0.339494188713    12.000000000000
         C           -0.594820736083    -1.199630809648    -0.132649488713    12.000000000000
         C           -0.566093336083     1.205685090352    -0.142021188713    12.000000000000
         C            1.935385663917    -1.628271909648     0.019313811287    12.000000000000
         C            1.904523663917     1.631873090352     0.224329811287    12.000000000000
         C           -2.717633336083     0.007288090352     0.401213811287    12.000000000000
         H            0.739809663917    -0.521787909648     1.424724811287     1.007825032230
         H            1.030604663917     0.541092090352    -1.414739188713     1.007825032230
         H           -1.697756336083    -0.013051909648    -1.378264188713     1.007825032230
         H           -0.478500336083    -1.782493909648    -1.069299188713     1.007825032230
         H           -1.069534336083    -1.877970909648     0.604826811287     1.007825032230
         H           -0.729017336083     1.517079090352     0.894269811287     1.007825032230
         H           -0.880828336083     2.008774090352    -0.813083188713     1.007825032230
         H            2.878784663917    -1.217513909648     0.385441811287     1.007825032230
         H            1.794031663917    -2.602674909648     0.495012811287     1.007825032230
         H            2.022783663917    -1.781348909648    -1.060981188713     1.007825032230
         H            2.905751663917     1.224503090352     0.068665811287     1.007825032230
         H            1.865064663917     2.607929090352    -0.266703188713     1.007825032230
         H            1.757466663917     1.779130090352     1.298909811287     1.007825032230
         H           -2.463756336083    -0.041587909648     1.459767811287     1.007825032230
         H           -3.251504336083     0.932719090352     0.183204811287     1.007825032230
         H           -3.321996336083    -0.853920909648     0.116143811287     1.007825032230

  Basis Set: AUG-CC-PVTZ
    Blend: AUG-CC-PVTZ
  Basis Set: (AUG-CC-PVTZ AUX)
    Blend: AUG-CC-PVTZ-JKFIT
	 Reference Energy          =    -328.7522111324137200 [Eh]
	 Singles Energy            =      -0.0000000000000000 [Eh]
	 Same-Spin Energy          =      -0.3480616508270430 [Eh]
	 Opposite-Spin Energy      =      -1.2499360018071179 [Eh]
	 Correlation Energy        =      -1.5979976526341608 [Eh]
	 Total Energy              =    -330.3502087850478688 [Eh]

	 ================> DF-SCS-MP2 Energies <==================
	-----------------------------------------------------------
	 SCS Same-Spin Scale       =       0.3333333333333333 [-]
	 SCS Opposite-Spin Scale   =       1.2000000000000000 [-]
	 SCS Same-Spin Energy      =      -0.1160205502756810 [Eh]
	 SCS Opposite-Spin Energy  =      -1.4999232021685416 [Eh]
	 SCS Correlation Energy    =      -1.6159437524442226 [Eh]
	 SCS Total Energy          =    -330.3681548848579155 [Eh]
	-----------------------------------------------------------

  Dipole Moment: [D]
     X:    -4.4090      Y:     0.0534      Z:    -0.8697     Total:     4.4943

*** Psi4 exiting successfully. Buy a developer a beer!
