                               Psi4 1.4a3.dev225

  ==> Input File <==

--------------------------------------------------------------------------
#psi4
#
memory 32 gb

molecule  {
1 1
  N       -1.4549350    -0.0063160    -0.3913190
  C        0.7700580    -0.6819900     0.3309590
  C        0.8387740     0.6929140    -0.3473660
  C       -0.5772670    -1.2354140    -0.1320620
  C       -0.5771770     1.2100060    -0.1498930
  C        1.9243020    -1.6239510     0.0114420
  C        1.9540535     1.6429964     0.0691553
  C       -2.7287170     0.0116090     0.3933420
  H        0.7287260    -0.5174670     1.4168530
  H        1.0195210     0.5454130    -1.4226110
  H       -1.7088400    -0.0087310    -1.3861360
  H       -0.4895840    -1.7781730    -1.0771710
  H       -1.0806180    -1.8736500     0.5969550
  H       -0.7401010     1.5214000     0.8863980
  H       -0.8919120     2.0130950    -0.8209550
  H        2.8677010    -1.2131930     0.3775700
  H        1.7829480    -2.5983540     0.4871410
  H        2.0117000    -1.7770280    -1.0688530
  H        2.8946680     1.2288240     0.0607940
  H        1.8539810     2.6122500    -0.2745750
  H        1.7463830     1.7834510     1.2910380
  H       -2.4748400    -0.0372670     1.4518960
  H       -3.2625880     0.9370400     0.1753330
  H       -3.3330800    -0.8496000     0.1082720
units angstrom
no_reorient  #important for SAPT in psi4, default
symmetry c1  #important for SAPT in psi4, default
}

set PROPERTIES_ORIGIN ["COM"]
properties('MP2/aug-cc-pvtz', properties = ['dipole'])
--------------------------------------------------------------------------

    Molecular point group: c1
  Charge       = 1
  Multiplicity = 1
  Basis Set: AUG-CC-PVTZ
    Blend: AUG-CC-PVTZ
  Basis Set: (AUG-CC-PVTZ AUX)
    Blend: AUG-CC-PVTZ-JKFIT

    Orbital Energies [Eh]
    ---------------------

    Doubly Occupied:

       1A    -15.853467     2A    -11.449633     3A    -11.447404
       4A    -11.447349     5A    -11.392577     6A    -11.391749
       7A    -11.357788     8A    -11.353313     9A     -1.490372
      10A     -1.272156    11A     -1.193813    12A     -1.143612
      13A     -1.097714    14A     -1.067717    15A     -0.988338
      16A     -0.939432    17A     -0.904122    18A     -0.846802
      19A     -0.821846    20A     -0.786520    21A     -0.765911
      22A     -0.760181    23A     -0.745224    24A     -0.715568
      25A     -0.698999    26A     -0.695588    27A     -0.688229
      28A     -0.670780    29A     -0.637524    30A     -0.631270
      31A     -0.614509    32A     -0.586692

  @DF-RHF Final Energy:  -328.73111597538053

   => Energetics <=

    Nuclear Repulsion Energy =            424.0240969684822403
    One-Electron Energy =               -1272.5980281703327819
    Two-Electron Energy =                 519.8428152264699520
    Total Energy =                       -328.7311159753805896
  Basis Set: (AUG-CC-PVTZ AUX)
    Blend: AUG-CC-PVTZ-RI
    Molecular point group: c1

    Geometry (in Angstrom), charge = 1, multiplicity = 1:

       Center              X                  Y                   Z               Mass
    ------------   -----------------  -----------------  -----------------  -----------------
         N           -1.453235608337    -0.007135407486    -0.368848520617    14.003074004430
         C            0.771757391663    -0.682809407486     0.353429479383    12.000000000000
         C            0.840473391663     0.692094592514    -0.324895520617    12.000000000000
         C           -0.575567608337    -1.236233407486    -0.109591520617    12.000000000000
         C           -0.575477608337     1.209186592514    -0.127422520617    12.000000000000
         C            1.926001391663    -1.624770407486     0.033912479383    12.000000000000
         C            1.955752891663     1.642176992514     0.091625779383    12.000000000000
         C           -2.727017608337     0.010789592514     0.415812479383    12.000000000000
         H            0.730425391663    -0.518286407486     1.439323479383     1.007825032230
         H            1.021220391663     0.544593592514    -1.400140520617     1.007825032230
         H           -1.707140608337    -0.009550407486    -1.363665520617     1.007825032230
         H           -0.487884608337    -1.778992407486    -1.054700520617     1.007825032230
         H           -1.078918608337    -1.874469407486     0.619425479383     1.007825032230
         H           -0.738401608337     1.520580592514     0.908868479383     1.007825032230
         H           -0.890212608337     2.012275592514    -0.798484520617     1.007825032230
         H            2.869400391663    -1.214012407486     0.400040479383     1.007825032230
         H            1.784647391663    -2.599173407486     0.509611479383     1.007825032230
         H            2.013399391663    -1.777847407486    -1.046382520617     1.007825032230
         H            2.896367391663     1.228004592514     0.083264479383     1.007825032230
         H            1.855680391663     2.611430592514    -0.252104520617     1.007825032230
         H            1.748082391663     1.782631592514     1.313508479383     1.007825032230
         H           -2.473140608337    -0.038086407486     1.474366479383     1.007825032230
         H           -3.260888608337     0.936220592514     0.197803479383     1.007825032230
         H           -3.331380608337    -0.850419407486     0.130742479383     1.007825032230

  Basis Set: AUG-CC-PVTZ
    Blend: AUG-CC-PVTZ
  Basis Set: (AUG-CC-PVTZ AUX)
    Blend: AUG-CC-PVTZ-JKFIT
	 Reference Energy          =    -328.7311159753805327 [Eh]
	 Singles Energy            =      -0.0000000000000000 [Eh]
	 Same-Spin Energy          =      -0.3480531828385086 [Eh]
	 Opposite-Spin Energy      =      -1.2507684128607262 [Eh]
	 Correlation Energy        =      -1.5988215956992347 [Eh]
	 Total Energy              =    -330.3299375710797676 [Eh]

	 ================> DF-SCS-MP2 Energies <==================
	-----------------------------------------------------------
	 SCS Same-Spin Scale       =       0.3333333333333333 [-]
	 SCS Opposite-Spin Scale   =       1.2000000000000000 [-]
	 SCS Same-Spin Energy      =      -0.1160177276128362 [Eh]
	 SCS Opposite-Spin Energy  =      -1.5009220954328713 [Eh]
	 SCS Correlation Energy    =      -1.6169398230457075 [Eh]
	 SCS Total Energy          =    -330.3480557984262305 [Eh]
	-----------------------------------------------------------

  Dipole Moment: [D]
     X:    -4.4099      Y:    -0.0341      Z:    -0.8753     Total:     4.4961

*** Psi4 exiting successfully. Buy a developer a beer!
