                               Psi4 1.4a3.dev225

  ==> Input File <==

--------------------------------------------------------------------------
#psi4
#
memory 32 gb

molecule  {
1 1
  N       -1.4549350    -0.0063160    -0.3913190
  C        0.7700580    -0.6819900     0.3309590
  C        0.8281559     0.6906559    -0.3230998
  C       -0.5772670    -1.2354140    -0.1320620
  C       -0.5771770     1.2100060    -0.1498930
  C        1.9243020    -1.6239510     0.0114420
  C        1.8934400     1.6361940     0.2164580
  C       -2.7287170     0.0116090     0.3933420
  H        0.7287260    -0.5174670     1.4168530
  H        1.0195210     0.5454130    -1.4226110
  H       -1.7088400    -0.0087310    -1.3861360
  H       -0.4895840    -1.7781730    -1.0771710
  H       -1.0806180    -1.8736500     0.5969550
  H       -0.7401010     1.5214000     0.8863980
  H       -0.8919120     2.0130950    -0.8209550
  H        2.8677010    -1.2131930     0.3775700
  H        1.7829480    -2.5983540     0.4871410
  H        2.0117000    -1.7770280    -1.0688530
  H        2.8946680     1.2288240     0.0607940
  H        1.8539810     2.6122500    -0.2745750
  H        1.7463830     1.7834510     1.2910380
  H       -2.4748400    -0.0372670     1.4518960
  H       -3.2625880     0.9370400     0.1753330
  H       -3.3330800    -0.8496000     0.1082720
units angstrom
no_reorient  #important for SAPT in psi4, default
symmetry c1  #important for SAPT in psi4, default
}

set PROPERTIES_ORIGIN ["COM"]
properties('MP2/aug-cc-pvtz', properties = ['dipole'])
--------------------------------------------------------------------------

    Molecular point group: c1
  Charge       = 1
  Multiplicity = 1
  Basis Set: AUG-CC-PVTZ
    Blend: AUG-CC-PVTZ
  Basis Set: (AUG-CC-PVTZ AUX)
    Blend: AUG-CC-PVTZ-JKFIT

    Orbital Energies [Eh]
    ---------------------

    Doubly Occupied:

       1A    -15.852405     2A    -11.449161     3A    -11.446453
       4A    -11.445668     5A    -11.391510     6A    -11.389970
       7A    -11.353079     8A    -11.352912     9A     -1.490083
      10A     -1.274296    11A     -1.194203    12A     -1.142957
      13A     -1.094943    14A     -1.066378    15A     -0.988160
      16A     -0.938286    17A     -0.903350    18A     -0.845836
      19A     -0.820829    20A     -0.786593    21A     -0.764307
      22A     -0.755706    23A     -0.736031    24A     -0.715662
      25A     -0.700126    26A     -0.697328    27A     -0.676878
      28A     -0.664870    29A     -0.645135    30A     -0.629935
      31A     -0.619051    32A     -0.605204

  @DF-RHF Final Energy:  -328.75316043250223

   => Energetics <=

    Nuclear Repulsion Energy =            424.7688585088248487
    One-Electron Energy =               -1274.1694273261718990
    Two-Electron Energy =                 520.6474083848447663
    Total Energy =                       -328.7531604325022272
  Basis Set: (AUG-CC-PVTZ AUX)
    Blend: AUG-CC-PVTZ-RI
    Molecular point group: c1

    Geometry (in Angstrom), charge = 1, multiplicity = 1:

       Center              X                  Y                   Z               Mass
    ------------   -----------------  -----------------  -----------------  -----------------
         N           -1.445745972630    -0.006182742596    -0.386888106414    14.003074004430
         C            0.779247027370    -0.681856742596     0.335389893586    12.000000000000
         C            0.837344927370     0.690789157404    -0.318668906414    12.000000000000
         C           -0.568077972630    -1.235280742596    -0.127631106414    12.000000000000
         C           -0.567987972630     1.210139257404    -0.145462106414    12.000000000000
         C            1.933491027370    -1.623817742596     0.015872893586    12.000000000000
         C            1.902629027370     1.636327257404     0.220888893586    12.000000000000
         C           -2.719527972630     0.011742257404     0.397772893586    12.000000000000
         H            0.737915027370    -0.517333742596     1.421283893586     1.007825032230
         H            1.028710027370     0.545546257404    -1.418180106414     1.007825032230
         H           -1.699650972630    -0.008597742596    -1.381705106414     1.007825032230
         H           -0.480394972630    -1.778039742596    -1.072740106414     1.007825032230
         H           -1.071428972630    -1.873516742596     0.601385893586     1.007825032230
         H           -0.730911972630     1.521533257404     0.890828893586     1.007825032230
         H           -0.882722972630     2.013228257404    -0.816524106414     1.007825032230
         H            2.876890027370    -1.213059742596     0.382000893586     1.007825032230
         H            1.792137027370    -2.598220742596     0.491571893586     1.007825032230
         H            2.020889027370    -1.776894742596    -1.064422106414     1.007825032230
         H            2.903857027370     1.228957257404     0.065224893586     1.007825032230
         H            1.863170027370     2.612383257404    -0.270144106414     1.007825032230
         H            1.755572027370     1.783584257404     1.295468893586     1.007825032230
         H           -2.465650972630    -0.037133742596     1.456326893586     1.007825032230
         H           -3.253398972630     0.937173257404     0.179763893586     1.007825032230
         H           -3.323890972630    -0.849466742596     0.112702893586     1.007825032230

  Basis Set: AUG-CC-PVTZ
    Blend: AUG-CC-PVTZ
  Basis Set: (AUG-CC-PVTZ AUX)
    Blend: AUG-CC-PVTZ-JKFIT
	 Reference Energy          =    -328.7531604325022272 [Eh]
	 Singles Energy            =      -0.0000000000000000 [Eh]
	 Same-Spin Energy          =      -0.3479722480015768 [Eh]
	 Opposite-Spin Energy      =      -1.2500310775029186 [Eh]
	 Correlation Energy        =      -1.5980033255044954 [Eh]
	 Total Energy              =    -330.3511637580067486 [Eh]

	 ================> DF-SCS-MP2 Energies <==================
	-----------------------------------------------------------
	 SCS Same-Spin Scale       =       0.3333333333333333 [-]
	 SCS Opposite-Spin Scale   =       1.2000000000000000 [-]
	 SCS Same-Spin Energy      =      -0.1159907493338589 [Eh]
	 SCS Opposite-Spin Energy  =      -1.5000372930035024 [Eh]
	 SCS Correlation Energy    =      -1.6160280423373614 [Eh]
	 SCS Total Energy          =    -330.3691884748395751 [Eh]
	-----------------------------------------------------------

  Dipole Moment: [D]
     X:    -4.3560      Y:     0.0005      Z:    -0.8670     Total:     4.4414

*** Psi4 exiting successfully. Buy a developer a beer!
