                               Psi4 1.4a3.dev225

  ==> Input File <==

--------------------------------------------------------------------------
#psi4
#
memory 32 gb

molecule  {
1 1
  N       -1.4549350    -0.0063160    -0.3913190
  C        0.7700580    -0.6819900     0.3309590
  C        0.8387740     0.6929140    -0.3473660
  C       -0.5772670    -1.2354140    -0.1320620
  C       -0.5771770     1.2100060    -0.1498930
  C        1.9243020    -1.6239510     0.0114420
  C        1.8934400     1.6361940     0.2164580
  C       -2.7287170     0.0116090     0.3933420
  H        0.7287260    -0.5174670     1.4168530
  H        1.0195210     0.5454130    -1.4226110
  H       -1.7088400    -0.0087310    -1.3861360
  H       -0.4895840    -1.7781730    -1.0771710
  H       -1.0806180    -1.8736500     0.5969550
  H       -0.7401010     1.5214000     0.8863980
  H       -0.8919120     2.0130950    -0.8209550
  H        2.8677010    -1.2131930     0.3775700
  H        1.7829480    -2.5983540     0.4871410
  H        2.0117000    -1.7770280    -1.0688530
  H        2.8946680     1.2288240     0.0607940
  H        1.8657938     2.5763827    -0.3408898
  H        1.7463830     1.7834510     1.2910380
  H       -2.4748400    -0.0372670     1.4518960
  H       -3.2625880     0.9370400     0.1753330
  H       -3.3330800    -0.8496000     0.1082720
units angstrom
no_reorient  #important for SAPT in psi4, default
symmetry c1  #important for SAPT in psi4, default
}

set PROPERTIES_ORIGIN ["COM"]
properties('MP2/aug-cc-pvtz', properties = ['dipole'])
--------------------------------------------------------------------------

    Molecular point group: c1
  Charge       = 1
  Multiplicity = 1
  Basis Set: AUG-CC-PVTZ
    Blend: AUG-CC-PVTZ
  Basis Set: (AUG-CC-PVTZ AUX)
    Blend: AUG-CC-PVTZ-JKFIT

    Orbital Energies [Eh]
    ---------------------

    Doubly Occupied:

       1A    -15.852070     2A    -11.448954     3A    -11.446009
       4A    -11.445584     5A    -11.390492     6A    -11.389796
       7A    -11.353022     8A    -11.352342     9A     -1.489350
      10A     -1.272029    11A     -1.193158    12A     -1.142632
      13A     -1.094956    14A     -1.065473    15A     -0.986745
      16A     -0.939292    17A     -0.903146    18A     -0.844639
      19A     -0.821957    20A     -0.786699    21A     -0.763132
      22A     -0.754339    23A     -0.734722    24A     -0.716328
      25A     -0.703022    26A     -0.697240    27A     -0.674836
      28A     -0.662947    29A     -0.648250    30A     -0.628329
      31A     -0.622393    32A     -0.602062

  @DF-RHF Final Energy:  -328.75360122655286

   => Energetics <=

    Nuclear Repulsion Energy =            424.5277374310637128
    One-Electron Energy =               -1273.7107909384576487
    Two-Electron Energy =                 520.4294522808410193
    Total Energy =                       -328.7536012265528598
  Basis Set: (AUG-CC-PVTZ AUX)
    Blend: AUG-CC-PVTZ-RI
    Molecular point group: c1

    Geometry (in Angstrom), charge = 1, multiplicity = 1:

       Center              X                  Y                   Z               Mass
    ------------   -----------------  -----------------  -----------------  -----------------
         N           -1.446966725648    -0.006103439174    -0.383751038786    14.003074004430
         C            0.778026274352    -0.681777439174     0.338526961214    12.000000000000
         C            0.846742274352     0.693126560826    -0.339798038786    12.000000000000
         C           -0.569298725648    -1.235201439174    -0.124494038786    12.000000000000
         C           -0.569208725648     1.210218560826    -0.142325038786    12.000000000000
         C            1.932270274352    -1.623738439174     0.019009961214    12.000000000000
         C            1.901408274352     1.636406560826     0.224025961214    12.000000000000
         C           -2.720748725648     0.011821560826     0.400909961214    12.000000000000
         H            0.736694274352    -0.517254439174     1.424420961214     1.007825032230
         H            1.027489274352     0.545625560826    -1.415043038786     1.007825032230
         H           -1.700871725648    -0.008518439174    -1.378568038786     1.007825032230
         H           -0.481615725648    -1.777960439174    -1.069603038786     1.007825032230
         H           -1.072649725648    -1.873437439174     0.604522961214     1.007825032230
         H           -0.732132725648     1.521612560826     0.893965961214     1.007825032230
         H           -0.883943725648     2.013307560826    -0.813387038786     1.007825032230
         H            2.875669274352    -1.212980439174     0.385137961214     1.007825032230
         H            1.790916274352    -2.598141439174     0.494708961214     1.007825032230
         H            2.019668274352    -1.776815439174    -1.061285038786     1.007825032230
         H            2.902636274352     1.229036560826     0.068361961214     1.007825032230
         H            1.873762074352     2.576595260826    -0.333321838786     1.007825032230
         H            1.754351274352     1.783663560826     1.298605961214     1.007825032230
         H           -2.466871725648    -0.037054439174     1.459463961214     1.007825032230
         H           -3.254619725648     0.937252560826     0.182900961214     1.007825032230
         H           -3.325111725648    -0.849387439174     0.115839961214     1.007825032230

  Basis Set: AUG-CC-PVTZ
    Blend: AUG-CC-PVTZ
  Basis Set: (AUG-CC-PVTZ AUX)
    Blend: AUG-CC-PVTZ-JKFIT
	 Reference Energy          =    -328.7536012265528598 [Eh]
	 Singles Energy            =      -0.0000000000000000 [Eh]
	 Same-Spin Energy          =      -0.3478452017748694 [Eh]
	 Opposite-Spin Energy      =      -1.2499463463730387 [Eh]
	 Correlation Energy        =      -1.5977915481479081 [Eh]
	 Total Energy              =    -330.3513927747007415 [Eh]

	 ================> DF-SCS-MP2 Energies <==================
	-----------------------------------------------------------
	 SCS Same-Spin Scale       =       0.3333333333333333 [-]
	 SCS Opposite-Spin Scale   =       1.2000000000000000 [-]
	 SCS Same-Spin Energy      =      -0.1159484005916231 [Eh]
	 SCS Opposite-Spin Energy  =      -1.4999356156476464 [Eh]
	 SCS Correlation Energy    =      -1.6158840162392696 [Eh]
	 SCS Total Energy          =    -330.3694852427921091 [Eh]
	-----------------------------------------------------------

  Dipole Moment: [D]
     X:    -4.3422      Y:    -0.0057      Z:    -0.8829     Total:     4.4311

*** Psi4 exiting successfully. Buy a developer a beer!
