                               Psi4 1.4a3.dev225

  ==> Input File <==

--------------------------------------------------------------------------
#psi4
#
memory 32 gb

molecule  {
1 1
  N       -1.4549350    -0.0063160    -0.3913190
  C        0.7700580    -0.6819900     0.3309590
  C        0.8387740     0.6929140    -0.3473660
  C       -0.5772670    -1.2354140    -0.1320620
  C       -0.5771770     1.2100060    -0.1498930
  C        1.9243020    -1.6239510     0.0114420
  C        1.9043642     1.6380489     0.1922937
  C       -2.7287170     0.0116090     0.3933420
  H        0.7287260    -0.5174670     1.4168530
  H        1.0195210     0.5454130    -1.4226110
  H       -1.7088400    -0.0087310    -1.3861360
  H       -0.4895840    -1.7781730    -1.0771710
  H       -1.0806180    -1.8736500     0.5969550
  H       -0.7401010     1.5214000     0.8863980
  H       -0.8919120     2.0130950    -0.8209550
  H        2.8677010    -1.2131930     0.3775700
  H        1.7829480    -2.5983540     0.4871410
  H        2.0117000    -1.7770280    -1.0688530
  H        2.8946680     1.2288240     0.0607940
  H        1.8539810     2.6122500    -0.2745750
  H        1.7463830     1.7834510     1.2910380
  H       -2.4748400    -0.0372670     1.4518960
  H       -3.2625880     0.9370400     0.1753330
  H       -3.3330800    -0.8496000     0.1082720
units angstrom
no_reorient  #important for SAPT in psi4, default
symmetry c1  #important for SAPT in psi4, default
}

set PROPERTIES_ORIGIN ["COM"]
properties('MP2/aug-cc-pvtz', properties = ['dipole'])
--------------------------------------------------------------------------

    Molecular point group: c1
  Charge       = 1
  Multiplicity = 1
  Basis Set: AUG-CC-PVTZ
    Blend: AUG-CC-PVTZ
  Basis Set: (AUG-CC-PVTZ AUX)
    Blend: AUG-CC-PVTZ-JKFIT

    Orbital Energies [Eh]
    ---------------------

    Doubly Occupied:

       1A    -15.852338     2A    -11.449091     3A    -11.446360
       4A    -11.445903     5A    -11.390978     6A    -11.390319
       7A    -11.353042     8A    -11.352598     9A     -1.489554
      10A     -1.271978    11A     -1.193177    12A     -1.142724
      13A     -1.095116    14A     -1.065786    15A     -0.987210
      16A     -0.939315    17A     -0.903380    18A     -0.845059
      19A     -0.821790    20A     -0.786310    21A     -0.763426
      22A     -0.755428    23A     -0.736744    24A     -0.715124
      25A     -0.698895    26A     -0.696957    27A     -0.679724
      28A     -0.664563    29A     -0.643234    30A     -0.629831
      31A     -0.621040    32A     -0.604020

  @DF-RHF Final Energy:  -328.75351499240270

   => Energetics <=

    Nuclear Repulsion Energy =            424.4040453786445255
    One-Electron Energy =               -1273.4530852797406624
    Two-Electron Energy =                 520.2955249086934373
    Total Energy =                       -328.7535149924027564
  Basis Set: (AUG-CC-PVTZ AUX)
    Blend: AUG-CC-PVTZ-RI
    Molecular point group: c1

    Geometry (in Angstrom), charge = 1, multiplicity = 1:

       Center              X                  Y                   Z               Mass
    ------------   -----------------  -----------------  -----------------  -----------------
         N           -1.448011034475    -0.006615203353    -0.381795888885    14.003074004430
         C            0.776981965525    -0.682289203353     0.340482111115    12.000000000000
         C            0.845697965525     0.692614796647    -0.337842888885    12.000000000000
         C           -0.570343034475    -1.235713203353    -0.122538888885    12.000000000000
         C           -0.570253034475     1.209706796647    -0.140369888885    12.000000000000
         C            1.931225965525    -1.624250203353     0.020965111115    12.000000000000
         C            1.911288165525     1.637749696647     0.201816811115    12.000000000000
         C           -2.721793034475     0.011309796647     0.402865111115    12.000000000000
         H            0.735649965525    -0.517766203353     1.426376111115     1.007825032230
         H            1.026444965525     0.545113796647    -1.413087888885     1.007825032230
         H           -1.701916034475    -0.009030203353    -1.376612888885     1.007825032230
         H           -0.482660034475    -1.778472203353    -1.067647888885     1.007825032230
         H           -1.073694034475    -1.873949203353     0.606478111115     1.007825032230
         H           -0.733177034475     1.521100796647     0.895921111115     1.007825032230
         H           -0.884988034475     2.012795796647    -0.811431888885     1.007825032230
         H            2.874624965525    -1.213492203353     0.387093111115     1.007825032230
         H            1.789871965525    -2.598653203353     0.496664111115     1.007825032230
         H            2.018623965525    -1.777327203353    -1.059329888885     1.007825032230
         H            2.901591965525     1.228524796647     0.070317111115     1.007825032230
         H            1.860904965525     2.611950796647    -0.265051888885     1.007825032230
         H            1.753306965525     1.783151796647     1.300561111115     1.007825032230
         H           -2.467916034475    -0.037566203353     1.461419111115     1.007825032230
         H           -3.255664034475     0.936740796647     0.184856111115     1.007825032230
         H           -3.326156034475    -0.849899203353     0.117795111115     1.007825032230

  Basis Set: AUG-CC-PVTZ
    Blend: AUG-CC-PVTZ
  Basis Set: (AUG-CC-PVTZ AUX)
    Blend: AUG-CC-PVTZ-JKFIT
	 Reference Energy          =    -328.7535149924026996 [Eh]
	 Singles Energy            =      -0.0000000000000000 [Eh]
	 Same-Spin Energy          =      -0.3477852830361248 [Eh]
	 Opposite-Spin Energy      =      -1.2498441058016716 [Eh]
	 Correlation Energy        =      -1.5976293888377964 [Eh]
	 Total Energy              =    -330.3511443812404877 [Eh]

	 ================> DF-SCS-MP2 Energies <==================
	-----------------------------------------------------------
	 SCS Same-Spin Scale       =       0.3333333333333333 [-]
	 SCS Opposite-Spin Scale   =       1.2000000000000000 [-]
	 SCS Same-Spin Energy      =      -0.1159284276787083 [Eh]
	 SCS Opposite-Spin Energy  =      -1.4998129269620060 [Eh]
	 SCS Correlation Energy    =      -1.6157413546407142 [Eh]
	 SCS Total Energy          =    -330.3692563470434038 [Eh]
	-----------------------------------------------------------

  Dipole Moment: [D]
     X:    -4.3641      Y:    -0.0023      Z:    -0.8639     Total:     4.4488

*** Psi4 exiting successfully. Buy a developer a beer!
