                               Psi4 1.4a3.dev225

  ==> Input File <==

--------------------------------------------------------------------------
#psi4
#
memory 32 gb

molecule  {
1 1
  N       -1.4549350    -0.0063160    -0.3913190
  C        0.7700580    -0.6819900     0.3309590
  C        0.8387740     0.6929140    -0.3473660
  C       -0.5772670    -1.2354140    -0.1320620
  C       -0.5771770     1.2100060    -0.1498930
  C        1.9243020    -1.6239510     0.0114420
  C        1.8934400     1.6361940     0.2164580
  C       -2.7287170     0.0116090     0.3933420
  H        0.7287260    -0.5174670     1.4168530
  H        1.0195210     0.5454130    -1.4226110
  H       -1.7088400    -0.0087310    -1.3861360
  H       -0.4895840    -1.7781730    -1.0771710
  H       -1.0806180    -1.8736500     0.5969550
  H       -0.7401010     1.5214000     0.8863980
  H       -0.8919120     2.0130950    -0.8209550
  H        2.8677010    -1.2131930     0.3775700
  H        1.7829480    -2.5983540     0.4871410
  H        2.0117000    -1.7770280    -1.0688530
  H        2.8946680     1.2288240     0.0607940
  H        1.8598670     2.5949004    -0.3080519
  H        1.7463830     1.7834510     1.2910380
  H       -2.4748400    -0.0372670     1.4518960
  H       -3.2625880     0.9370400     0.1753330
  H       -3.3330800    -0.8496000     0.1082720
units angstrom
no_reorient  #important for SAPT in psi4, default
symmetry c1  #important for SAPT in psi4, default
}

set PROPERTIES_ORIGIN ["COM"]
properties('MP2/aug-cc-pvtz', properties = ['dipole'])
--------------------------------------------------------------------------

    Molecular point group: c1
  Charge       = 1
  Multiplicity = 1
  Basis Set: AUG-CC-PVTZ
    Blend: AUG-CC-PVTZ
  Basis Set: (AUG-CC-PVTZ AUX)
    Blend: AUG-CC-PVTZ-JKFIT

    Orbital Energies [Eh]
    ---------------------

    Doubly Occupied:

       1A    -15.852106     2A    -11.448980     3A    -11.446105
       4A    -11.445623     5A    -11.390698     6A    -11.389981
       7A    -11.352908     8A    -11.352418     9A     -1.489390
      10A     -1.272052    11A     -1.193153    12A     -1.142626
      13A     -1.094866    14A     -1.065473    15A     -0.986974
      16A     -0.939422    17A     -0.903232    18A     -0.844694
      19A     -0.821980    20A     -0.786513    21A     -0.763166
      22A     -0.754610    23A     -0.735009    24A     -0.715817
      25A     -0.702019    26A     -0.697258    27A     -0.675627
      28A     -0.662958    29A     -0.647885    30A     -0.628356
      31A     -0.622665    32A     -0.602620

  @DF-RHF Final Energy:  -328.75404666213660

   => Energetics <=

    Nuclear Repulsion Energy =            424.5067698651381534
    One-Electron Energy =               -1273.6672710159841699
    Two-Electron Energy =                 520.4064544887094144
    Total Energy =                       -328.7540466621366022
  Basis Set: (AUG-CC-PVTZ AUX)
    Blend: AUG-CC-PVTZ-RI
    Molecular point group: c1

    Geometry (in Angstrom), charge = 1, multiplicity = 1:

       Center              X                  Y                   Z               Mass
    ------------   -----------------  -----------------  -----------------  -----------------
         N           -1.446914388246    -0.006266962207    -0.384041018265    14.003074004430
         C            0.778078611754    -0.681940962207     0.338236981735    12.000000000000
         C            0.846794611754     0.692963037793    -0.340088018265    12.000000000000
         C           -0.569246388246    -1.235364962207    -0.124784018265    12.000000000000
         C           -0.569156388246     1.210055037793    -0.142615018265    12.000000000000
         C            1.932322611754    -1.623901962207     0.018719981735    12.000000000000
         C            1.901460611754     1.636243037793     0.223735981735    12.000000000000
         C           -2.720696388246     0.011658037793     0.400619981735    12.000000000000
         H            0.736746611754    -0.517417962207     1.424130981735     1.007825032230
         H            1.027541611754     0.545462037793    -1.415333018265     1.007825032230
         H           -1.700819388246    -0.008681962207    -1.378858018265     1.007825032230
         H           -0.481563388246    -1.778123962207    -1.069893018265     1.007825032230
         H           -1.072597388246    -1.873600962207     0.604232981735     1.007825032230
         H           -0.732080388246     1.521449037793     0.893675981735     1.007825032230
         H           -0.883891388246     2.013144037793    -0.813677018265     1.007825032230
         H            2.875721611754    -1.213143962207     0.384847981735     1.007825032230
         H            1.790968611754    -2.598304962207     0.494418981735     1.007825032230
         H            2.019720611754    -1.776978962207    -1.061575018265     1.007825032230
         H            2.902688611754     1.228873037793     0.068071981735     1.007825032230
         H            1.867887611754     2.594949437793    -0.300773918265     1.007825032230
         H            1.754403611754     1.783500037793     1.298315981735     1.007825032230
         H           -2.466819388246    -0.037217962207     1.459173981735     1.007825032230
         H           -3.254567388246     0.937089037793     0.182610981735     1.007825032230
         H           -3.325059388246    -0.849550962207     0.115549981735     1.007825032230

  Basis Set: AUG-CC-PVTZ
    Blend: AUG-CC-PVTZ
  Basis Set: (AUG-CC-PVTZ AUX)
    Blend: AUG-CC-PVTZ-JKFIT
	 Reference Energy          =    -328.7540466621366022 [Eh]
	 Singles Energy            =      -0.0000000000000000 [Eh]
	 Same-Spin Energy          =      -0.3478178347178299 [Eh]
	 Opposite-Spin Energy      =      -1.2498957553007757 [Eh]
	 Correlation Energy        =      -1.5977135900186057 [Eh]
	 Total Energy              =    -330.3517602521552021 [Eh]

	 ================> DF-SCS-MP2 Energies <==================
	-----------------------------------------------------------
	 SCS Same-Spin Scale       =       0.3333333333333333 [-]
	 SCS Opposite-Spin Scale   =       1.2000000000000000 [-]
	 SCS Same-Spin Energy      =      -0.1159392782392766 [Eh]
	 SCS Opposite-Spin Energy  =      -1.4998749063609307 [Eh]
	 SCS Correlation Energy    =      -1.6158141846002072 [Eh]
	 SCS Total Energy          =    -330.3698608467367990 [Eh]
	-----------------------------------------------------------

  Dipole Moment: [D]
     X:    -4.3492      Y:    -0.0022      Z:    -0.8751     Total:     4.4364

*** Psi4 exiting successfully. Buy a developer a beer!
