                               Psi4 1.4a3.dev225

  ==> Input File <==

--------------------------------------------------------------------------
#psi4
#
memory 32 gb

molecule  {
1 1
  N       -1.4549350    -0.0063160    -0.3913190
  C        0.7700580    -0.6819900     0.3309590
  C        0.8387740     0.6929140    -0.3473660
  C       -0.5772670    -1.2354140    -0.1320620
  C       -0.6927269     1.0498869    -0.1816748
  C        1.9243020    -1.6239510     0.0114420
  C        1.8934400     1.6361940     0.2164580
  C       -2.7287170     0.0116090     0.3933420
  H        0.7287260    -0.5174670     1.4168530
  H        1.0195210     0.5454130    -1.4226110
  H       -1.7088400    -0.0087310    -1.3861360
  H       -0.4895840    -1.7781730    -1.0771710
  H       -1.0806180    -1.8736500     0.5969550
  H       -0.7401010     1.5214000     0.8863980
  H       -0.8919120     2.0130950    -0.8209550
  H        2.8677010    -1.2131930     0.3775700
  H        1.7829480    -2.5983540     0.4871410
  H        2.0117000    -1.7770280    -1.0688530
  H        2.8946680     1.2288240     0.0607940
  H        1.8539810     2.6122500    -0.2745750
  H        1.7463830     1.7834510     1.2910380
  H       -2.4748400    -0.0372670     1.4518960
  H       -3.2625880     0.9370400     0.1753330
  H       -3.3330800    -0.8496000     0.1082720
units angstrom
no_reorient  #important for SAPT in psi4, default
symmetry c1  #important for SAPT in psi4, default
}

set PROPERTIES_ORIGIN ["COM"]
properties('MP2/aug-cc-pvtz', properties = ['dipole'])
--------------------------------------------------------------------------

    Molecular point group: c1
  Charge       = 1
  Multiplicity = 1
  Basis Set: AUG-CC-PVTZ
    Blend: AUG-CC-PVTZ
  Basis Set: (AUG-CC-PVTZ AUX)
    Blend: AUG-CC-PVTZ-JKFIT

    Orbital Energies [Eh]
    ---------------------

    Doubly Occupied:

       1A    -15.860945     2A    -11.455458     3A    -11.451341
       4A    -11.441579     5A    -11.392118     6A    -11.388996
       7A    -11.352922     8A    -11.351783     9A     -1.544379
      10A     -1.270778    11A     -1.192417    12A     -1.156969
      13A     -1.102236    14A     -1.068734    15A     -0.987628
      16A     -0.945612    17A     -0.913745    18A     -0.868006
      19A     -0.835655    20A     -0.782304    21A     -0.759603
      22A     -0.756890    23A     -0.741977    24A     -0.716100
      25A     -0.705936    26A     -0.676748    27A     -0.671548
      28A     -0.663951    29A     -0.639010    30A     -0.627672
      31A     -0.611845    32A     -0.588057

  @DF-RHF Final Energy:  -328.71271138185961

   => Energetics <=

    Nuclear Repulsion Energy =            426.9635215424081593
    One-Electron Energy =               -1278.3065823425722556
    Two-Electron Energy =                 522.6303494183043767
    Total Energy =                       -328.7127113818596627
  Basis Set: (AUG-CC-PVTZ AUX)
    Blend: AUG-CC-PVTZ-RI
    Molecular point group: c1

    Geometry (in Angstrom), charge = 1, multiplicity = 1:

       Center              X                  Y                   Z               Mass
    ------------   -----------------  -----------------  -----------------  -----------------
         N           -1.434712934540     0.010415528147    -0.380994948011    14.003074004430
         C            0.790280065460    -0.665258471853     0.341283051989    12.000000000000
         C            0.858996065460     0.709645528147    -0.337041948011    12.000000000000
         C           -0.557044934540    -1.218682471853    -0.121737948011    12.000000000000
         C           -0.672504834540     1.066618428147    -0.171350748011    12.000000000000
         C            1.944524065460    -1.607219471853     0.021766051989    12.000000000000
         C            1.913662065460     1.652925528147     0.226782051989    12.000000000000
         C           -2.708494934540     0.028340528147     0.403666051989    12.000000000000
         H            0.748948065460    -0.500735471853     1.427177051989     1.007825032230
         H            1.039743065460     0.562144528147    -1.412286948011     1.007825032230
         H           -1.688617934540     0.008000528147    -1.375811948011     1.007825032230
         H           -0.469361934540    -1.761441471853    -1.066846948011     1.007825032230
         H           -1.060395934540    -1.856918471853     0.607279051989     1.007825032230
         H           -0.719878934540     1.538131528147     0.896722051989     1.007825032230
         H           -0.871689934540     2.029826528147    -0.810630948011     1.007825032230
         H            2.887923065460    -1.196461471853     0.387894051989     1.007825032230
         H            1.803170065460    -2.581622471853     0.497465051989     1.007825032230
         H            2.031922065460    -1.760296471853    -1.058528948011     1.007825032230
         H            2.914890065460     1.245555528147     0.071118051989     1.007825032230
         H            1.874203065460     2.628981528147    -0.264250948011     1.007825032230
         H            1.766605065460     1.800182528147     1.301362051989     1.007825032230
         H           -2.454617934540    -0.020535471853     1.462220051989     1.007825032230
         H           -3.242365934540     0.953771528147     0.185657051989     1.007825032230
         H           -3.312857934540    -0.832868471853     0.118596051989     1.007825032230

  Basis Set: AUG-CC-PVTZ
    Blend: AUG-CC-PVTZ
  Basis Set: (AUG-CC-PVTZ AUX)
    Blend: AUG-CC-PVTZ-JKFIT
	 Reference Energy          =    -328.7127113818596058 [Eh]
	 Singles Energy            =      -0.0000000000000000 [Eh]
	 Same-Spin Energy          =      -0.3500982885023580 [Eh]
	 Opposite-Spin Energy      =      -1.2516912768961310 [Eh]
	 Correlation Energy        =      -1.6017895653984890 [Eh]
	 Total Energy              =    -330.3145009472580682 [Eh]

	 ================> DF-SCS-MP2 Energies <==================
	-----------------------------------------------------------
	 SCS Same-Spin Scale       =       0.3333333333333333 [-]
	 SCS Opposite-Spin Scale   =       1.2000000000000000 [-]
	 SCS Same-Spin Energy      =      -0.1166994295007860 [Eh]
	 SCS Opposite-Spin Energy  =      -1.5020295322753572 [Eh]
	 SCS Correlation Energy    =      -1.6187289617761431 [Eh]
	 SCS Total Energy          =    -330.3314403436357338 [Eh]
	-----------------------------------------------------------

  Dipole Moment: [D]
     X:    -4.4819      Y:    -0.1717      Z:    -0.8702     Total:     4.5688

*** Psi4 exiting successfully. Buy a developer a beer!
