                               Psi4 1.4a3.dev225

  ==> Input File <==

--------------------------------------------------------------------------
#psi4
#
memory 32 gb

molecule  {
1 1
  N       -1.4549350    -0.0063160    -0.3913190
  C        0.7700580    -0.6819900     0.3309590
  C        0.8387740     0.6929140    -0.3473660
  C       -0.5772670    -1.2354140    -0.1320620
  C       -0.5771770     1.2100060    -0.1498930
  C        1.9243020    -1.6239510     0.0114420
  C        1.8934400     1.6361940     0.2164580
  C       -2.7287170     0.0116090     0.3933420
  H        0.7287260    -0.5174670     1.4168530
  H        1.0195210     0.5454130    -1.4226110
  H       -1.7088400    -0.0087310    -1.3861360
  H       -0.4895840    -1.7781730    -1.0771710
  H       -1.0806180    -1.8736500     0.5969550
  H       -0.7401010     1.5214000     0.8863980
  H       -0.8919120     2.0130950    -0.8209550
  H        2.8202604    -1.2128492     0.4815775
  H        1.7829480    -2.5983540     0.4871410
  H        2.0117000    -1.7770280    -1.0688530
  H        2.8946680     1.2288240     0.0607940
  H        1.8539810     2.6122500    -0.2745750
  H        1.7463830     1.7834510     1.2910380
  H       -2.4748400    -0.0372670     1.4518960
  H       -3.2625880     0.9370400     0.1753330
  H       -3.3330800    -0.8496000     0.1082720
units angstrom
no_reorient  #important for SAPT in psi4, default
symmetry c1  #important for SAPT in psi4, default
}

set PROPERTIES_ORIGIN ["COM"]
properties('MP2/aug-cc-pvtz', properties = ['dipole'])
--------------------------------------------------------------------------

    Molecular point group: c1
  Charge       = 1
  Multiplicity = 1
  Basis Set: AUG-CC-PVTZ
    Blend: AUG-CC-PVTZ
  Basis Set: (AUG-CC-PVTZ AUX)
    Blend: AUG-CC-PVTZ-JKFIT

    Orbital Energies [Eh]
    ---------------------

    Doubly Occupied:

       1A    -15.851780     2A    -11.448826     3A    -11.445665
       4A    -11.445536     5A    -11.390740     6A    -11.389624
       7A    -11.352859     8A    -11.352733     9A     -1.489149
      10A     -1.272095    11A     -1.193116    12A     -1.142617
      13A     -1.095069    14A     -1.065405    15A     -0.986970
      16A     -0.939020    17A     -0.902492    18A     -0.844825
      19A     -0.821985    20A     -0.786403    21A     -0.763357
      22A     -0.755703    23A     -0.734346    24A     -0.716178
      25A     -0.700982    26A     -0.699226    27A     -0.674793
      28A     -0.662625    29A     -0.647885    30A     -0.628053
      31A     -0.622949    32A     -0.601688

  @DF-RHF Final Energy:  -328.75288147923311

   => Energetics <=

    Nuclear Repulsion Energy =            424.5486364527725982
    One-Electron Energy =               -1273.7536479284922279
    Two-Electron Energy =                 520.4521299964865193
    Total Energy =                       -328.7528814792331104
  Basis Set: (AUG-CC-PVTZ AUX)
    Blend: AUG-CC-PVTZ-RI
    Molecular point group: c1

    Geometry (in Angstrom), charge = 1, multiplicity = 1:

       Center              X                  Y                   Z               Mass
    ------------   -----------------  -----------------  -----------------  -----------------
         N           -1.446443480554    -0.006423206148    -0.385255092695    14.003074004430
         C            0.778549519446    -0.682097206148     0.337022907305    12.000000000000
         C            0.847265519446     0.692806793852    -0.341302092695    12.000000000000
         C           -0.568775480554    -1.235521206148    -0.125998092695    12.000000000000
         C           -0.568685480554     1.209898793852    -0.143829092695    12.000000000000
         C            1.932793519446    -1.624058206148     0.017505907305    12.000000000000
         C            1.901931519446     1.636086793852     0.222521907305    12.000000000000
         C           -2.720225480554     0.011501793852     0.399405907305    12.000000000000
         H            0.737217519446    -0.517574206148     1.422916907305     1.007825032230
         H            1.028012519446     0.545305793852    -1.416547092695     1.007825032230
         H           -1.700348480554    -0.008838206148    -1.380072092695     1.007825032230
         H           -0.481092480554    -1.778280206148    -1.071107092695     1.007825032230
         H           -1.072126480554    -1.873757206148     0.603018907305     1.007825032230
         H           -0.731609480554     1.521292793852     0.892461907305     1.007825032230
         H           -0.883420480554     2.012987793852    -0.814891092695     1.007825032230
         H            2.828751919446    -1.212956406148     0.487641407305     1.007825032230
         H            1.791439519446    -2.598461206148     0.493204907305     1.007825032230
         H            2.020191519446    -1.777135206148    -1.062789092695     1.007825032230
         H            2.903159519446     1.228716793852     0.066857907305     1.007825032230
         H            1.862472519446     2.612142793852    -0.268511092695     1.007825032230
         H            1.754874519446     1.783343793852     1.297101907305     1.007825032230
         H           -2.466348480554    -0.037374206148     1.457959907305     1.007825032230
         H           -3.254096480554     0.936932793852     0.181396907305     1.007825032230
         H           -3.324588480554    -0.849707206148     0.114335907305     1.007825032230

  Basis Set: AUG-CC-PVTZ
    Blend: AUG-CC-PVTZ
  Basis Set: (AUG-CC-PVTZ AUX)
    Blend: AUG-CC-PVTZ-JKFIT
	 Reference Energy          =    -328.7528814792331104 [Eh]
	 Singles Energy            =      -0.0000000000000000 [Eh]
	 Same-Spin Energy          =      -0.3478895802548887 [Eh]
	 Opposite-Spin Energy      =      -1.2500208654799017 [Eh]
	 Correlation Energy        =      -1.5979104457347904 [Eh]
	 Total Energy              =    -330.3507919249678935 [Eh]

	 ================> DF-SCS-MP2 Energies <==================
	-----------------------------------------------------------
	 SCS Same-Spin Scale       =       0.3333333333333333 [-]
	 SCS Opposite-Spin Scale   =       1.2000000000000000 [-]
	 SCS Same-Spin Energy      =      -0.1159631934182962 [Eh]
	 SCS Opposite-Spin Energy  =      -1.5000250385758820 [Eh]
	 SCS Correlation Energy    =      -1.6159882319941783 [Eh]
	 SCS Total Energy          =    -330.3688697112272621 [Eh]
	-----------------------------------------------------------

  Dipole Moment: [D]
     X:    -4.3588      Y:    -0.0143      Z:    -0.8401     Total:     4.4390

*** Psi4 exiting successfully. Buy a developer a beer!
