                               Psi4 1.4a3.dev225

  ==> Input File <==

--------------------------------------------------------------------------
#psi4
#
memory 32 gb

molecule  {
1 1
  N       -1.4549350    -0.0063160    -0.3913190
  C        0.7700580    -0.6819900     0.3309590
  C        0.8387740     0.6929140    -0.3473660
  C       -0.4891133    -1.1992042    -0.1017672
  C       -0.5771770     1.2100060    -0.1498930
  C        1.9243020    -1.6239510     0.0114420
  C        1.8934400     1.6361940     0.2164580
  C       -2.7287170     0.0116090     0.3933420
  H        0.7287260    -0.5174670     1.4168530
  H        1.0195210     0.5454130    -1.4226110
  H       -1.7088400    -0.0087310    -1.3861360
  H       -0.4895840    -1.7781730    -1.0771710
  H       -1.0806180    -1.8736500     0.5969550
  H       -0.7401010     1.5214000     0.8863980
  H       -0.8919120     2.0130950    -0.8209550
  H        2.8677010    -1.2131930     0.3775700
  H        1.7829480    -2.5983540     0.4871410
  H        2.0117000    -1.7770280    -1.0688530
  H        2.8946680     1.2288240     0.0607940
  H        1.8539810     2.6122500    -0.2745750
  H        1.7463830     1.7834510     1.2910380
  H       -2.4748400    -0.0372670     1.4518960
  H       -3.2625880     0.9370400     0.1753330
  H       -3.3330800    -0.8496000     0.1082720
units angstrom
no_reorient  #important for SAPT in psi4, default
symmetry c1  #important for SAPT in psi4, default
}

set PROPERTIES_ORIGIN ["COM"]
properties('MP2/aug-cc-pvtz', properties = ['dipole'])
--------------------------------------------------------------------------

    Molecular point group: c1
  Charge       = 1
  Multiplicity = 1
  Basis Set: AUG-CC-PVTZ
    Blend: AUG-CC-PVTZ
  Basis Set: (AUG-CC-PVTZ AUX)
    Blend: AUG-CC-PVTZ-JKFIT

    Orbital Energies [Eh]
    ---------------------

    Doubly Occupied:

       1A    -15.849101     2A    -11.452934     3A    -11.448001
       4A    -11.444650     5A    -11.392372     6A    -11.385090
       7A    -11.355167     8A    -11.353210     9A     -1.485093
      10A     -1.284093    11A     -1.197701    12A     -1.141257
      13A     -1.091361    14A     -1.068027    15A     -0.985662
      16A     -0.941103    17A     -0.903784    18A     -0.845174
      19A     -0.819830    20A     -0.783863    21A     -0.763912
      22A     -0.761034    23A     -0.736051    24A     -0.705044
      25A     -0.701159    26A     -0.693982    27A     -0.677196
      28A     -0.664573    29A     -0.644389    30A     -0.637826
      31A     -0.623102    32A     -0.603746

  @DF-RHF Final Energy:  -328.74168907664296

   => Energetics <=

    Nuclear Repulsion Energy =            425.6018475289772027
    One-Electron Energy =               -1275.8080979805620245
    Two-Electron Energy =                 521.4645613749418089
    Total Energy =                       -328.7416890766429560
  Basis Set: (AUG-CC-PVTZ AUX)
    Blend: AUG-CC-PVTZ-RI
    Molecular point group: c1

    Geometry (in Angstrom), charge = 1, multiplicity = 1:

       Center              X                  Y                   Z               Mass
    ------------   -----------------  -----------------  -----------------  -----------------
         N           -1.456131318461    -0.010227444069    -0.387521982640    14.003074004430
         C            0.768861681539    -0.685901444069     0.334756017360    12.000000000000
         C            0.837577681539     0.689002555931    -0.343568982640    12.000000000000
         C           -0.490309618461    -1.203115644069    -0.097970182640    12.000000000000
         C           -0.578373318461     1.206094555931    -0.146095982640    12.000000000000
         C            1.923105681539    -1.627862444069     0.015239017360    12.000000000000
         C            1.892243681539     1.632282555931     0.220255017360    12.000000000000
         C           -2.729913318461     0.007697555931     0.397139017360    12.000000000000
         H            0.727529681539    -0.521378444069     1.420650017360     1.007825032230
         H            1.018324681539     0.541501555931    -1.418813982640     1.007825032230
         H           -1.710036318461    -0.012642444069    -1.382338982640     1.007825032230
         H           -0.490780318461    -1.782084444069    -1.073373982640     1.007825032230
         H           -1.081814318461    -1.877561444069     0.600752017360     1.007825032230
         H           -0.741297318461     1.517488555931     0.890195017360     1.007825032230
         H           -0.893108318461     2.009183555931    -0.817157982640     1.007825032230
         H            2.866504681539    -1.217104444069     0.381367017360     1.007825032230
         H            1.781751681539    -2.602265444069     0.490938017360     1.007825032230
         H            2.010503681539    -1.780939444069    -1.065055982640     1.007825032230
         H            2.893471681539     1.224912555931     0.064591017360     1.007825032230
         H            1.852784681539     2.608338555931    -0.270777982640     1.007825032230
         H            1.745186681539     1.779539555931     1.294835017360     1.007825032230
         H           -2.476036318461    -0.041178444069     1.455693017360     1.007825032230
         H           -3.263784318461     0.933128555931     0.179130017360     1.007825032230
         H           -3.334276318461    -0.853511444069     0.112069017360     1.007825032230

  Basis Set: AUG-CC-PVTZ
    Blend: AUG-CC-PVTZ
  Basis Set: (AUG-CC-PVTZ AUX)
    Blend: AUG-CC-PVTZ-JKFIT
	 Reference Energy          =    -328.7416890766429560 [Eh]
	 Singles Energy            =      -0.0000000000000000 [Eh]
	 Same-Spin Energy          =      -0.3490776361730317 [Eh]
	 Opposite-Spin Energy      =      -1.2513840683663302 [Eh]
	 Correlation Energy        =      -1.6004617045393619 [Eh]
	 Total Energy              =    -330.3421507811823403 [Eh]

	 ================> DF-SCS-MP2 Energies <==================
	-----------------------------------------------------------
	 SCS Same-Spin Scale       =       0.3333333333333333 [-]
	 SCS Opposite-Spin Scale   =       1.2000000000000000 [-]
	 SCS Same-Spin Energy      =      -0.1163592120576772 [Eh]
	 SCS Opposite-Spin Energy  =      -1.5016608820395962 [Eh]
	 SCS Correlation Energy    =      -1.6180200940972735 [Eh]
	 SCS Total Energy          =    -330.3597091707402456 [Eh]
	-----------------------------------------------------------

  Dipole Moment: [D]
     X:    -4.2741      Y:    -0.0227      Z:    -0.8557     Total:     4.3590

*** Psi4 exiting successfully. Buy a developer a beer!
