                               Psi4 1.3.2 release

  ==> Input File <==

--------------------------------------------------------------------------
#psi4
#
memory 32 gb

molecule  {
0 1
  N       -1.5631460    -1.0786450     0.0000020
  C        0.9814170     1.4318910     0.0000000
  C        2.1554110     0.6922200     0.0000020
  C        2.1326810    -0.7203310    -0.0000050
  C        0.9343870    -1.4220840     0.0000000
  C       -0.2481830    -0.6706930     0.0000000
  C       -0.2522510     0.7528300     0.0000150
  C       -1.6207120     1.1681210    -0.0000080
  C       -2.3885810     0.0265560    -0.0000050
  H        1.0121500     2.5200250     0.0000050
  H        3.1140070     1.2059840    -0.0000050
  H        3.0718340    -1.2688090    -0.0000050
  H        0.9183210    -2.5105470    -0.0000040
  H       -1.9975130     2.1830700    -0.0000130
  H       -1.8769340    -2.0399470     0.0000180
  H       -3.4648547    -0.0903205     0.1000040
units angstrom
no_reorient  #important for SAPT in psi4, default
symmetry c1  #important for SAPT in psi4, default
}

set PROPERTIES_ORIGIN ["COM"]
properties('MP2/aug-cc-pvtz', properties = ['dipole'])
--------------------------------------------------------------------------

    Molecular point group: c1
  Charge       = 0
  Multiplicity = 1
  Basis Set: AUG-CC-PVTZ
    Blend: AUG-CC-PVTZ
  Basis Set: (AUG-CC-PVTZ AUX)
    Blend: AUG-CC-PVTZ-JKFIT

    Orbital Energies [Eh]
    ---------------------

    Doubly Occupied:

       1A    -15.605683     2A    -11.273472     3A    -11.267221
       4A    -11.233616     5A    -11.231772     6A    -11.230500
       7A    -11.227332     8A    -11.222457     9A    -11.218978
      10A     -1.296266    11A     -1.128508    12A     -1.056049
      13A     -0.996481    14A     -0.974200    15A     -0.842017
      16A     -0.806092    17A     -0.788453    18A     -0.727040
      19A     -0.661575    20A     -0.647151    21A     -0.601793
      22A     -0.595362    23A     -0.584333    24A     -0.573973
      25A     -0.549518    26A     -0.507799    27A     -0.482687
      28A     -0.464888    29A     -0.386094    30A     -0.301548
      31A     -0.283052

  @DF-RHF Final Energy:  -361.58870158913652

   => Energetics <=

    Nuclear Repulsion Energy =            399.9851017445662364
    One-Electron Energy =               -1281.6157826213923272
    Two-Electron Energy =                 520.0419792876896281
    Total Energy =                       -361.5887015891364626
  Basis Set: (AUG-CC-PVTZ AUX)
    Blend: AUG-CC-PVTZ-RI
    Molecular point group: c1

    Geometry (in Angstrom), charge = 0, multiplicity = 1:

       Center              X                  Y                   Z               Mass
    ------------   -----------------  -----------------  -----------------  -----------------
         N           -1.556519099778    -1.078621297871    -0.000859099961    14.003074004430
         C            0.988043900222     1.431914702129    -0.000861099961    12.000000000000
         C            2.162037900222     0.692243702129    -0.000859099961    12.000000000000
         C            2.139307900222    -0.720307297871    -0.000866099961    12.000000000000
         C            0.941013900222    -1.422060297871    -0.000861099961    12.000000000000
         C           -0.241556099778    -0.670669297871    -0.000861099961    12.000000000000
         C           -0.245624099778     0.752853702129    -0.000846099961    12.000000000000
         C           -1.614085099778     1.168144702129    -0.000869099961    12.000000000000
         C           -2.381954099778     0.026579702129    -0.000866099961    12.000000000000
         H            1.018776900222     2.520048702129    -0.000856099961     1.007825032230
         H            3.120633900222     1.206007702129    -0.000866099961     1.007825032230
         H            3.078460900222    -1.268785297871    -0.000866099961     1.007825032230
         H            0.924947900222    -2.510523297871    -0.000865099961     1.007825032230
         H           -1.990886099778     2.183093702129    -0.000874099961     1.007825032230
         H           -1.870307099778    -2.039923297871    -0.000843099961     1.007825032230
         H           -3.458227799778    -0.090296797871     0.099142900039     1.007825032230

  Basis Set: AUG-CC-PVTZ
    Blend: AUG-CC-PVTZ
  Basis Set: (AUG-CC-PVTZ AUX)
    Blend: AUG-CC-PVTZ-JKFIT
	 Reference Energy          =    -361.5887015891365195 [Eh]
	 Singles Energy            =      -0.0000000000000000 [Eh]
	 Same-Spin Energy          =      -0.4080162812614572 [Eh]
	 Opposite-Spin Energy      =      -1.2479703856937521 [Eh]
	 Correlation Energy        =      -1.6559866669552092 [Eh]
	 Total Energy              =    -363.2446882560917061 [Eh]

	 ================> DF-SCS-MP2 Energies <==================
	-----------------------------------------------------------
	 SCS Same-Spin Scale       =       0.3333333333333333 [-]
	 SCS Opposite-Spin Scale   =       1.2000000000000000 [-]
	 SCS Same-Spin Energy      =      -0.1360054270871524 [Eh]
	 SCS Opposite-Spin Energy  =      -1.4975644628325024 [Eh]
	 SCS Correlation Energy    =      -1.6335698899196549 [Eh]
	 SCS Total Energy          =    -363.2222714790561895 [Eh]
	-----------------------------------------------------------

  Dipole Moment: [D]
     X:    -1.4731      Y:    -1.5447      Z:     0.0815     Total:     2.1360

*** Psi4 exiting successfully. Buy a developer a beer!
