                               Psi4 1.3.2 release

  ==> Input File <==

--------------------------------------------------------------------------
#psi4
#
memory 32 gb

molecule  {
0 1
  N       -1.5631460    -1.0786450     0.0000020
  C        0.9814170     1.4318910     0.0000000
  C        2.1554110     0.6922200     0.0000020
  C        2.1326810    -0.7203310    -0.0000050
  C        0.9343870    -1.4220840     0.0000000
  C       -0.2481830    -0.6706930     0.0000000
  C       -0.2522510     0.7528297     0.0500150
  C       -1.6207120     1.1681210    -0.0000080
  C       -2.3885810     0.0265560    -0.0000050
  H        1.0121500     2.5200250     0.0000050
  H        3.1140070     1.2059840    -0.0000050
  H        3.0718340    -1.2688090    -0.0000050
  H        0.9183210    -2.5105470    -0.0000040
  H       -1.9975130     2.1830700    -0.0000130
  H       -1.8769340    -2.0399470     0.0000180
  H       -3.4648550    -0.0903210     0.0000040
units angstrom
no_reorient  #important for SAPT in psi4, default
symmetry c1  #important for SAPT in psi4, default
}

set PROPERTIES_ORIGIN ["COM"]
properties('MP2/aug-cc-pvtz', properties = ['dipole'])
--------------------------------------------------------------------------

    Molecular point group: c1
  Charge       = 0
  Multiplicity = 1
  Basis Set: AUG-CC-PVTZ
    Blend: AUG-CC-PVTZ
  Basis Set: (AUG-CC-PVTZ AUX)
    Blend: AUG-CC-PVTZ-JKFIT

    Orbital Energies [Eh]
    ---------------------

    Doubly Occupied:

       1A    -15.605749     2A    -11.273141     3A    -11.267325
       4A    -11.233557     5A    -11.231835     6A    -11.230489
       7A    -11.227476     8A    -11.222368     9A    -11.218911
      10A     -1.296233    11A     -1.128376    12A     -1.055878
      13A     -0.996414    14A     -0.974219    15A     -0.842109
      16A     -0.806120    17A     -0.788390    18A     -0.727219
      19A     -0.661755    20A     -0.647434    21A     -0.601774
      22A     -0.595247    23A     -0.583891    24A     -0.574195
      25A     -0.549885    26A     -0.507704    27A     -0.482507
      28A     -0.464782    29A     -0.385920    30A     -0.301499
      31A     -0.282956

  @DF-RHF Final Energy:  -361.58843558650750

   => Energetics <=

    Nuclear Repulsion Energy =            399.9675780332625550
    One-Electron Energy =               -1281.5813133116359950
    Two-Electron Energy =                 520.0252996918660529
    Total Energy =                       -361.5884355865074440
  Basis Set: (AUG-CC-PVTZ AUX)
    Blend: AUG-CC-PVTZ-RI
    Molecular point group: c1

    Geometry (in Angstrom), charge = 0, multiplicity = 1:

       Center              X                  Y                   Z               Mass
    ------------   -----------------  -----------------  -----------------  -----------------
         N           -1.556519097195    -1.078621262812    -0.005123807540    14.003074004430
         C            0.988043902805     1.431914737188    -0.005125807540    12.000000000000
         C            2.162037902805     0.692243737188    -0.005123807540    12.000000000000
         C            2.139307902805    -0.720307262812    -0.005130807540    12.000000000000
         C            0.941013902805    -1.422060262812    -0.005125807540    12.000000000000
         C           -0.241556097195    -0.670669262812    -0.005125807540    12.000000000000
         C           -0.245624097195     0.752853437188     0.044889192460    12.000000000000
         C           -1.614085097195     1.168144737188    -0.005133807540    12.000000000000
         C           -2.381954097195     0.026579737188    -0.005130807540    12.000000000000
         H            1.018776902805     2.520048737188    -0.005120807540     1.007825032230
         H            3.120633902805     1.206007737188    -0.005130807540     1.007825032230
         H            3.078460902805    -1.268785262812    -0.005130807540     1.007825032230
         H            0.924947902805    -2.510523262812    -0.005129807540     1.007825032230
         H           -1.990886097195     2.183093737188    -0.005138807540     1.007825032230
         H           -1.870307097195    -2.039923262812    -0.005107807540     1.007825032230
         H           -3.458228097195    -0.090297262812    -0.005121807540     1.007825032230

  Basis Set: AUG-CC-PVTZ
    Blend: AUG-CC-PVTZ
  Basis Set: (AUG-CC-PVTZ AUX)
    Blend: AUG-CC-PVTZ-JKFIT
	 Reference Energy          =    -361.5884355865075008 [Eh]
	 Singles Energy            =      -0.0000000000000000 [Eh]
	 Same-Spin Energy          =      -0.4080107745734367 [Eh]
	 Opposite-Spin Energy      =      -1.2478882090846595 [Eh]
	 Correlation Energy        =      -1.6558989836580962 [Eh]
	 Total Energy              =    -363.2443345701656199 [Eh]

	 ================> DF-SCS-MP2 Energies <==================
	-----------------------------------------------------------
	 SCS Same-Spin Scale       =       0.3333333333333333 [-]
	 SCS Opposite-Spin Scale   =       1.2000000000000000 [-]
	 SCS Same-Spin Energy      =      -0.1360035915244789 [Eh]
	 SCS Opposite-Spin Energy  =      -1.4974658509015912 [Eh]
	 SCS Correlation Energy    =      -1.6334694424260701 [Eh]
	 SCS Total Energy          =    -363.2219050289335769 [Eh]
	-----------------------------------------------------------

  Dipole Moment: [D]
     X:    -1.4846      Y:    -1.5491      Z:    -0.0090     Total:     2.1457

*** Psi4 exiting successfully. Buy a developer a beer!
