                               Psi4 1.3.2 release

  ==> Input File <==

--------------------------------------------------------------------------
#psi4
#
memory 32 gb

molecule  {
0 1
  N       -1.5631460    -1.0786450     0.0000020
  C        0.9814170     1.4318910     0.0000000
  C        2.1554110     0.6922200     0.0000020
  C        2.1326810    -0.7203310    -0.0000050
  C        0.9343870    -1.4220840     0.0000000
  C       -0.2481830    -0.6706930     0.0000000
  C       -0.2522510     0.7528300     0.0000150
  C       -1.6207115     1.1681207    -0.1500080
  C       -2.3885810     0.0265560    -0.0000050
  H        1.0121500     2.5200250     0.0000050
  H        3.1140070     1.2059840    -0.0000050
  H        3.0718340    -1.2688090    -0.0000050
  H        0.9183210    -2.5105470    -0.0000040
  H       -1.9975130     2.1830700    -0.0000130
  H       -1.8769340    -2.0399470     0.0000180
  H       -3.4648550    -0.0903210     0.0000040
units angstrom
no_reorient  #important for SAPT in psi4, default
symmetry c1  #important for SAPT in psi4, default
}

set PROPERTIES_ORIGIN ["COM"]
properties('MP2/aug-cc-pvtz', properties = ['dipole'])
--------------------------------------------------------------------------

    Molecular point group: c1
  Charge       = 0
  Multiplicity = 1
  Basis Set: AUG-CC-PVTZ
    Blend: AUG-CC-PVTZ
  Basis Set: (AUG-CC-PVTZ AUX)
    Blend: AUG-CC-PVTZ-JKFIT

    Orbital Energies [Eh]
    ---------------------

    Doubly Occupied:

       1A    -15.607040     2A    -11.276194     3A    -11.267400
       4A    -11.233844     5A    -11.231500     6A    -11.230513
       7A    -11.228117     8A    -11.222622     9A    -11.220545
      10A     -1.296822    11A     -1.128607    12A     -1.054754
      13A     -0.996625    14A     -0.973903    15A     -0.842470
      16A     -0.805562    17A     -0.787900    18A     -0.727432
      19A     -0.661469    20A     -0.647235    21A     -0.601366
      22A     -0.595459    23A     -0.585869    24A     -0.568442
      25A     -0.548739    26A     -0.507361    27A     -0.482165
      28A     -0.464509    29A     -0.385514    30A     -0.301693
      31A     -0.283268

  @DF-RHF Final Energy:  -361.58323558098988

   => Energetics <=

    Nuclear Repulsion Energy =            399.7511338431959871
    One-Electron Energy =               -1281.1388637610543810
    Two-Electron Energy =                 519.8044943368686290
    Total Energy =                       -361.5832355809898218
  Basis Set: (AUG-CC-PVTZ AUX)
    Blend: AUG-CC-PVTZ-RI
    Molecular point group: c1

    Geometry (in Angstrom), charge = 0, multiplicity = 1:

       Center              X                  Y                   Z               Mass
    ------------   -----------------  -----------------  -----------------  -----------------
         N           -1.556519148451    -1.078621262812     0.015378875670    14.003074004430
         C            0.988043851549     1.431914737188     0.015376875670    12.000000000000
         C            2.162037851549     0.692243737188     0.015378875670    12.000000000000
         C            2.139307851549    -0.720307262812     0.015371875670    12.000000000000
         C            0.941013851549    -1.422060262812     0.015376875670    12.000000000000
         C           -0.241556148451    -0.670669262812     0.015376875670    12.000000000000
         C           -0.245624148451     0.752853737188     0.015391875670    12.000000000000
         C           -1.614084648451     1.168144437188    -0.134631124330    12.000000000000
         C           -2.381954148451     0.026579737188     0.015371875670    12.000000000000
         H            1.018776851549     2.520048737188     0.015381875670     1.007825032230
         H            3.120633851549     1.206007737188     0.015371875670     1.007825032230
         H            3.078460851549    -1.268785262812     0.015371875670     1.007825032230
         H            0.924947851549    -2.510523262812     0.015372875670     1.007825032230
         H           -1.990886148451     2.183093737188     0.015363875670     1.007825032230
         H           -1.870307148451    -2.039923262812     0.015394875670     1.007825032230
         H           -3.458228148451    -0.090297262812     0.015380875670     1.007825032230

  Basis Set: AUG-CC-PVTZ
    Blend: AUG-CC-PVTZ
  Basis Set: (AUG-CC-PVTZ AUX)
    Blend: AUG-CC-PVTZ-JKFIT
	 Reference Energy          =    -361.5832355809898786 [Eh]
	 Singles Energy            =      -0.0000000000000000 [Eh]
	 Same-Spin Energy          =      -0.4082781328225822 [Eh]
	 Opposite-Spin Energy      =      -1.2486281452129222 [Eh]
	 Correlation Energy        =      -1.6569062780355044 [Eh]
	 Total Energy              =    -363.2401418590253570 [Eh]

	 ================> DF-SCS-MP2 Energies <==================
	-----------------------------------------------------------
	 SCS Same-Spin Scale       =       0.3333333333333333 [-]
	 SCS Opposite-Spin Scale   =       1.2000000000000000 [-]
	 SCS Same-Spin Energy      =      -0.1360927109408607 [Eh]
	 SCS Opposite-Spin Energy  =      -1.4983537742555066 [Eh]
	 SCS Correlation Energy    =      -1.6344464851963674 [Eh]
	 SCS Total Energy          =    -363.2176820661862280 [Eh]
	-----------------------------------------------------------

  Dipole Moment: [D]
     X:    -1.4495      Y:    -1.6005      Z:     0.1579     Total:     2.1651

*** Psi4 exiting successfully. Buy a developer a beer!
