                               Psi4 1.3.2 release

  ==> Input File <==

--------------------------------------------------------------------------
#psi4
#
memory 32 gb

molecule  {
0 1
  N       -1.5631460    -1.0786450     0.0000020
  C        0.9814170     1.4318910     0.0000000
  C        2.1554110     0.6922200     0.0000020
  C        2.1326810    -0.7203310    -0.0000050
  C        0.9343870    -1.4220840     0.0000000
  C       -0.2481830    -0.6706930     0.0000000
  C       -0.2522510     0.7528300     0.0000150
  C       -1.6207120     1.1681210    -0.0000080
  C       -2.3885810     0.0265560    -0.0000050
  H        1.0121500     2.5200250     0.0000050
  H        3.1140070     1.2059840    -0.0000050
  H        3.0718340    -1.2688090    -0.0000050
  H        0.9183210    -2.5105470    -0.0000040
  H       -1.9975102     2.1830686    -0.2500130
  H       -1.8769340    -2.0399470     0.0000180
  H       -3.4648550    -0.0903210     0.0000040
units angstrom
no_reorient  #important for SAPT in psi4, default
symmetry c1  #important for SAPT in psi4, default
}

set PROPERTIES_ORIGIN ["COM"]
properties('MP2/aug-cc-pvtz', properties = ['dipole'])
--------------------------------------------------------------------------

    Molecular point group: c1
  Charge       = 0
  Multiplicity = 1
  Basis Set: AUG-CC-PVTZ
    Blend: AUG-CC-PVTZ
  Basis Set: (AUG-CC-PVTZ AUX)
    Blend: AUG-CC-PVTZ-JKFIT

    Orbital Energies [Eh]
    ---------------------

    Doubly Occupied:

       1A    -15.606508     2A    -11.274251     3A    -11.267394
       4A    -11.233782     5A    -11.231712     6A    -11.230569
       7A    -11.227394     8A    -11.222573     9A    -11.220980
      10A     -1.296904    11A     -1.128643    12A     -1.055808
      13A     -0.996691    14A     -0.974300    15A     -0.842483
      16A     -0.806042    17A     -0.785979    18A     -0.727131
      19A     -0.661812    20A     -0.647281    21A     -0.601087
      22A     -0.595278    23A     -0.585782    24A     -0.569069
      25A     -0.548814    26A     -0.507927    27A     -0.482258
      28A     -0.465128    29A     -0.385494    30A     -0.301755
      31A     -0.283314

  @DF-RHF Final Energy:  -361.58559607096925

   => Energetics <=

    Nuclear Repulsion Energy =            399.8953814606115884
    One-Electron Energy =               -1281.4336722920545526
    Two-Electron Energy =                 519.9526947604737188
    Total Energy =                       -361.5855960709692454
  Basis Set: (AUG-CC-PVTZ AUX)
    Blend: AUG-CC-PVTZ-RI
    Molecular point group: c1

    Geometry (in Angstrom), charge = 0, multiplicity = 1:

       Center              X                  Y                   Z               Mass
    ------------   -----------------  -----------------  -----------------  -----------------
         N           -1.556519121302    -1.078621281513     0.002154271322    14.003074004430
         C            0.988043878698     1.431914718487     0.002152271322    12.000000000000
         C            2.162037878698     0.692243718487     0.002154271322    12.000000000000
         C            2.139307878698    -0.720307281513     0.002147271322    12.000000000000
         C            0.941013878698    -1.422060281513     0.002152271322    12.000000000000
         C           -0.241556121302    -0.670669281513     0.002152271322    12.000000000000
         C           -0.245624121302     0.752853718487     0.002167271322    12.000000000000
         C           -1.614085121302     1.168144718487     0.002144271322    12.000000000000
         C           -2.381954121302     0.026579718487     0.002147271322    12.000000000000
         H            1.018776878698     2.520048718487     0.002157271322     1.007825032230
         H            3.120633878698     1.206007718487     0.002147271322     1.007825032230
         H            3.078460878698    -1.268785281513     0.002147271322     1.007825032230
         H            0.924947878698    -2.510523281513     0.002148271322     1.007825032230
         H           -1.990883321302     2.183092318487    -0.247860728678     1.007825032230
         H           -1.870307121302    -2.039923281513     0.002170271322     1.007825032230
         H           -3.458228121302    -0.090297281513     0.002156271322     1.007825032230

  Basis Set: AUG-CC-PVTZ
    Blend: AUG-CC-PVTZ
  Basis Set: (AUG-CC-PVTZ AUX)
    Blend: AUG-CC-PVTZ-JKFIT
	 Reference Energy          =    -361.5855960709692454 [Eh]
	 Singles Energy            =      -0.0000000000000000 [Eh]
	 Same-Spin Energy          =      -0.4081608219521001 [Eh]
	 Opposite-Spin Energy      =      -1.2483186872598371 [Eh]
	 Correlation Energy        =      -1.6564795092119371 [Eh]
	 Total Energy              =    -363.2420755801811652 [Eh]

	 ================> DF-SCS-MP2 Energies <==================
	-----------------------------------------------------------
	 SCS Same-Spin Scale       =       0.3333333333333333 [-]
	 SCS Opposite-Spin Scale   =       1.2000000000000000 [-]
	 SCS Same-Spin Energy      =      -0.1360536073173667 [Eh]
	 SCS Opposite-Spin Energy  =      -1.4979824247118045 [Eh]
	 SCS Correlation Energy    =      -1.6340360320291714 [Eh]
	 SCS Total Energy          =    -363.2196321029983892 [Eh]
	-----------------------------------------------------------

  Dipole Moment: [D]
     X:    -1.4551      Y:    -1.5999      Z:    -0.1990     Total:     2.1718

*** Psi4 exiting successfully. Buy a developer a beer!
