                               Psi4 1.3.2 release

  ==> Input File <==

--------------------------------------------------------------------------
#psi4
#
memory 32 gb

molecule  {
0 1
  N       -1.5631460    -1.0786450     0.0000020
  C        0.9814170     1.4318910     0.0000000
  C        2.1554110     0.6922200     0.0000020
  C        2.1326810    -0.7203310    -0.0000050
  C        0.9343870    -1.4220840     0.0000000
  C       -0.2481830    -0.6706930     0.0000000
  C       -0.2522510     0.7528283     0.2500150
  C       -1.6207120     1.1681210    -0.0000080
  C       -2.3885810     0.0265560    -0.0000050
  H        1.0121500     2.5200250     0.0000050
  H        3.1140070     1.2059840    -0.0000050
  H        3.0718340    -1.2688090    -0.0000050
  H        0.9183210    -2.5105470    -0.0000040
  H       -1.9975130     2.1830700    -0.0000130
  H       -1.8769340    -2.0399470     0.0000180
  H       -3.4648550    -0.0903210     0.0000040
units angstrom
no_reorient  #important for SAPT in psi4, default
symmetry c1  #important for SAPT in psi4, default
}

set PROPERTIES_ORIGIN ["COM"]
properties('MP2/aug-cc-pvtz', properties = ['dipole'])
--------------------------------------------------------------------------

    Molecular point group: c1
  Charge       = 0
  Multiplicity = 1
  Basis Set: AUG-CC-PVTZ
    Blend: AUG-CC-PVTZ
  Basis Set: (AUG-CC-PVTZ AUX)
    Blend: AUG-CC-PVTZ-JKFIT

    Orbital Energies [Eh]
    ---------------------

    Doubly Occupied:

       1A    -15.606378     2A    -11.272232     3A    -11.272056
       4A    -11.235500     5A    -11.233727     6A    -11.232462
       7A    -11.232197     8A    -11.221800     9A    -11.220865
      10A     -1.295391    11A     -1.126797    12A     -1.053062
      13A     -0.995493    14A     -0.972839    15A     -0.839653
      16A     -0.804268    17A     -0.786616    18A     -0.727035
      19A     -0.660479    20A     -0.648017    21A     -0.601999
      22A     -0.594046    23A     -0.581212    24A     -0.570844
      25A     -0.547288    26A     -0.506285    27A     -0.479724
      28A     -0.461734    29A     -0.382872    30A     -0.301344
      31A     -0.282276

  @DF-RHF Final Energy:  -361.56849161765604

   => Energetics <=

    Nuclear Repulsion Energy =            399.1435872426414448
    One-Electron Energy =               -1279.9311734640693885
    Two-Electron Energy =                 519.2190946037719641
    Total Energy =                       -361.5684916176560364
  Basis Set: (AUG-CC-PVTZ AUX)
    Blend: AUG-CC-PVTZ-RI
    Molecular point group: c1

    Geometry (in Angstrom), charge = 0, multiplicity = 1:

       Center              X                  Y                   Z               Mass
    ------------   -----------------  -----------------  -----------------  -----------------
         N           -1.556519097195    -1.078621119293    -0.025626490749    14.003074004430
         C            0.988043902805     1.431914880707    -0.025628490749    12.000000000000
         C            2.162037902805     0.692243880707    -0.025626490749    12.000000000000
         C            2.139307902805    -0.720307119293    -0.025633490749    12.000000000000
         C            0.941013902805    -1.422060119293    -0.025628490749    12.000000000000
         C           -0.241556097195    -0.670669119293    -0.025628490749    12.000000000000
         C           -0.245624097195     0.752852180707     0.224386509251    12.000000000000
         C           -1.614085097195     1.168144880707    -0.025636490749    12.000000000000
         C           -2.381954097195     0.026579880707    -0.025633490749    12.000000000000
         H            1.018776902805     2.520048880707    -0.025623490749     1.007825032230
         H            3.120633902805     1.206007880707    -0.025633490749     1.007825032230
         H            3.078460902805    -1.268785119293    -0.025633490749     1.007825032230
         H            0.924947902805    -2.510523119293    -0.025632490749     1.007825032230
         H           -1.990886097195     2.183093880707    -0.025641490749     1.007825032230
         H           -1.870307097195    -2.039923119293    -0.025610490749     1.007825032230
         H           -3.458228097195    -0.090297119293    -0.025624490749     1.007825032230

  Basis Set: AUG-CC-PVTZ
    Blend: AUG-CC-PVTZ
  Basis Set: (AUG-CC-PVTZ AUX)
    Blend: AUG-CC-PVTZ-JKFIT
	 Reference Energy          =    -361.5684916176560364 [Eh]
	 Singles Energy            =      -0.0000000000000000 [Eh]
	 Same-Spin Energy          =      -0.4087053422761856 [Eh]
	 Opposite-Spin Energy      =      -1.2499762113978992 [Eh]
	 Correlation Energy        =      -1.6586815536740849 [Eh]
	 Total Energy              =    -363.2271731713300937 [Eh]

	 ================> DF-SCS-MP2 Energies <==================
	-----------------------------------------------------------
	 SCS Same-Spin Scale       =       0.3333333333333333 [-]
	 SCS Opposite-Spin Scale   =       1.2000000000000000 [-]
	 SCS Same-Spin Energy      =      -0.1362351140920618 [Eh]
	 SCS Opposite-Spin Energy  =      -1.4999714536774789 [Eh]
	 SCS Correlation Energy    =      -1.6362065677695408 [Eh]
	 SCS Total Energy          =    -363.2046981854255705 [Eh]
	-----------------------------------------------------------

  Dipole Moment: [D]
     X:    -1.4656      Y:    -1.6032      Z:    -0.0505     Total:     2.1727

*** Psi4 exiting successfully. Buy a developer a beer!
