                               Psi4 1.3.2 release

  ==> Input File <==

--------------------------------------------------------------------------
#psi4
#
memory 32 gb

molecule  {
0 1
  N       -1.5631460    -1.0786450     0.0000020
  C        0.9814170     1.4318910     0.0000000
  C        2.1554110     0.6922200     0.0000020
  C        2.1326810    -0.7203310    -0.0000050
  C        0.9343870    -1.4220840     0.0000000
  C       -0.2481830    -0.6706930     0.0000000
  C       -0.2522510     0.7528300     0.0000150
  C       -1.6207120     1.1681210    -0.0000080
  C       -2.3885810     0.0265560    -0.0000050
  H        1.0121500     2.5200250     0.0000050
  H        3.1140073     1.2059838     0.1499950
  H        3.0718340    -1.2688090    -0.0000050
  H        0.9183210    -2.5105470    -0.0000040
  H       -1.9975130     2.1830700    -0.0000130
  H       -1.8769340    -2.0399470     0.0000180
  H       -3.4648550    -0.0903210     0.0000040
units angstrom
no_reorient  #important for SAPT in psi4, default
symmetry c1  #important for SAPT in psi4, default
}

set PROPERTIES_ORIGIN ["COM"]
properties('MP2/aug-cc-pvtz', properties = ['dipole'])
--------------------------------------------------------------------------

    Molecular point group: c1
  Charge       = 0
  Multiplicity = 1
  Basis Set: AUG-CC-PVTZ
    Blend: AUG-CC-PVTZ
  Basis Set: (AUG-CC-PVTZ AUX)
    Blend: AUG-CC-PVTZ-JKFIT

    Orbital Energies [Eh]
    ---------------------

    Doubly Occupied:

       1A    -15.605877     2A    -11.273277     3A    -11.267352
       4A    -11.233642     5A    -11.231915     6A    -11.230561
       7A    -11.227375     8A    -11.223271     9A    -11.218945
      10A     -1.296419    11A     -1.128508    12A     -1.056117
      13A     -0.996240    14A     -0.974391    15A     -0.842039
      16A     -0.806168    17A     -0.788239    18A     -0.727353
      19A     -0.661585    20A     -0.646218    21A     -0.601871
      22A     -0.595248    23A     -0.584188    24A     -0.574299
      25A     -0.550075    26A     -0.507321    27A     -0.482798
      28A     -0.463913    29A     -0.386173    30A     -0.301479
      31A     -0.283092

  @DF-RHF Final Energy:  -361.58785631513177

   => Energetics <=

    Nuclear Repulsion Energy =            399.9638616980201959
    One-Electron Energy =               -1281.5715431559412991
    Two-Electron Energy =                 520.0198251427893865
    Total Energy =                       -361.5878563151317167
  Basis Set: (AUG-CC-PVTZ AUX)
    Blend: AUG-CC-PVTZ-RI
    Molecular point group: c1

    Geometry (in Angstrom), charge = 0, multiplicity = 1:

       Center              X                  Y                   Z               Mass
    ------------   -----------------  -----------------  -----------------  -----------------
         N           -1.556519099778    -1.078621291844    -0.001289581573    14.003074004430
         C            0.988043900222     1.431914708156    -0.001291581573    12.000000000000
         C            2.162037900222     0.692243708156    -0.001289581573    12.000000000000
         C            2.139307900222    -0.720307291844    -0.001296581573    12.000000000000
         C            0.941013900222    -1.422060291844    -0.001291581573    12.000000000000
         C           -0.241556099778    -0.670669291844    -0.001291581573    12.000000000000
         C           -0.245624099778     0.752853708156    -0.001276581573    12.000000000000
         C           -1.614085099778     1.168144708156    -0.001299581573    12.000000000000
         C           -2.381954099778     0.026579708156    -0.001296581573    12.000000000000
         H            1.018776900222     2.520048708156    -0.001286581573     1.007825032230
         H            3.120634200222     1.206007508156     0.148703418427     1.007825032230
         H            3.078460900222    -1.268785291844    -0.001296581573     1.007825032230
         H            0.924947900222    -2.510523291844    -0.001295581573     1.007825032230
         H           -1.990886099778     2.183093708156    -0.001304581573     1.007825032230
         H           -1.870307099778    -2.039923291844    -0.001273581573     1.007825032230
         H           -3.458228099778    -0.090297291844    -0.001287581573     1.007825032230

  Basis Set: AUG-CC-PVTZ
    Blend: AUG-CC-PVTZ
  Basis Set: (AUG-CC-PVTZ AUX)
    Blend: AUG-CC-PVTZ-JKFIT
	 Reference Energy          =    -361.5878563151317735 [Eh]
	 Singles Energy            =      -0.0000000000000000 [Eh]
	 Same-Spin Energy          =      -0.4080497792081300 [Eh]
	 Opposite-Spin Energy      =      -1.2480397751825016 [Eh]
	 Correlation Energy        =      -1.6560895543906318 [Eh]
	 Total Energy              =    -363.2439458695224062 [Eh]

	 ================> DF-SCS-MP2 Energies <==================
	-----------------------------------------------------------
	 SCS Same-Spin Scale       =       0.3333333333333333 [-]
	 SCS Opposite-Spin Scale   =       1.2000000000000000 [-]
	 SCS Same-Spin Energy      =      -0.1360165930693767 [Eh]
	 SCS Opposite-Spin Energy  =      -1.4976477302190019 [Eh]
	 SCS Correlation Energy    =      -1.6336643232883785 [Eh]
	 SCS Total Energy          =    -363.2215206384201451 [Eh]
	-----------------------------------------------------------

  Dipole Moment: [D]
     X:    -1.5084      Y:    -1.5565      Z:     0.0968     Total:     2.1696

*** Psi4 exiting successfully. Buy a developer a beer!
