                               Psi4 1.3.2 release

  ==> Input File <==

--------------------------------------------------------------------------
#psi4
#
memory 32 gb

molecule  {
0 1
  N       -1.5631460    -1.0786450     0.0000020
  C        0.9814170     1.4318910     0.0000000
  C        2.1554110     0.6922200     0.0000020
  C        2.1326810    -0.7203310    -0.0000050
  C        0.9343870    -1.4220840     0.0000000
  C       -0.2481830    -0.6706930     0.0000000
  C       -0.2522510     0.7528300     0.0000150
  C       -1.6207120     1.1681210    -0.0000080
  C       -2.3885810     0.0265560    -0.0000050
  H        1.0121500     2.5200250     0.0000050
  H        3.1140070     1.2059840    -0.0000050
  H        3.0718346    -1.2688096     0.2499950
  H        0.9183210    -2.5105470    -0.0000040
  H       -1.9975130     2.1830700    -0.0000130
  H       -1.8769340    -2.0399470     0.0000180
  H       -3.4648550    -0.0903210     0.0000040
units angstrom
no_reorient  #important for SAPT in psi4, default
symmetry c1  #important for SAPT in psi4, default
}

set PROPERTIES_ORIGIN ["COM"]
properties('MP2/aug-cc-pvtz', properties = ['dipole'])
--------------------------------------------------------------------------

    Molecular point group: c1
  Charge       = 0
  Multiplicity = 1
  Basis Set: AUG-CC-PVTZ
    Blend: AUG-CC-PVTZ
  Basis Set: (AUG-CC-PVTZ AUX)
    Blend: AUG-CC-PVTZ-JKFIT

    Orbital Energies [Eh]
    ---------------------

    Doubly Occupied:

       1A    -15.606038     2A    -11.273683     3A    -11.267351
       4A    -11.234302     5A    -11.232622     6A    -11.231808
       7A    -11.227833     8A    -11.222824     9A    -11.219137
      10A     -1.296613    11A     -1.128561    12A     -1.056165
      13A     -0.996711    14A     -0.973764    15A     -0.842095
      16A     -0.805166    17A     -0.788529    18A     -0.726893
      19A     -0.660461    20A     -0.646114    21A     -0.601769
      22A     -0.595535    23A     -0.584468    24A     -0.574622
      25A     -0.547739    26A     -0.507468    27A     -0.483304
      28A     -0.462349    29A     -0.386038    30A     -0.301711
      31A     -0.283102

  @DF-RHF Final Energy:  -361.58510478746661

   => Energetics <=

    Nuclear Repulsion Energy =            399.8969663719998948
    One-Electron Energy =               -1281.4345881674666998
    Two-Electron Energy =                 519.9525170080001999
    Total Energy =                       -361.5851047874665483
  Basis Set: (AUG-CC-PVTZ AUX)
    Blend: AUG-CC-PVTZ-RI
    Molecular point group: c1

    Geometry (in Angstrom), charge = 0, multiplicity = 1:

       Center              X                  Y                   Z               Mass
    ------------   -----------------  -----------------  -----------------  -----------------
         N           -1.556519102361    -1.078621288400    -0.002150544796    14.003074004430
         C            0.988043897639     1.431914711600    -0.002152544796    12.000000000000
         C            2.162037897639     0.692243711600    -0.002150544796    12.000000000000
         C            2.139307897639    -0.720307288400    -0.002157544796    12.000000000000
         C            0.941013897639    -1.422060288400    -0.002152544796    12.000000000000
         C           -0.241556102361    -0.670669288400    -0.002152544796    12.000000000000
         C           -0.245624102361     0.752853711600    -0.002137544796    12.000000000000
         C           -1.614085102361     1.168144711600    -0.002160544796    12.000000000000
         C           -2.381954102361     0.026579711600    -0.002157544796    12.000000000000
         H            1.018776897639     2.520048711600    -0.002147544796     1.007825032230
         H            3.120633897639     1.206007711600    -0.002157544796     1.007825032230
         H            3.078461497639    -1.268785888400     0.247842455204     1.007825032230
         H            0.924947897639    -2.510523288400    -0.002156544796     1.007825032230
         H           -1.990886102361     2.183093711600    -0.002165544796     1.007825032230
         H           -1.870307102361    -2.039923288400    -0.002134544796     1.007825032230
         H           -3.458228102361    -0.090297288400    -0.002148544796     1.007825032230

  Basis Set: AUG-CC-PVTZ
    Blend: AUG-CC-PVTZ
  Basis Set: (AUG-CC-PVTZ AUX)
    Blend: AUG-CC-PVTZ-JKFIT
	 Reference Energy          =    -361.5851047874666051 [Eh]
	 Singles Energy            =      -0.0000000000000000 [Eh]
	 Same-Spin Energy          =      -0.4082188363172509 [Eh]
	 Opposite-Spin Energy      =      -1.2484399974300195 [Eh]
	 Correlation Energy        =      -1.6566588337472705 [Eh]
	 Total Energy              =    -363.2417636212138632 [Eh]

	 ================> DF-SCS-MP2 Energies <==================
	-----------------------------------------------------------
	 SCS Same-Spin Scale       =       0.3333333333333333 [-]
	 SCS Opposite-Spin Scale   =       1.2000000000000000 [-]
	 SCS Same-Spin Energy      =      -0.1360729454390836 [Eh]
	 SCS Opposite-Spin Energy  =      -1.4981279969160235 [Eh]
	 SCS Correlation Energy    =      -1.6342009423551072 [Eh]
	 SCS Total Energy          =    -363.2193057298217127 [Eh]
	-----------------------------------------------------------

  Dipole Moment: [D]
     X:    -1.5451      Y:    -1.5167      Z:     0.1604     Total:     2.1711

*** Psi4 exiting successfully. Buy a developer a beer!
