                               Psi4 1.3.2 release

  ==> Input File <==

--------------------------------------------------------------------------
#psi4
#
memory 32 gb

molecule  {
0 1
  N       -1.5631460    -1.0786450     0.0000020
  C        0.9814170     1.4318910     0.0000000
  C        2.1554110     0.6922200     0.0000020
  C        2.1326810    -0.7203310    -0.0000050
  C        0.9343870    -1.4220840     0.0000000
  C       -0.2481830    -0.6706930     0.0000000
  C       -0.2522510     0.7528300     0.0000150
  C       -1.6207120     1.1681210    -0.0000080
  C       -2.3885810     0.0265560    -0.0000050
  H        1.0121500     2.5200250     0.0000050
  H        3.1140070     1.2059840    -0.0000050
  H        3.0718340    -1.2688090    -0.0000050
  H        0.9183210    -2.5105470    -0.0000040
  H       -1.9975130     2.1830700    -0.0000130
  H       -1.8769340    -2.0399470     0.0000180
  H       -3.4648541    -0.0903199     0.2500040
units angstrom
no_reorient  #important for SAPT in psi4, default
symmetry c1  #important for SAPT in psi4, default
}

set PROPERTIES_ORIGIN ["COM"]
properties('MP2/aug-cc-pvtz', properties = ['dipole'])
--------------------------------------------------------------------------

    Molecular point group: c1
  Charge       = 0
  Multiplicity = 1
  Basis Set: AUG-CC-PVTZ
    Blend: AUG-CC-PVTZ
  Basis Set: (AUG-CC-PVTZ AUX)
    Blend: AUG-CC-PVTZ-JKFIT

    Orbital Energies [Eh]
    ---------------------

    Doubly Occupied:

       1A    -15.605471     2A    -11.274950     3A    -11.267688
       4A    -11.233848     5A    -11.232240     6A    -11.230996
       7A    -11.227631     8A    -11.222757     9A    -11.219773
      10A     -1.296223    11A     -1.128797    12A     -1.056314
      13A     -0.996610    14A     -0.973800    15A     -0.841057
      16A     -0.805529    17A     -0.788379    18A     -0.726121
      19A     -0.660535    20A     -0.645626    21A     -0.601970
      22A     -0.595681    23A     -0.585483    24A     -0.572637
      25A     -0.546768    26A     -0.507983    27A     -0.483046
      28A     -0.464757    29A     -0.386284    30A     -0.301723
      31A     -0.283367

  @DF-RHF Final Energy:  -361.58544309199698

   => Energetics <=

    Nuclear Repulsion Energy =            399.8960778497337856
    One-Electron Energy =               -1281.4349513189599747
    Two-Electron Energy =                 519.9534303772292105
    Total Energy =                       -361.5854430919970355
  Basis Set: (AUG-CC-PVTZ AUX)
    Blend: AUG-CC-PVTZ-RI
    Molecular point group: c1

    Geometry (in Angstrom), charge = 0, multiplicity = 1:

       Center              X                  Y                   Z               Mass
    ------------   -----------------  -----------------  -----------------  -----------------
         N           -1.556519104943    -1.078621303037    -0.002150544796    14.003074004430
         C            0.988043895057     1.431914696963    -0.002152544796    12.000000000000
         C            2.162037895057     0.692243696963    -0.002150544796    12.000000000000
         C            2.139307895057    -0.720307303037    -0.002157544796    12.000000000000
         C            0.941013895057    -1.422060303037    -0.002152544796    12.000000000000
         C           -0.241556104943    -0.670669303037    -0.002152544796    12.000000000000
         C           -0.245624104943     0.752853696963    -0.002137544796    12.000000000000
         C           -1.614085104943     1.168144696963    -0.002160544796    12.000000000000
         C           -2.381954104943     0.026579696963    -0.002157544796    12.000000000000
         H            1.018776895057     2.520048696963    -0.002147544796     1.007825032230
         H            3.120633895057     1.206007696963    -0.002157544796     1.007825032230
         H            3.078460895057    -1.268785303037    -0.002157544796     1.007825032230
         H            0.924947895057    -2.510523303037    -0.002156544796     1.007825032230
         H           -1.990886104943     2.183093696963    -0.002165544796     1.007825032230
         H           -1.870307104943    -2.039923303037    -0.002134544796     1.007825032230
         H           -3.458227204943    -0.090296203037     0.247851455204     1.007825032230

  Basis Set: AUG-CC-PVTZ
    Blend: AUG-CC-PVTZ
  Basis Set: (AUG-CC-PVTZ AUX)
    Blend: AUG-CC-PVTZ-JKFIT
	 Reference Energy          =    -361.5854430919969786 [Eh]
	 Singles Energy            =      -0.0000000000000000 [Eh]
	 Same-Spin Energy          =      -0.4082243566796758 [Eh]
	 Opposite-Spin Energy      =      -1.2484658764208600 [Eh]
	 Correlation Energy        =      -1.6566902331005360 [Eh]
	 Total Energy              =    -363.2421333250975408 [Eh]

	 ================> DF-SCS-MP2 Energies <==================
	-----------------------------------------------------------
	 SCS Same-Spin Scale       =       0.3333333333333333 [-]
	 SCS Opposite-Spin Scale   =       1.2000000000000000 [-]
	 SCS Same-Spin Energy      =      -0.1360747855598919 [Eh]
	 SCS Opposite-Spin Energy  =      -1.4981590517050321 [Eh]
	 SCS Correlation Energy    =      -1.6342338372649241 [Eh]
	 SCS Total Energy          =    -363.2196769292618796 [Eh]
	-----------------------------------------------------------

  Dipole Moment: [D]
     X:    -1.4093      Y:    -1.5339      Z:     0.2003     Total:     2.0927

*** Psi4 exiting successfully. Buy a developer a beer!
