                               Psi4 1.3.2 release

  ==> Input File <==

--------------------------------------------------------------------------
#psi4
#
memory 32 gb

molecule  {
0 1
  N       -1.5631460    -1.0786450     0.0000020
  C        0.9814170     1.4318910     0.0000000
  C        2.1554110     0.6922200     0.0000020
  C        2.1326810    -0.7203310    -0.0000050
  C        0.9343870    -1.4220840     0.0000000
  C       -0.2481830    -0.6706930     0.0000000
  C       -0.2522510     0.7528286     0.2000150
  C       -1.6207120     1.1681210    -0.0000080
  C       -2.3885810     0.0265560    -0.0000050
  H        1.0121500     2.5200250     0.0000050
  H        3.1140070     1.2059840    -0.0000050
  H        3.0718340    -1.2688090    -0.0000050
  H        0.9183210    -2.5105470    -0.0000040
  H       -1.9975130     2.1830700    -0.0000130
  H       -1.8769340    -2.0399470     0.0000180
  H       -3.4648550    -0.0903210     0.0000040
units angstrom
no_reorient  #important for SAPT in psi4, default
symmetry c1  #important for SAPT in psi4, default
}

set PROPERTIES_ORIGIN ["COM"]
properties('MP2/aug-cc-pvtz', properties = ['dipole'])
--------------------------------------------------------------------------

    Molecular point group: c1
  Charge       = 0
  Multiplicity = 1
  Basis Set: AUG-CC-PVTZ
    Blend: AUG-CC-PVTZ
  Basis Set: (AUG-CC-PVTZ AUX)
    Blend: AUG-CC-PVTZ-JKFIT

    Orbital Energies [Eh]
    ---------------------

    Doubly Occupied:

       1A    -15.606131     2A    -11.272560     3A    -11.270304
       4A    -11.234155     5A    -11.233520     6A    -11.231825
       7A    -11.230486     8A    -11.221997     9A    -11.220172
      10A     -1.295690    11A     -1.127361    12A     -1.054122
      13A     -0.995826    14A     -0.973346    15A     -0.840524
      16A     -0.804920    17A     -0.787288    18A     -0.727090
      19A     -0.660933    20A     -0.647787    21A     -0.601965
      22A     -0.594505    23A     -0.582016    24A     -0.572152
      25A     -0.548220    26A     -0.506858    27A     -0.480817
      28A     -0.462874    29A     -0.383981    30A     -0.301372
      31A     -0.282514

  @DF-RHF Final Energy:  -361.57598869870992

   => Energetics <=

    Nuclear Repulsion Energy =            399.4491378236347714
    One-Electron Energy =               -1280.5436277544004042
    Two-Electron Energy =                 519.5185012320556552
    Total Energy =                       -361.5759886987099208
  Basis Set: (AUG-CC-PVTZ AUX)
    Blend: AUG-CC-PVTZ-RI
    Molecular point group: c1

    Geometry (in Angstrom), charge = 0, multiplicity = 1:

       Center              X                  Y                   Z               Mass
    ------------   -----------------  -----------------  -----------------  -----------------
         N           -1.556519097195    -1.078621150047    -0.020500819947    14.003074004430
         C            0.988043902805     1.431914849953    -0.020502819947    12.000000000000
         C            2.162037902805     0.692243849953    -0.020500819947    12.000000000000
         C            2.139307902805    -0.720307150047    -0.020507819947    12.000000000000
         C            0.941013902805    -1.422060150047    -0.020502819947    12.000000000000
         C           -0.241556097195    -0.670669150047    -0.020502819947    12.000000000000
         C           -0.245624097195     0.752852449953     0.179512180053    12.000000000000
         C           -1.614085097195     1.168144849953    -0.020510819947    12.000000000000
         C           -2.381954097195     0.026579849953    -0.020507819947    12.000000000000
         H            1.018776902805     2.520048849953    -0.020497819947     1.007825032230
         H            3.120633902805     1.206007849953    -0.020507819947     1.007825032230
         H            3.078460902805    -1.268785150047    -0.020507819947     1.007825032230
         H            0.924947902805    -2.510523150047    -0.020506819947     1.007825032230
         H           -1.990886097195     2.183093849953    -0.020515819947     1.007825032230
         H           -1.870307097195    -2.039923150047    -0.020484819947     1.007825032230
         H           -3.458228097195    -0.090297150047    -0.020498819947     1.007825032230

  Basis Set: AUG-CC-PVTZ
    Blend: AUG-CC-PVTZ
  Basis Set: (AUG-CC-PVTZ AUX)
    Blend: AUG-CC-PVTZ-JKFIT
	 Reference Energy          =    -361.5759886987099208 [Eh]
	 Singles Energy            =      -0.0000000000000000 [Eh]
	 Same-Spin Energy          =      -0.4084516430283879 [Eh]
	 Opposite-Spin Energy      =      -1.2491200621133065 [Eh]
	 Correlation Energy        =      -1.6575717051416943 [Eh]
	 Total Energy              =    -363.2335604038516408 [Eh]

	 ================> DF-SCS-MP2 Energies <==================
	-----------------------------------------------------------
	 SCS Same-Spin Scale       =       0.3333333333333333 [-]
	 SCS Opposite-Spin Scale   =       1.2000000000000000 [-]
	 SCS Same-Spin Energy      =      -0.1361505476761293 [Eh]
	 SCS Opposite-Spin Energy  =      -1.4989440745359677 [Eh]
	 SCS Correlation Energy    =      -1.6350946222120970 [Eh]
	 SCS Total Energy          =    -363.2110833209220004 [Eh]
	-----------------------------------------------------------

  Dipole Moment: [D]
     X:    -1.4726      Y:    -1.5826      Z:    -0.0388     Total:     2.1621

*** Psi4 exiting successfully. Buy a developer a beer!
