                               Psi4 1.3.2 release

  ==> Input File <==

--------------------------------------------------------------------------
#psi4
#
memory 32 gb

molecule  {
0 1
  N       -1.5631460    -1.0786450     0.0000020
  C        0.9814170     1.4318910     0.0000000
  C        2.1554110     0.6922200     0.0000020
  C        2.1326810    -0.7203310    -0.0000050
  C        0.9343870    -1.4220840     0.0000000
  C       -0.2481830    -0.6706930     0.0000000
  C       -0.2522510     0.7528300     0.0000150
  C       -1.6207120     1.1681210    -0.0000080
  C       -2.3885810     0.0265560    -0.0000050
  H        1.0121495     2.5200248    -0.0999950
  H        3.1140070     1.2059840    -0.0000050
  H        3.0718340    -1.2688090    -0.0000050
  H        0.9183210    -2.5105470    -0.0000040
  H       -1.9975130     2.1830700    -0.0000130
  H       -1.8769340    -2.0399470     0.0000180
  H       -3.4648550    -0.0903210     0.0000040
units angstrom
no_reorient  #important for SAPT in psi4, default
symmetry c1  #important for SAPT in psi4, default
}

set PROPERTIES_ORIGIN ["COM"]
properties('MP2/aug-cc-pvtz', properties = ['dipole'])
--------------------------------------------------------------------------

    Molecular point group: c1
  Charge       = 0
  Multiplicity = 1
  Basis Set: AUG-CC-PVTZ
    Blend: AUG-CC-PVTZ
  Basis Set: (AUG-CC-PVTZ AUX)
    Blend: AUG-CC-PVTZ-JKFIT

    Orbital Energies [Eh]
    ---------------------

    Doubly Occupied:

       1A    -15.605759     2A    -11.273224     3A    -11.267159
       4A    -11.233674     5A    -11.232061     6A    -11.230440
       7A    -11.227336     8A    -11.222499     9A    -11.218830
      10A     -1.296307    11A     -1.128473    12A     -1.056010
      13A     -0.996432    14A     -0.974259    15A     -0.842098
      16A     -0.806238    17A     -0.788458    18A     -0.726869
      19A     -0.661709    20A     -0.647454    21A     -0.601746
      22A     -0.594815    23A     -0.583988    24A     -0.574320
      25A     -0.550004    26A     -0.507805    27A     -0.482826
      28A     -0.464402    29A     -0.386003    30A     -0.301542
      31A     -0.283006

  @DF-RHF Final Energy:  -361.58864759758552

   => Energetics <=

    Nuclear Repulsion Energy =            399.9847801054643242
    One-Electron Energy =               -1281.6153631939846491
    Two-Electron Energy =                 520.0419354909347476
    Total Energy =                       -361.5886475975855774
  Basis Set: (AUG-CC-PVTZ AUX)
    Blend: AUG-CC-PVTZ-RI
    Molecular point group: c1

    Geometry (in Angstrom), charge = 0, multiplicity = 1:

       Center              X                  Y                   Z               Mass
    ------------   -----------------  -----------------  -----------------  -----------------
         N           -1.556519092890    -1.078621291844     0.000862826487    14.003074004430
         C            0.988043907110     1.431914708156     0.000860826487    12.000000000000
         C            2.162037907110     0.692243708156     0.000862826487    12.000000000000
         C            2.139307907110    -0.720307291844     0.000855826487    12.000000000000
         C            0.941013907110    -1.422060291844     0.000860826487    12.000000000000
         C           -0.241556092890    -0.670669291844     0.000860826487    12.000000000000
         C           -0.245624092890     0.752853708156     0.000875826487    12.000000000000
         C           -1.614085092890     1.168144708156     0.000852826487    12.000000000000
         C           -2.381954092890     0.026579708156     0.000855826487    12.000000000000
         H            1.018776407110     2.520048508156    -0.099134173513     1.007825032230
         H            3.120633907110     1.206007708156     0.000855826487     1.007825032230
         H            3.078460907110    -1.268785291844     0.000855826487     1.007825032230
         H            0.924947907110    -2.510523291844     0.000856826487     1.007825032230
         H           -1.990886092890     2.183093708156     0.000847826487     1.007825032230
         H           -1.870307092890    -2.039923291844     0.000878826487     1.007825032230
         H           -3.458228092890    -0.090297291844     0.000864826487     1.007825032230

  Basis Set: AUG-CC-PVTZ
    Blend: AUG-CC-PVTZ
  Basis Set: (AUG-CC-PVTZ AUX)
    Blend: AUG-CC-PVTZ-JKFIT
	 Reference Energy          =    -361.5886475975855205 [Eh]
	 Singles Energy            =      -0.0000000000000000 [Eh]
	 Same-Spin Energy          =      -0.4080186119026773 [Eh]
	 Opposite-Spin Energy      =      -1.2479542776770431 [Eh]
	 Correlation Energy        =      -1.6559728895797203 [Eh]
	 Total Energy              =    -363.2446204871652640 [Eh]

	 ================> DF-SCS-MP2 Energies <==================
	-----------------------------------------------------------
	 SCS Same-Spin Scale       =       0.3333333333333333 [-]
	 SCS Opposite-Spin Scale   =       1.2000000000000000 [-]
	 SCS Same-Spin Energy      =      -0.1360062039675591 [Eh]
	 SCS Opposite-Spin Energy  =      -1.4975451332124516 [Eh]
	 SCS Correlation Energy    =      -1.6335513371800108 [Eh]
	 SCS Total Energy          =    -363.2221989347655153 [Eh]
	-----------------------------------------------------------

  Dipole Moment: [D]
     X:    -1.4861      Y:    -1.5560      Z:    -0.0628     Total:     2.1526

*** Psi4 exiting successfully. Buy a developer a beer!
