                               Psi4 1.3.2 release

  ==> Input File <==

--------------------------------------------------------------------------
#psi4
#
memory 32 gb

molecule  {
0 1
  N       -1.5631460    -1.0786450     0.0000020
  C        0.9814170     1.4318910     0.0000000
  C        2.1554110     0.6922200     0.0000020
  C        2.1326810    -0.7203310    -0.0000050
  C        0.9343870    -1.4220840     0.0000000
  C       -0.2481830    -0.6706930     0.0000000
  C       -0.2522510     0.7528300     0.0000150
  C       -1.6207120     1.1681210    -0.0000080
  C       -2.3885810     0.0265560    -0.0000050
  H        1.0121500     2.5200250     0.0000050
  H        3.1140070     1.2059840    -0.0000050
  H        3.0718340    -1.2688090    -0.0000050
  H        0.9183213    -2.5105471     0.1499960
  H       -1.9975130     2.1830700    -0.0000130
  H       -1.8769340    -2.0399470     0.0000180
  H       -3.4648550    -0.0903210     0.0000040
units angstrom
no_reorient  #important for SAPT in psi4, default
symmetry c1  #important for SAPT in psi4, default
}

set PROPERTIES_ORIGIN ["COM"]
properties('MP2/aug-cc-pvtz', properties = ['dipole'])
--------------------------------------------------------------------------

    Molecular point group: c1
  Charge       = 0
  Multiplicity = 1
  Basis Set: AUG-CC-PVTZ
    Blend: AUG-CC-PVTZ
  Basis Set: (AUG-CC-PVTZ AUX)
    Blend: AUG-CC-PVTZ-JKFIT

    Orbital Energies [Eh]
    ---------------------

    Doubly Occupied:

       1A    -15.605783     2A    -11.273215     3A    -11.267282
       4A    -11.234386     5A    -11.231959     6A    -11.230671
       7A    -11.227355     8A    -11.222505     9A    -11.218892
      10A     -1.296328    11A     -1.128544    12A     -1.055946
      13A     -0.996421    14A     -0.974308    15A     -0.841916
      16A     -0.806292    17A     -0.788357    18A     -0.726734
      19A     -0.661525    20A     -0.646995    21A     -0.601743
      22A     -0.594631    23A     -0.583601    24A     -0.574368
      25A     -0.550107    26A     -0.507858    27A     -0.482814
      28A     -0.464307    29A     -0.385899    30A     -0.301581
      31A     -0.283075

  @DF-RHF Final Energy:  -361.58792535938892

   => Energetics <=

    Nuclear Repulsion Energy =            399.9624845786464107
    One-Electron Energy =               -1281.5700283013868557
    Two-Electron Energy =                 520.0196183633515830
    Total Energy =                       -361.5879253593889189
  Basis Set: (AUG-CC-PVTZ AUX)
    Blend: AUG-CC-PVTZ-RI
    Molecular point group: c1

    Geometry (in Angstrom), charge = 0, multiplicity = 1:

       Center              X                  Y                   Z               Mass
    ------------   -----------------  -----------------  -----------------  -----------------
         N           -1.556519099778    -1.078621292705    -0.001289581573    14.003074004430
         C            0.988043900222     1.431914707295    -0.001291581573    12.000000000000
         C            2.162037900222     0.692243707295    -0.001289581573    12.000000000000
         C            2.139307900222    -0.720307292705    -0.001296581573    12.000000000000
         C            0.941013900222    -1.422060292705    -0.001291581573    12.000000000000
         C           -0.241556099778    -0.670669292705    -0.001291581573    12.000000000000
         C           -0.245624099778     0.752853707295    -0.001276581573    12.000000000000
         C           -1.614085099778     1.168144707295    -0.001299581573    12.000000000000
         C           -2.381954099778     0.026579707295    -0.001296581573    12.000000000000
         H            1.018776900222     2.520048707295    -0.001286581573     1.007825032230
         H            3.120633900222     1.206007707295    -0.001296581573     1.007825032230
         H            3.078460900222    -1.268785292705    -0.001296581573     1.007825032230
         H            0.924948200222    -2.510523392705     0.148704418427     1.007825032230
         H           -1.990886099778     2.183093707295    -0.001304581573     1.007825032230
         H           -1.870307099778    -2.039923292705    -0.001273581573     1.007825032230
         H           -3.458228099778    -0.090297292705    -0.001287581573     1.007825032230

  Basis Set: AUG-CC-PVTZ
    Blend: AUG-CC-PVTZ
  Basis Set: (AUG-CC-PVTZ AUX)
    Blend: AUG-CC-PVTZ-JKFIT
	 Reference Energy          =    -361.5879253593889189 [Eh]
	 Singles Energy            =      -0.0000000000000000 [Eh]
	 Same-Spin Energy          =      -0.4080566250387923 [Eh]
	 Opposite-Spin Energy      =      -1.2480472824970867 [Eh]
	 Correlation Energy        =      -1.6561039075358790 [Eh]
	 Total Energy              =    -363.2440292669247697 [Eh]

	 ================> DF-SCS-MP2 Energies <==================
	-----------------------------------------------------------
	 SCS Same-Spin Scale       =       0.3333333333333333 [-]
	 SCS Opposite-Spin Scale   =       1.2000000000000000 [-]
	 SCS Same-Spin Energy      =      -0.1360188750129308 [Eh]
	 SCS Opposite-Spin Energy  =      -1.4976567389965041 [Eh]
	 SCS Correlation Energy    =      -1.6336756140094348 [Eh]
	 SCS Total Energy          =    -363.2216009733983810 [Eh]
	-----------------------------------------------------------

  Dipole Moment: [D]
     X:    -1.4863      Y:    -1.5254      Z:     0.0999     Total:     2.1321

*** Psi4 exiting successfully. Buy a developer a beer!
