                               Psi4 1.3.2 release

  ==> Input File <==

--------------------------------------------------------------------------
#psi4
#
memory 32 gb

molecule  {
0 1
  N       -1.5631460    -1.0786450     0.0000020
  C        0.9814170     1.4318910     0.0000000
  C        2.1554110     0.6922200     0.0000020
  C        2.1326810    -0.7203310    -0.0000050
  C        0.9343870    -1.4220840     0.0000000
  C       -0.2481830    -0.6706930     0.0000000
  C       -0.2522510     0.7528300     0.0000150
  C       -1.6207120     1.1681210    -0.0000080
  C       -2.3885810     0.0265560    -0.0000050
  H        1.0121500     2.5200250     0.0000050
  H        3.1140070     1.2059840    -0.0000050
  H        3.0718340    -1.2688090    -0.0000050
  H        0.9183210    -2.5105470    -0.0000040
  H       -1.9975130     2.1830700    -0.0000130
  H       -1.8769336    -2.0399441     0.2500180
  H       -3.4648550    -0.0903210     0.0000040
units angstrom
no_reorient  #important for SAPT in psi4, default
symmetry c1  #important for SAPT in psi4, default
}

set PROPERTIES_ORIGIN ["COM"]
properties('MP2/aug-cc-pvtz', properties = ['dipole'])
--------------------------------------------------------------------------

    Molecular point group: c1
  Charge       = 0
  Multiplicity = 1
  Basis Set: AUG-CC-PVTZ
    Blend: AUG-CC-PVTZ
  Basis Set: (AUG-CC-PVTZ AUX)
    Blend: AUG-CC-PVTZ-JKFIT

    Orbital Energies [Eh]
    ---------------------

    Doubly Occupied:

       1A    -15.606921     2A    -11.272759     3A    -11.266760
       4A    -11.233687     5A    -11.231834     6A    -11.230544
       7A    -11.227644     8A    -11.222770     9A    -11.219458
      10A     -1.294358    11A     -1.128055    12A     -1.054743
      13A     -0.995502    14A     -0.974022    15A     -0.841395
      16A     -0.802627    17A     -0.787341    18A     -0.724104
      19A     -0.661423    20A     -0.647532    21A     -0.603797
      22A     -0.596053    23A     -0.580258    24A     -0.571877
      25A     -0.549900    26A     -0.507966    27A     -0.482750
      28A     -0.464544    29A     -0.386238    30A     -0.302083
      31A     -0.283372

  @DF-RHF Final Energy:  -361.58660453887467

   => Energetics <=

    Nuclear Repulsion Energy =            399.8595591438632937
    One-Electron Energy =               -1281.3876927564701873
    Two-Electron Energy =                 519.9415290737322266
    Total Energy =                       -361.5866045388746670
  Basis Set: (AUG-CC-PVTZ AUX)
    Blend: AUG-CC-PVTZ-RI
    Molecular point group: c1

    Geometry (in Angstrom), charge = 0, multiplicity = 1:

       Center              X                  Y                   Z               Mass
    ------------   -----------------  -----------------  -----------------  -----------------
         N           -1.556519100639    -1.078621318534    -0.002150544796    14.003074004430
         C            0.988043899361     1.431914681466    -0.002152544796    12.000000000000
         C            2.162037899361     0.692243681466    -0.002150544796    12.000000000000
         C            2.139307899361    -0.720307318534    -0.002157544796    12.000000000000
         C            0.941013899361    -1.422060318534    -0.002152544796    12.000000000000
         C           -0.241556100639    -0.670669318534    -0.002152544796    12.000000000000
         C           -0.245624100639     0.752853681466    -0.002137544796    12.000000000000
         C           -1.614085100639     1.168144681466    -0.002160544796    12.000000000000
         C           -2.381954100639     0.026579681466    -0.002157544796    12.000000000000
         H            1.018776899361     2.520048681466    -0.002147544796     1.007825032230
         H            3.120633899361     1.206007681466    -0.002157544796     1.007825032230
         H            3.078460899361    -1.268785318534    -0.002157544796     1.007825032230
         H            0.924947899361    -2.510523318534    -0.002156544796     1.007825032230
         H           -1.990886100639     2.183093681466    -0.002165544796     1.007825032230
         H           -1.870306700639    -2.039920418534     0.247865455204     1.007825032230
         H           -3.458228100639    -0.090297318534    -0.002148544796     1.007825032230

  Basis Set: AUG-CC-PVTZ
    Blend: AUG-CC-PVTZ
  Basis Set: (AUG-CC-PVTZ AUX)
    Blend: AUG-CC-PVTZ-JKFIT
	 Reference Energy          =    -361.5866045388746670 [Eh]
	 Singles Energy            =      -0.0000000000000000 [Eh]
	 Same-Spin Energy          =      -0.4081376794175703 [Eh]
	 Opposite-Spin Energy      =      -1.2483763695537167 [Eh]
	 Correlation Energy        =      -1.6565140489712871 [Eh]
	 Total Energy              =    -363.2431185878459701 [Eh]

	 ================> DF-SCS-MP2 Energies <==================
	-----------------------------------------------------------
	 SCS Same-Spin Scale       =       0.3333333333333333 [-]
	 SCS Opposite-Spin Scale   =       1.2000000000000000 [-]
	 SCS Same-Spin Energy      =      -0.1360458931391901 [Eh]
	 SCS Opposite-Spin Energy  =      -1.4980516434644600 [Eh]
	 SCS Correlation Energy    =      -1.6340975366036501 [Eh]
	 SCS Total Energy          =    -363.2207020754783002 [Eh]
	-----------------------------------------------------------

  Dipole Moment: [D]
     X:    -1.4519      Y:    -1.4959      Z:     0.3507     Total:     2.1139

*** Psi4 exiting successfully. Buy a developer a beer!
