                               Psi4 1.3.2 release

  ==> Input File <==

--------------------------------------------------------------------------
#psi4
#
memory 32 gb

molecule  {
0 1
  N       -1.5631460    -1.0786450     0.0000020
  C        0.9814170     1.4318910     0.0000000
  C        2.1554110     0.6922200     0.0000020
  C        2.1326810    -0.7203310    -0.0000050
  C        0.9343870    -1.4220840     0.0000000
  C       -0.2481830    -0.6706930     0.0000000
  C       -0.2522510     0.7528300     0.0000150
  C       -1.6207120     1.1681210    -0.0000080
  C       -2.3885810     0.0265560    -0.0000050
  H        1.0121500     2.5200250     0.0000050
  H        3.1140070     1.2059840    -0.0000050
  H        3.0718340    -1.2688090    -0.0000050
  H        0.9183215    -2.5105472     0.2499960
  H       -1.9975130     2.1830700    -0.0000130
  H       -1.8769340    -2.0399470     0.0000180
  H       -3.4648550    -0.0903210     0.0000040
units angstrom
no_reorient  #important for SAPT in psi4, default
symmetry c1  #important for SAPT in psi4, default
}

set PROPERTIES_ORIGIN ["COM"]
properties('MP2/aug-cc-pvtz', properties = ['dipole'])
--------------------------------------------------------------------------

    Molecular point group: c1
  Charge       = 0
  Multiplicity = 1
  Basis Set: AUG-CC-PVTZ
    Blend: AUG-CC-PVTZ
  Basis Set: (AUG-CC-PVTZ AUX)
    Blend: AUG-CC-PVTZ-JKFIT

    Orbital Energies [Eh]
    ---------------------

    Doubly Occupied:

       1A    -15.605886     2A    -11.273274     3A    -11.267559
       4A    -11.235826     5A    -11.232448     6A    -11.231139
       7A    -11.227504     8A    -11.222699     9A    -11.219018
      10A     -1.296426    11A     -1.128717    12A     -1.055871
      13A     -0.996373    14A     -0.974365    15A     -0.841425
      16A     -0.806444    17A     -0.788192    18A     -0.725944
      19A     -0.661108    20A     -0.646264    21A     -0.601768
      22A     -0.593515    23A     -0.582674    24A     -0.574438
      25A     -0.550294    26A     -0.508036    27A     -0.483087
      28A     -0.463285    29A     -0.385629    30A     -0.301705
      31A     -0.283229

  @DF-RHF Final Energy:  -361.58532691176475

   => Energetics <=

    Nuclear Repulsion Energy =            399.8932156839894674
    One-Electron Energy =               -1281.4287971354171987
    Two-Electron Energy =                 519.9502545396630921
    Total Energy =                       -361.5853269117646960
  Basis Set: (AUG-CC-PVTZ AUX)
    Blend: AUG-CC-PVTZ-RI
    Molecular point group: c1

    Geometry (in Angstrom), charge = 0, multiplicity = 1:

       Center              X                  Y                   Z               Mass
    ------------   -----------------  -----------------  -----------------  -----------------
         N           -1.556519101500    -1.078621291844    -0.002150544796    14.003074004430
         C            0.988043898500     1.431914708156    -0.002152544796    12.000000000000
         C            2.162037898500     0.692243708156    -0.002150544796    12.000000000000
         C            2.139307898500    -0.720307291844    -0.002157544796    12.000000000000
         C            0.941013898500    -1.422060291844    -0.002152544796    12.000000000000
         C           -0.241556101500    -0.670669291844    -0.002152544796    12.000000000000
         C           -0.245624101500     0.752853708156    -0.002137544796    12.000000000000
         C           -1.614085101500     1.168144708156    -0.002160544796    12.000000000000
         C           -2.381954101500     0.026579708156    -0.002157544796    12.000000000000
         H            1.018776898500     2.520048708156    -0.002147544796     1.007825032230
         H            3.120633898500     1.206007708156    -0.002157544796     1.007825032230
         H            3.078460898500    -1.268785291844    -0.002157544796     1.007825032230
         H            0.924948398500    -2.510523491844     0.247843455204     1.007825032230
         H           -1.990886101500     2.183093708156    -0.002165544796     1.007825032230
         H           -1.870307101500    -2.039923291844    -0.002134544796     1.007825032230
         H           -3.458228101500    -0.090297291844    -0.002148544796     1.007825032230

  Basis Set: AUG-CC-PVTZ
    Blend: AUG-CC-PVTZ
  Basis Set: (AUG-CC-PVTZ AUX)
    Blend: AUG-CC-PVTZ-JKFIT
	 Reference Energy          =    -361.5853269117647528 [Eh]
	 Singles Energy            =      -0.0000000000000000 [Eh]
	 Same-Spin Energy          =      -0.4081951492849559 [Eh]
	 Opposite-Spin Energy      =      -1.2483789348488681 [Eh]
	 Correlation Energy        =      -1.6565740841338239 [Eh]
	 Total Energy              =    -363.2419009958985612 [Eh]

	 ================> DF-SCS-MP2 Energies <==================
	-----------------------------------------------------------
	 SCS Same-Spin Scale       =       0.3333333333333333 [-]
	 SCS Opposite-Spin Scale   =       1.2000000000000000 [-]
	 SCS Same-Spin Energy      =      -0.1360650497616520 [Eh]
	 SCS Opposite-Spin Energy  =      -1.4980547218186417 [Eh]
	 SCS Correlation Energy    =      -1.6341197715802938 [Eh]
	 SCS Total Energy          =    -363.2194466833450406 [Eh]
	-----------------------------------------------------------

  Dipole Moment: [D]
     X:    -1.4876      Y:    -1.4880      Z:     0.1641     Total:     2.1105

*** Psi4 exiting successfully. Buy a developer a beer!
