                               Psi4 1.3.2 release

  ==> Input File <==

--------------------------------------------------------------------------
#psi4
#
memory 32 gb

molecule  {
0 1
  N       -1.5631460    -1.0786450     0.0000020
  C        0.9814170     1.4318910     0.0000000
  C        2.1554110     0.6922200     0.0000020
  C        2.1326810    -0.7203310    -0.0000050
  C        0.9343870    -1.4220840     0.0000000
  C       -0.2481830    -0.6706930     0.0000000
  C       -0.2522510     0.7528279     0.3000150
  C       -1.6207120     1.1681210    -0.0000080
  C       -2.3885810     0.0265560    -0.0000050
  H        1.0121500     2.5200250     0.0000050
  H        3.1140070     1.2059840    -0.0000050
  H        3.0718340    -1.2688090    -0.0000050
  H        0.9183210    -2.5105470    -0.0000040
  H       -1.9975130     2.1830700    -0.0000130
  H       -1.8769340    -2.0399470     0.0000180
  H       -3.4648550    -0.0903210     0.0000040
units angstrom
no_reorient  #important for SAPT in psi4, default
symmetry c1  #important for SAPT in psi4, default
}

set PROPERTIES_ORIGIN ["COM"]
properties('MP2/aug-cc-pvtz', properties = ['dipole'])
--------------------------------------------------------------------------

    Molecular point group: c1
  Charge       = 0
  Multiplicity = 1
  Basis Set: AUG-CC-PVTZ
    Blend: AUG-CC-PVTZ
  Basis Set: (AUG-CC-PVTZ AUX)
    Blend: AUG-CC-PVTZ-JKFIT

    Orbital Energies [Eh]
    ---------------------

    Doubly Occupied:

       1A    -15.606693     2A    -11.274157     3A    -11.271842
       4A    -11.237090     5A    -11.234478     6A    -11.234192
       7A    -11.232787     8A    -11.221647     9A    -11.221578
      10A     -1.295046    11A     -1.126149    12A     -1.051758
      13A     -0.995096    14A     -0.972232    15A     -0.838661
      16A     -0.803523    17A     -0.785787    18A     -0.726983
      19A     -0.659961    20A     -0.648307    21A     -0.601994
      22A     -0.593469    23A     -0.580433    24A     -0.569234
      25A     -0.546221    26A     -0.505509    27A     -0.478306
      28A     -0.460336    29A     -0.381567    30A     -0.301352
      31A     -0.282005

  @DF-RHF Final Energy:  -361.55931216930776

   => Energetics <=

    Nuclear Repulsion Energy =            398.7755631229082951
    One-Electron Energy =               -1279.1929688014706699
    Two-Electron Energy =                 518.8580935092545587
    Total Energy =                       -361.5593121693077592
  Basis Set: (AUG-CC-PVTZ AUX)
    Blend: AUG-CC-PVTZ-RI
    Molecular point group: c1

    Geometry (in Angstrom), charge = 0, multiplicity = 1:

       Center              X                  Y                   Z               Mass
    ------------   -----------------  -----------------  -----------------  -----------------
         N           -1.556519097195    -1.078621078288    -0.030752161552    14.003074004430
         C            0.988043902805     1.431914921712    -0.030754161552    12.000000000000
         C            2.162037902805     0.692243921712    -0.030752161552    12.000000000000
         C            2.139307902805    -0.720307078288    -0.030759161552    12.000000000000
         C            0.941013902805    -1.422060078288    -0.030754161552    12.000000000000
         C           -0.241556097195    -0.670669078288    -0.030754161552    12.000000000000
         C           -0.245624097195     0.752851821712     0.269260838448    12.000000000000
         C           -1.614085097195     1.168144921712    -0.030762161552    12.000000000000
         C           -2.381954097195     0.026579921712    -0.030759161552    12.000000000000
         H            1.018776902805     2.520048921712    -0.030749161552     1.007825032230
         H            3.120633902805     1.206007921712    -0.030759161552     1.007825032230
         H            3.078460902805    -1.268785078288    -0.030759161552     1.007825032230
         H            0.924947902805    -2.510523078288    -0.030758161552     1.007825032230
         H           -1.990886097195     2.183093921712    -0.030767161552     1.007825032230
         H           -1.870307097195    -2.039923078288    -0.030736161552     1.007825032230
         H           -3.458228097195    -0.090297078288    -0.030750161552     1.007825032230

  Basis Set: AUG-CC-PVTZ
    Blend: AUG-CC-PVTZ
  Basis Set: (AUG-CC-PVTZ AUX)
    Blend: AUG-CC-PVTZ-JKFIT
	 Reference Energy          =    -361.5593121693077592 [Eh]
	 Singles Energy            =      -0.0000000000000000 [Eh]
	 Same-Spin Energy          =      -0.4090070877650215 [Eh]
	 Opposite-Spin Energy      =      -1.2510503401775341 [Eh]
	 Correlation Energy        =      -1.6600574279425557 [Eh]
	 Total Energy              =    -363.2193695972503065 [Eh]

	 ================> DF-SCS-MP2 Energies <==================
	-----------------------------------------------------------
	 SCS Same-Spin Scale       =       0.3333333333333333 [-]
	 SCS Opposite-Spin Scale   =       1.2000000000000000 [-]
	 SCS Same-Spin Energy      =      -0.1363356959216738 [Eh]
	 SCS Opposite-Spin Energy  =      -1.5012604082130410 [Eh]
	 SCS Correlation Energy    =      -1.6375961041347149 [Eh]
	 SCS Total Energy          =    -363.1969082734424887 [Eh]
	-----------------------------------------------------------

  Dipole Moment: [D]
     X:    -1.4574      Y:    -1.6286      Z:    -0.0632     Total:     2.1864

*** Psi4 exiting successfully. Buy a developer a beer!
