                               Psi4 1.3.2 release

  ==> Input File <==

--------------------------------------------------------------------------
#psi4
#
memory 32 gb

molecule  {
0 1
  N       -1.5631460    -1.0786450     0.0000020
  C        0.9814170     1.4318910     0.0000000
  C        2.1554110     0.6922200     0.0000020
  C        2.1326810    -0.7203310    -0.0000050
  C        0.9343870    -1.4220840     0.0000000
  C       -0.2481830    -0.6706930     0.0000000
  C       -0.2522510     0.7528300     0.0000150
  C       -1.6207120     1.1681210    -0.0000080
  C       -2.3885810     0.0265560    -0.0000050
  H        1.0121500     2.5200250     0.0000050
  H        3.1140070     1.2059840    -0.0000050
  H        3.0718340    -1.2688090    -0.0000050
  H        0.9183210    -2.5105470    -0.0000040
  H       -1.9975107     2.1830688    -0.2000130
  H       -1.8769340    -2.0399470     0.0000180
  H       -3.4648550    -0.0903210     0.0000040
units angstrom
no_reorient  #important for SAPT in psi4, default
symmetry c1  #important for SAPT in psi4, default
}

set PROPERTIES_ORIGIN ["COM"]
properties('MP2/aug-cc-pvtz', properties = ['dipole'])
--------------------------------------------------------------------------

    Molecular point group: c1
  Charge       = 0
  Multiplicity = 1
  Basis Set: AUG-CC-PVTZ
    Blend: AUG-CC-PVTZ
  Basis Set: (AUG-CC-PVTZ AUX)
    Blend: AUG-CC-PVTZ-JKFIT

    Orbital Energies [Eh]
    ---------------------

    Doubly Occupied:

       1A    -15.606230     2A    -11.273871     3A    -11.267298
       4A    -11.233705     5A    -11.231699     6A    -11.230508
       7A    -11.227347     8A    -11.222510     9A    -11.220212
      10A     -1.296679    11A     -1.128573    12A     -1.055870
      13A     -0.996606    14A     -0.974290    15A     -0.842388
      16A     -0.806082    17A     -0.786841    18A     -0.727163
      19A     -0.661802    20A     -0.647325    21A     -0.601302
      22A     -0.595285    23A     -0.585295    24A     -0.570756
      25A     -0.549319    26A     -0.507866    27A     -0.482394
      28A     -0.465050    29A     -0.385691    30A     -0.301668
      31A     -0.283198

  @DF-RHF Final Energy:  -361.58699899529671

   => Energetics <=

    Nuclear Repulsion Energy =            399.9332493877053025
    One-Electron Energy =               -1281.5108465501896262
    Two-Electron Energy =                 519.9905981671876134
    Total Energy =                       -361.5869989952967671
  Basis Set: (AUG-CC-PVTZ AUX)
    Blend: AUG-CC-PVTZ-RI
    Molecular point group: c1

    Geometry (in Angstrom), charge = 0, multiplicity = 1:

       Center              X                  Y                   Z               Mass
    ------------   -----------------  -----------------  -----------------  -----------------
         N           -1.556519116997    -1.078621283235     0.001723789710    14.003074004430
         C            0.988043883003     1.431914716765     0.001721789710    12.000000000000
         C            2.162037883003     0.692243716765     0.001723789710    12.000000000000
         C            2.139307883003    -0.720307283235     0.001716789710    12.000000000000
         C            0.941013883003    -1.422060283235     0.001721789710    12.000000000000
         C           -0.241556116997    -0.670669283235     0.001721789710    12.000000000000
         C           -0.245624116997     0.752853716765     0.001736789710    12.000000000000
         C           -1.614085116997     1.168144716765     0.001713789710    12.000000000000
         C           -2.381954116997     0.026579716765     0.001716789710    12.000000000000
         H            1.018776883003     2.520048716765     0.001726789710     1.007825032230
         H            3.120633883003     1.206007716765     0.001716789710     1.007825032230
         H            3.078460883003    -1.268785283235     0.001716789710     1.007825032230
         H            0.924947883003    -2.510523283235     0.001717789710     1.007825032230
         H           -1.990883816997     2.183092516765    -0.198291210290     1.007825032230
         H           -1.870307116997    -2.039923283235     0.001739789710     1.007825032230
         H           -3.458228116997    -0.090297283235     0.001725789710     1.007825032230

  Basis Set: AUG-CC-PVTZ
    Blend: AUG-CC-PVTZ
  Basis Set: (AUG-CC-PVTZ AUX)
    Blend: AUG-CC-PVTZ-JKFIT
	 Reference Energy          =    -361.5869989952967103 [Eh]
	 Singles Energy            =      -0.0000000000000000 [Eh]
	 Same-Spin Energy          =      -0.4080953463037811 [Eh]
	 Opposite-Spin Energy      =      -1.2481544346054505 [Eh]
	 Correlation Energy        =      -1.6562497809092316 [Eh]
	 Total Energy              =    -363.2432487762059168 [Eh]

	 ================> DF-SCS-MP2 Energies <==================
	-----------------------------------------------------------
	 SCS Same-Spin Scale       =       0.3333333333333333 [-]
	 SCS Opposite-Spin Scale   =       1.2000000000000000 [-]
	 SCS Same-Spin Energy      =      -0.1360317821012604 [Eh]
	 SCS Opposite-Spin Energy  =      -1.4977853215265406 [Eh]
	 SCS Correlation Energy    =      -1.6338171036278011 [Eh]
	 SCS Total Energy          =    -363.2208160989245016 [Eh]
	-----------------------------------------------------------

  Dipole Moment: [D]
     X:    -1.4659      Y:    -1.5811      Z:    -0.1603     Total:     2.1621

*** Psi4 exiting successfully. Buy a developer a beer!
