                               Psi4 1.3.2 release

  ==> Input File <==

--------------------------------------------------------------------------
#psi4
#
memory 32 gb

molecule  {
0 1
  N       -1.5631460    -1.0786450     0.0000020
  C        0.9814170     1.4318910     0.0000000
  C        2.1554110     0.6922200     0.0000020
  C        2.1326810    -0.7203310    -0.0000050
  C        0.9343870    -1.4220840     0.0000000
  C       -0.2481830    -0.6706930     0.0000000
  C       -0.2522510     0.7528300     0.0000150
  C       -1.6207120     1.1681210    -0.0000080
  C       -2.3885810     0.0265560    -0.0000050
  H        1.0121500     2.5200250     0.0000050
  H        3.1140070     1.2059840    -0.0000050
  H        3.0718340    -1.2688090    -0.0000050
  H        0.9183210    -2.5105470    -0.0000040
  H       -1.9975119     2.1830694    -0.1000130
  H       -1.8769340    -2.0399470     0.0000180
  H       -3.4648550    -0.0903210     0.0000040
units angstrom
no_reorient  #important for SAPT in psi4, default
symmetry c1  #important for SAPT in psi4, default
}

set PROPERTIES_ORIGIN ["COM"]
properties('MP2/aug-cc-pvtz', properties = ['dipole'])
--------------------------------------------------------------------------

    Molecular point group: c1
  Charge       = 0
  Multiplicity = 1
  Basis Set: AUG-CC-PVTZ
    Blend: AUG-CC-PVTZ
  Basis Set: (AUG-CC-PVTZ AUX)
    Blend: AUG-CC-PVTZ-JKFIT

    Orbital Energies [Eh]
    ---------------------

    Doubly Occupied:

       1A    -15.605854     2A    -11.273358     3A    -11.267172
       4A    -11.233605     5A    -11.231685     6A    -11.230429
       7A    -11.227291     8A    -11.222427     9A    -11.219173
      10A     -1.296377    11A     -1.128482    12A     -1.055965
      13A     -0.996496    14A     -0.974283    15A     -0.842265
      16A     -0.806169    17A     -0.788049    18A     -0.727214
      19A     -0.661809    20A     -0.647391    21A     -0.601633
      22A     -0.595296    23A     -0.584432    24A     -0.573342
      25A     -0.549856    26A     -0.507786    27A     -0.482564
      28A     -0.464946    29A     -0.385964    30A     -0.301553
      31A     -0.283043

  @DF-RHF Final Energy:  -361.58872740583411

   => Energetics <=

    Nuclear Repulsion Energy =            399.9849949275906056
    One-Electron Energy =               -1281.6156254163270205
    Two-Electron Energy =                 520.0419030829023086
    Total Energy =                       -361.5887274058341063
  Basis Set: (AUG-CC-PVTZ AUX)
    Blend: AUG-CC-PVTZ-RI
    Molecular point group: c1

    Geometry (in Angstrom), charge = 0, multiplicity = 1:

       Center              X                  Y                   Z               Mass
    ------------   -----------------  -----------------  -----------------  -----------------
         N           -1.556519106665    -1.078621288400     0.000862826487    14.003074004430
         C            0.988043893335     1.431914711600     0.000860826487    12.000000000000
         C            2.162037893335     0.692243711600     0.000862826487    12.000000000000
         C            2.139307893335    -0.720307288400     0.000855826487    12.000000000000
         C            0.941013893335    -1.422060288400     0.000860826487    12.000000000000
         C           -0.241556106665    -0.670669288400     0.000860826487    12.000000000000
         C           -0.245624106665     0.752853711600     0.000875826487    12.000000000000
         C           -1.614085106665     1.168144711600     0.000852826487    12.000000000000
         C           -2.381954106665     0.026579711600     0.000855826487    12.000000000000
         H            1.018776893335     2.520048711600     0.000865826487     1.007825032230
         H            3.120633893335     1.206007711600     0.000855826487     1.007825032230
         H            3.078460893335    -1.268785288400     0.000855826487     1.007825032230
         H            0.924947893335    -2.510523288400     0.000856826487     1.007825032230
         H           -1.990885006665     2.183093111600    -0.099152173513     1.007825032230
         H           -1.870307106665    -2.039923288400     0.000878826487     1.007825032230
         H           -3.458228106665    -0.090297288400     0.000864826487     1.007825032230

  Basis Set: AUG-CC-PVTZ
    Blend: AUG-CC-PVTZ
  Basis Set: (AUG-CC-PVTZ AUX)
    Blend: AUG-CC-PVTZ-JKFIT
	 Reference Energy          =    -361.5887274058341063 [Eh]
	 Singles Energy            =      -0.0000000000000000 [Eh]
	 Same-Spin Energy          =      -0.4080061776422031 [Eh]
	 Opposite-Spin Energy      =      -1.2479479737727930 [Eh]
	 Correlation Energy        =      -1.6559541514149960 [Eh]
	 Total Energy              =    -363.2446815572491232 [Eh]

	 ================> DF-SCS-MP2 Energies <==================
	-----------------------------------------------------------
	 SCS Same-Spin Scale       =       0.3333333333333333 [-]
	 SCS Opposite-Spin Scale   =       1.2000000000000000 [-]
	 SCS Same-Spin Energy      =      -0.1360020592140677 [Eh]
	 SCS Opposite-Spin Energy  =      -1.4975375685273515 [Eh]
	 SCS Correlation Energy    =      -1.6335396277414191 [Eh]
	 SCS Total Energy          =    -363.2222670335755197 [Eh]
	-----------------------------------------------------------

  Dipole Moment: [D]
     X:    -1.4806      Y:    -1.5555      Z:    -0.0809     Total:     2.1491

*** Psi4 exiting successfully. Buy a developer a beer!
