                               Psi4 1.3.2 release

  ==> Input File <==

--------------------------------------------------------------------------
#psi4
#
memory 32 gb

molecule  {
0 1
  N       -1.5631460    -1.0786450     0.0000020
  C        0.9814170     1.4318910     0.0000000
  C        2.1554110     0.6922200     0.0000020
  C        2.1326810    -0.7203310    -0.0000050
  C        0.9343870    -1.4220840     0.0000000
  C       -0.2481830    -0.6706930     0.0000000
  C       -0.2522510     0.7528300     0.0000150
  C       -1.6207120     1.1681210    -0.0000080
  C       -2.3885810     0.0265560    -0.0000050
  H        1.0121500     2.5200250     0.0000050
  H        3.1140070     1.2059840    -0.0000050
  H        3.0718340    -1.2688090    -0.0000050
  H        0.9183210    -2.5105470    -0.0000040
  H       -1.9975130     2.1830700    -0.0000130
  H       -1.8769339    -2.0399464     0.0500180
  H       -3.4648550    -0.0903210     0.0000040
units angstrom
no_reorient  #important for SAPT in psi4, default
symmetry c1  #important for SAPT in psi4, default
}

set PROPERTIES_ORIGIN ["COM"]
properties('MP2/aug-cc-pvtz', properties = ['dipole'])
--------------------------------------------------------------------------

    Molecular point group: c1
  Charge       = 0
  Multiplicity = 1
  Basis Set: AUG-CC-PVTZ
    Blend: AUG-CC-PVTZ
  Basis Set: (AUG-CC-PVTZ AUX)
    Blend: AUG-CC-PVTZ-JKFIT

    Orbital Energies [Eh]
    ---------------------

    Doubly Occupied:

       1A    -15.605776     2A    -11.273168     3A    -11.267115
       4A    -11.233577     5A    -11.231688     6A    -11.230409
       7A    -11.227290     8A    -11.222415     9A    -11.218850
      10A     -1.296194    11A     -1.128435    12A     -1.055944
      13A     -0.996419    14A     -0.974273    15A     -0.842186
      16A     -0.806049    17A     -0.788427    18A     -0.727111
      19A     -0.661802    20A     -0.647421    21A     -0.601866
      22A     -0.595363    23A     -0.583808    24A     -0.574256
      25A     -0.550001    26A     -0.507769    27A     -0.482624
      28A     -0.464897    29A     -0.386065    30A     -0.301539
      31A     -0.283008

  @DF-RHF Final Energy:  -361.58918178863615

   => Energetics <=

    Nuclear Repulsion Energy =            399.9966556073583206
    One-Electron Energy =               -1281.6401880774440087
    Two-Electron Energy =                 520.0543506814494776
    Total Energy =                       -361.5891817886362105
  Basis Set: (AUG-CC-PVTZ AUX)
    Blend: AUG-CC-PVTZ-RI
    Molecular point group: c1

    Geometry (in Angstrom), charge = 0, multiplicity = 1:

       Center              X                  Y                   Z               Mass
    ------------   -----------------  -----------------  -----------------  -----------------
         N           -1.556519098056    -1.078621298732    -0.000428618349    14.003074004430
         C            0.988043901944     1.431914701268    -0.000430618349    12.000000000000
         C            2.162037901944     0.692243701268    -0.000428618349    12.000000000000
         C            2.139307901944    -0.720307298732    -0.000435618349    12.000000000000
         C            0.941013901944    -1.422060298732    -0.000430618349    12.000000000000
         C           -0.241556098056    -0.670669298732    -0.000430618349    12.000000000000
         C           -0.245624098056     0.752853701268    -0.000415618349    12.000000000000
         C           -1.614085098056     1.168144701268    -0.000438618349    12.000000000000
         C           -2.381954098056     0.026579701268    -0.000435618349    12.000000000000
         H            1.018776901944     2.520048701268    -0.000425618349     1.007825032230
         H            3.120633901944     1.206007701268    -0.000435618349     1.007825032230
         H            3.078460901944    -1.268785298732    -0.000435618349     1.007825032230
         H            0.924947901944    -2.510523298732    -0.000434618349     1.007825032230
         H           -1.990886098056     2.183093701268    -0.000443618349     1.007825032230
         H           -1.870306998056    -2.039922698732     0.049587381651     1.007825032230
         H           -3.458228098056    -0.090297298732    -0.000426618349     1.007825032230

  Basis Set: AUG-CC-PVTZ
    Blend: AUG-CC-PVTZ
  Basis Set: (AUG-CC-PVTZ AUX)
    Blend: AUG-CC-PVTZ-JKFIT
	 Reference Energy          =    -361.5891817886361537 [Eh]
	 Singles Energy            =      -0.0000000000000000 [Eh]
	 Same-Spin Energy          =      -0.4079824719917503 [Eh]
	 Opposite-Spin Energy      =      -1.2479033252805229 [Eh]
	 Correlation Energy        =      -1.6558857972722731 [Eh]
	 Total Energy              =    -363.2450675859084299 [Eh]

	 ================> DF-SCS-MP2 Energies <==================
	-----------------------------------------------------------
	 SCS Same-Spin Scale       =       0.3333333333333333 [-]
	 SCS Opposite-Spin Scale   =       1.2000000000000000 [-]
	 SCS Same-Spin Energy      =      -0.1359941573305834 [Eh]
	 SCS Opposite-Spin Energy  =      -1.4974839903366275 [Eh]
	 SCS Correlation Energy    =      -1.6334781476672109 [Eh]
	 SCS Total Energy          =    -363.2226599363033870 [Eh]
	-----------------------------------------------------------

  Dipole Moment: [D]
     X:    -1.4842      Y:    -1.5447      Z:     0.0711     Total:     2.1434

*** Psi4 exiting successfully. Buy a developer a beer!
