                               Psi4 1.3.2 release

  ==> Input File <==

--------------------------------------------------------------------------
#psi4
#
memory 32 gb

molecule  {
0 1
  N       -1.5631460    -1.0786450     0.0000020
  C        0.9814170     1.4318910     0.0000000
  C        2.1554110     0.6922200     0.0000020
  C        2.1326810    -0.7203310    -0.0000050
  C        0.9343870    -1.4220840     0.0000000
  C       -0.2481830    -0.6706930     0.0000000
  C       -0.2522510     0.7528300     0.0000150
  C       -1.6207120     1.1681210    -0.0000080
  C       -2.3885810     0.0265560    -0.0000050
  H        1.0121497     2.5200249    -0.0499950
  H        3.1140070     1.2059840    -0.0000050
  H        3.0718340    -1.2688090    -0.0000050
  H        0.9183210    -2.5105470    -0.0000040
  H       -1.9975130     2.1830700    -0.0000130
  H       -1.8769340    -2.0399470     0.0000180
  H       -3.4648550    -0.0903210     0.0000040
units angstrom
no_reorient  #important for SAPT in psi4, default
symmetry c1  #important for SAPT in psi4, default
}

set PROPERTIES_ORIGIN ["COM"]
properties('MP2/aug-cc-pvtz', properties = ['dipole'])
--------------------------------------------------------------------------

    Molecular point group: c1
  Charge       = 0
  Multiplicity = 1
  Basis Set: AUG-CC-PVTZ
    Blend: AUG-CC-PVTZ
  Basis Set: (AUG-CC-PVTZ AUX)
    Blend: AUG-CC-PVTZ-JKFIT

    Orbital Energies [Eh]
    ---------------------

    Doubly Occupied:

       1A    -15.605736     2A    -11.273195     3A    -11.267138
       4A    -11.233598     5A    -11.231776     6A    -11.230412
       7A    -11.227290     8A    -11.222424     9A    -11.218825
      10A     -1.296284    11A     -1.128457    12A     -1.056002
      13A     -0.996453    14A     -0.974277    15A     -0.842193
      16A     -0.806216    17A     -0.788464    18A     -0.727141
      19A     -0.661789    20A     -0.647426    21A     -0.601753
      22A     -0.595178    23A     -0.584035    24A     -0.574323
      25A     -0.550004    26A     -0.507771    27A     -0.482671
      28A     -0.464783    29A     -0.386044    30A     -0.301522
      31A     -0.282995

  @DF-RHF Final Energy:  -361.58911142711952

   => Energetics <=

    Nuclear Repulsion Energy =            399.9981108684053766
    One-Electron Energy =               -1281.6420913474169083
    Two-Electron Energy =                 520.0548690518920694
    Total Energy =                       -361.5891114271195192
  Basis Set: (AUG-CC-PVTZ AUX)
    Blend: AUG-CC-PVTZ-RI
    Molecular point group: c1

    Geometry (in Angstrom), charge = 0, multiplicity = 1:

       Center              X                  Y                   Z               Mass
    ------------   -----------------  -----------------  -----------------  -----------------
         N           -1.556519094612    -1.078621292705     0.000432344875    14.003074004430
         C            0.988043905388     1.431914707295     0.000430344875    12.000000000000
         C            2.162037905388     0.692243707295     0.000432344875    12.000000000000
         C            2.139307905388    -0.720307292705     0.000425344875    12.000000000000
         C            0.941013905388    -1.422060292705     0.000430344875    12.000000000000
         C           -0.241556094612    -0.670669292705     0.000430344875    12.000000000000
         C           -0.245624094612     0.752853707295     0.000445344875    12.000000000000
         C           -1.614085094612     1.168144707295     0.000422344875    12.000000000000
         C           -2.381954094612     0.026579707295     0.000425344875    12.000000000000
         H            1.018776605388     2.520048607295    -0.049564655125     1.007825032230
         H            3.120633905388     1.206007707295     0.000425344875     1.007825032230
         H            3.078460905388    -1.268785292705     0.000425344875     1.007825032230
         H            0.924947905388    -2.510523292705     0.000426344875     1.007825032230
         H           -1.990886094612     2.183093707295     0.000417344875     1.007825032230
         H           -1.870307094612    -2.039923292705     0.000448344875     1.007825032230
         H           -3.458228094612    -0.090297292705     0.000434344875     1.007825032230

  Basis Set: AUG-CC-PVTZ
    Blend: AUG-CC-PVTZ
  Basis Set: (AUG-CC-PVTZ AUX)
    Blend: AUG-CC-PVTZ-JKFIT
	 Reference Energy          =    -361.5891114271195192 [Eh]
	 Singles Energy            =      -0.0000000000000000 [Eh]
	 Same-Spin Energy          =      -0.4079867550227941 [Eh]
	 Opposite-Spin Energy      =      -1.2479006533464441 [Eh]
	 Correlation Energy        =      -1.6558874083692383 [Eh]
	 Total Energy              =    -363.2449988354887296 [Eh]

	 ================> DF-SCS-MP2 Energies <==================
	-----------------------------------------------------------
	 SCS Same-Spin Scale       =       0.3333333333333333 [-]
	 SCS Opposite-Spin Scale   =       1.2000000000000000 [-]
	 SCS Same-Spin Energy      =      -0.1359955850075980 [Eh]
	 SCS Opposite-Spin Energy  =      -1.4974807840157329 [Eh]
	 SCS Correlation Energy    =      -1.6334763690233309 [Eh]
	 SCS Total Energy          =    -363.2225877961428750 [Eh]
	-----------------------------------------------------------

  Dipole Moment: [D]
     X:    -1.4857      Y:    -1.5491      Z:    -0.0315     Total:     2.1467

*** Psi4 exiting successfully. Buy a developer a beer!
