                               Psi4 1.3.2 release

  ==> Input File <==

--------------------------------------------------------------------------
#psi4
#
memory 32 gb

molecule  {
0 1
  N       -1.5631460    -1.0786450     0.0000020
  C        0.9814170     1.4318910     0.0000000
  C        2.1554110     0.6922200     0.0000020
  C        2.1326810    -0.7203310    -0.0000050
  C        0.9343870    -1.4220840     0.0000000
  C       -0.2481830    -0.6706930     0.0000000
  C       -0.2522510     0.7528300     0.0000150
  C       -1.6207120     1.1681210    -0.0000080
  C       -2.3885810     0.0265560    -0.0000050
  H        1.0121500     2.5200250     0.0000050
  H        3.1140070     1.2059840    -0.0000050
  H        3.0718340    -1.2688090    -0.0000050
  H        0.9183210    -2.5105470    -0.0000040
  H       -1.9975130     2.1830700    -0.0000130
  H       -1.8769338    -2.0399453     0.1500180
  H       -3.4648550    -0.0903210     0.0000040
units angstrom
no_reorient  #important for SAPT in psi4, default
symmetry c1  #important for SAPT in psi4, default
}

set PROPERTIES_ORIGIN ["COM"]
properties('MP2/aug-cc-pvtz', properties = ['dipole'])
--------------------------------------------------------------------------

    Molecular point group: c1
  Charge       = 0
  Multiplicity = 1
  Basis Set: AUG-CC-PVTZ
    Blend: AUG-CC-PVTZ
  Basis Set: (AUG-CC-PVTZ AUX)
    Blend: AUG-CC-PVTZ-JKFIT

    Orbital Energies [Eh]
    ---------------------

    Doubly Occupied:

       1A    -15.606162     2A    -11.273026     3A    -11.266992
       4A    -11.233615     5A    -11.231738     6A    -11.230456
       7A    -11.227411     8A    -11.222536     9A    -11.219058
      10A     -1.295556    11A     -1.128300    12A     -1.055519
      13A     -0.996099    14A     -0.974187    15A     -0.841890
      16A     -0.804818    17A     -0.788096    18A     -0.726121
      19A     -0.661678    20A     -0.647459    21A     -0.602647
      22A     -0.595715    23A     -0.582205    24A     -0.573619
      25A     -0.549973    26A     -0.507836    27A     -0.482670
      28A     -0.464778    29A     -0.386124    30A     -0.301725
      31A     -0.283134

  @DF-RHF Final Energy:  -361.58844930722586

   => Energetics <=

    Nuclear Repulsion Energy =            399.9499184055517844
    One-Electron Energy =               -1281.5544528354562317
    Two-Electron Energy =                 520.0160851226786463
    Total Energy =                       -361.5884493072258010
  Basis Set: (AUG-CC-PVTZ AUX)
    Blend: AUG-CC-PVTZ-RI
    Molecular point group: c1

    Geometry (in Angstrom), charge = 0, multiplicity = 1:

       Center              X                  Y                   Z               Mass
    ------------   -----------------  -----------------  -----------------  -----------------
         N           -1.556519098917    -1.078621308203    -0.001289581573    14.003074004430
         C            0.988043901083     1.431914691797    -0.001291581573    12.000000000000
         C            2.162037901083     0.692243691797    -0.001289581573    12.000000000000
         C            2.139307901083    -0.720307308203    -0.001296581573    12.000000000000
         C            0.941013901083    -1.422060308203    -0.001291581573    12.000000000000
         C           -0.241556098917    -0.670669308203    -0.001291581573    12.000000000000
         C           -0.245624098917     0.752853691797    -0.001276581573    12.000000000000
         C           -1.614085098917     1.168144691797    -0.001299581573    12.000000000000
         C           -2.381954098917     0.026579691797    -0.001296581573    12.000000000000
         H            1.018776901083     2.520048691797    -0.001286581573     1.007825032230
         H            3.120633901083     1.206007691797    -0.001296581573     1.007825032230
         H            3.078460901083    -1.268785308203    -0.001296581573     1.007825032230
         H            0.924947901083    -2.510523308203    -0.001295581573     1.007825032230
         H           -1.990886098917     2.183093691797    -0.001304581573     1.007825032230
         H           -1.870306898917    -2.039921608203     0.148726418427     1.007825032230
         H           -3.458228098917    -0.090297308203    -0.001287581573     1.007825032230

  Basis Set: AUG-CC-PVTZ
    Blend: AUG-CC-PVTZ
  Basis Set: (AUG-CC-PVTZ AUX)
    Blend: AUG-CC-PVTZ-JKFIT
	 Reference Energy          =    -361.5884493072258579 [Eh]
	 Singles Energy            =      -0.0000000000000000 [Eh]
	 Same-Spin Energy          =      -0.4080341307284283 [Eh]
	 Opposite-Spin Energy      =      -1.2480563592990985 [Eh]
	 Correlation Energy        =      -1.6560904900275268 [Eh]
	 Total Energy              =    -363.2445397972533669 [Eh]

	 ================> DF-SCS-MP2 Energies <==================
	-----------------------------------------------------------
	 SCS Same-Spin Scale       =       0.3333333333333333 [-]
	 SCS Opposite-Spin Scale   =       1.2000000000000000 [-]
	 SCS Same-Spin Energy      =      -0.1360113769094761 [Eh]
	 SCS Opposite-Spin Energy  =      -1.4976676311589181 [Eh]
	 SCS Correlation Energy    =      -1.6336790080683943 [Eh]
	 SCS Total Energy          =    -363.2221283152942419 [Eh]
	-----------------------------------------------------------

  Dipole Moment: [D]
     X:    -1.4732      Y:    -1.5281      Z:     0.2122     Total:     2.1331

*** Psi4 exiting successfully. Buy a developer a beer!
