                               Psi4 1.3.2 release

  ==> Input File <==

--------------------------------------------------------------------------
#psi4
#
memory 32 gb

molecule  {
0 1
  N       -1.5631460    -1.0786450     0.0000020
  C        0.9814170     1.4318910     0.0000000
  C        2.1554110     0.6922200     0.0000020
  C        2.1326810    -0.7203310    -0.0000050
  C        0.9343870    -1.4220840     0.0000000
  C       -0.2481830    -0.6706930     0.0000000
  C       -0.2522510     0.7528300     0.0000150
  C       -1.6207120     1.1681210    -0.0000080
  C       -2.3885810     0.0265560    -0.0000050
  H        1.0121500     2.5200250     0.0000050
  H        3.1140070     1.2059840    -0.0000050
  H        3.0718340    -1.2688090    -0.0000050
  H        0.9183211    -2.5105470     0.0499960
  H       -1.9975130     2.1830700    -0.0000130
  H       -1.8769340    -2.0399470     0.0000180
  H       -3.4648550    -0.0903210     0.0000040
units angstrom
no_reorient  #important for SAPT in psi4, default
symmetry c1  #important for SAPT in psi4, default
}

set PROPERTIES_ORIGIN ["COM"]
properties('MP2/aug-cc-pvtz', properties = ['dipole'])
--------------------------------------------------------------------------

    Molecular point group: c1
  Charge       = 0
  Multiplicity = 1
  Basis Set: AUG-CC-PVTZ
    Blend: AUG-CC-PVTZ
  Basis Set: (AUG-CC-PVTZ AUX)
    Blend: AUG-CC-PVTZ-JKFIT

    Orbital Energies [Eh]
    ---------------------

    Doubly Occupied:

       1A    -15.605734     2A    -11.273189     3A    -11.267147
       4A    -11.233662     5A    -11.231712     6A    -11.230433
       7A    -11.227283     8A    -11.222411     9A    -11.218831
      10A     -1.296282    11A     -1.128462    12A     -1.055993
      13A     -0.996455    14A     -0.974286    15A     -0.842190
      16A     -0.806218    17A     -0.788453    18A     -0.727176
      19A     -0.661782    20A     -0.647369    21A     -0.601754
      22A     -0.595225    23A     -0.584002    24A     -0.574329
      25A     -0.550016    26A     -0.507771    27A     -0.482641
      28A     -0.464843    29A     -0.386040    30A     -0.301522
      31A     -0.283001

  @DF-RHF Final Energy:  -361.58911979420935

   => Energetics <=

    Nuclear Repulsion Energy =            399.9980788504184943
    One-Electron Energy =               -1281.6419746168153324
    Two-Electron Energy =                 520.0547759721873717
    Total Energy =                       -361.5891197942094095
  Basis Set: (AUG-CC-PVTZ AUX)
    Blend: AUG-CC-PVTZ-RI
    Molecular point group: c1

    Geometry (in Angstrom), charge = 0, multiplicity = 1:

       Center              X                  Y                   Z               Mass
    ------------   -----------------  -----------------  -----------------  -----------------
         N           -1.556519098056    -1.078621293566    -0.000428618349    14.003074004430
         C            0.988043901944     1.431914706434    -0.000430618349    12.000000000000
         C            2.162037901944     0.692243706434    -0.000428618349    12.000000000000
         C            2.139307901944    -0.720307293566    -0.000435618349    12.000000000000
         C            0.941013901944    -1.422060293566    -0.000430618349    12.000000000000
         C           -0.241556098056    -0.670669293566    -0.000430618349    12.000000000000
         C           -0.245624098056     0.752853706434    -0.000415618349    12.000000000000
         C           -1.614085098056     1.168144706434    -0.000438618349    12.000000000000
         C           -2.381954098056     0.026579706434    -0.000435618349    12.000000000000
         H            1.018776901944     2.520048706434    -0.000425618349     1.007825032230
         H            3.120633901944     1.206007706434    -0.000435618349     1.007825032230
         H            3.078460901944    -1.268785293566    -0.000435618349     1.007825032230
         H            0.924948001944    -2.510523293566     0.049565381651     1.007825032230
         H           -1.990886098056     2.183093706434    -0.000443618349     1.007825032230
         H           -1.870307098056    -2.039923293566    -0.000412618349     1.007825032230
         H           -3.458228098056    -0.090297293566    -0.000426618349     1.007825032230

  Basis Set: AUG-CC-PVTZ
    Blend: AUG-CC-PVTZ
  Basis Set: (AUG-CC-PVTZ AUX)
    Blend: AUG-CC-PVTZ-JKFIT
	 Reference Energy          =    -361.5891197942093527 [Eh]
	 Singles Energy            =      -0.0000000000000000 [Eh]
	 Same-Spin Energy          =      -0.4079850872635264 [Eh]
	 Opposite-Spin Energy      =      -1.2479005895057802 [Eh]
	 Correlation Energy        =      -1.6558856767693066 [Eh]
	 Total Energy              =    -363.2450054709786400 [Eh]

	 ================> DF-SCS-MP2 Energies <==================
	-----------------------------------------------------------
	 SCS Same-Spin Scale       =       0.3333333333333333 [-]
	 SCS Opposite-Spin Scale   =       1.2000000000000000 [-]
	 SCS Same-Spin Energy      =      -0.1359950290878421 [Eh]
	 SCS Opposite-Spin Energy  =      -1.4974807074069363 [Eh]
	 SCS Correlation Energy    =      -1.6334757364947785 [Eh]
	 SCS Total Energy          =    -363.2225955307041545 [Eh]
	-----------------------------------------------------------

  Dipole Moment: [D]
     X:    -1.4857      Y:    -1.5444      Z:     0.0335     Total:     2.1433

*** Psi4 exiting successfully. Buy a developer a beer!
