                               Psi4 1.3.2 release

  ==> Input File <==

--------------------------------------------------------------------------
#psi4
#
memory 32 gb

molecule  {
0 1
  N       -1.5631460    -1.0786450     0.0000020
  C        0.9814170     1.4318910     0.0000000
  C        2.1554110     0.6922200     0.0000020
  C        2.1326810    -0.7203310    -0.0000050
  C        0.9343870    -1.4220840     0.0000000
  C       -0.2481830    -0.6706930     0.0000000
  C       -0.2522510     0.7528300     0.0000150
  C       -1.6207120     1.1681210    -0.0000080
  C       -2.3885810     0.0265560    -0.0000050
  H        1.0121500     2.5200250     0.0000050
  H        3.1140070     1.2059840    -0.0000050
  H        3.0718340    -1.2688090    -0.0000050
  H        0.9183210    -2.5105470    -0.0000040
  H       -1.9975130     2.1830700    -0.0000130
  H       -1.8769340    -2.0399470     0.0000180
  H       -3.4648543    -0.0903201     0.2000040
units angstrom
no_reorient  #important for SAPT in psi4, default
symmetry c1  #important for SAPT in psi4, default
}

set PROPERTIES_ORIGIN ["COM"]
properties('MP2/aug-cc-pvtz', properties = ['dipole'])
--------------------------------------------------------------------------

    Molecular point group: c1
  Charge       = 0
  Multiplicity = 1
  Basis Set: AUG-CC-PVTZ
    Blend: AUG-CC-PVTZ
  Basis Set: (AUG-CC-PVTZ AUX)
    Blend: AUG-CC-PVTZ-JKFIT

    Orbital Energies [Eh]
    ---------------------

    Doubly Occupied:

       1A    -15.605558     2A    -11.274322     3A    -11.267489
       4A    -11.233749     5A    -11.232041     6A    -11.230786
       7A    -11.227503     8A    -11.222629     9A    -11.219436
      10A     -1.296239    11A     -1.128673    12A     -1.056200
      13A     -0.996552    14A     -0.973963    15A     -0.841443
      16A     -0.805760    17A     -0.788411    18A     -0.726496
      19A     -0.660935    20A     -0.646304    21A     -0.601897
      22A     -0.595546    23A     -0.585045    24A     -0.573123
      25A     -0.547984    26A     -0.507907    27A     -0.482894
      28A     -0.464814    29A     -0.386202    30A     -0.301648
      31A     -0.283232

  @DF-RHF Final Energy:  -361.58689927614108

   => Energetics <=

    Nuclear Repulsion Energy =            399.9336891891227879
    One-Electron Energy =               -1281.5116124527248758
    Two-Electron Energy =                 519.9910239874609488
    Total Energy =                       -361.5868992761411391
  Basis Set: (AUG-CC-PVTZ AUX)
    Blend: AUG-CC-PVTZ-RI
    Molecular point group: c1

    Geometry (in Angstrom), charge = 0, multiplicity = 1:

       Center              X                  Y                   Z               Mass
    ------------   -----------------  -----------------  -----------------  -----------------
         N           -1.556519103222    -1.078621301315    -0.001720063184    14.003074004430
         C            0.988043896778     1.431914698685    -0.001722063184    12.000000000000
         C            2.162037896778     0.692243698685    -0.001720063184    12.000000000000
         C            2.139307896778    -0.720307301315    -0.001727063184    12.000000000000
         C            0.941013896778    -1.422060301315    -0.001722063184    12.000000000000
         C           -0.241556103222    -0.670669301315    -0.001722063184    12.000000000000
         C           -0.245624103222     0.752853698685    -0.001707063184    12.000000000000
         C           -1.614085103222     1.168144698685    -0.001730063184    12.000000000000
         C           -2.381954103222     0.026579698685    -0.001727063184    12.000000000000
         H            1.018776896778     2.520048698685    -0.001717063184     1.007825032230
         H            3.120633896778     1.206007698685    -0.001727063184     1.007825032230
         H            3.078460896778    -1.268785301315    -0.001727063184     1.007825032230
         H            0.924947896778    -2.510523301315    -0.001726063184     1.007825032230
         H           -1.990886103222     2.183093698685    -0.001735063184     1.007825032230
         H           -1.870307103222    -2.039923301315    -0.001704063184     1.007825032230
         H           -3.458227403222    -0.090296401315     0.198281936816     1.007825032230

  Basis Set: AUG-CC-PVTZ
    Blend: AUG-CC-PVTZ
  Basis Set: (AUG-CC-PVTZ AUX)
    Blend: AUG-CC-PVTZ-JKFIT
	 Reference Energy          =    -361.5868992761410823 [Eh]
	 Singles Energy            =      -0.0000000000000000 [Eh]
	 Same-Spin Energy          =      -0.4081359988412291 [Eh]
	 Opposite-Spin Energy      =      -1.2482474558495680 [Eh]
	 Correlation Energy        =      -1.6563834546907970 [Eh]
	 Total Energy              =    -363.2432827308318792 [Eh]

	 ================> DF-SCS-MP2 Energies <==================
	-----------------------------------------------------------
	 SCS Same-Spin Scale       =       0.3333333333333333 [-]
	 SCS Opposite-Spin Scale   =       1.2000000000000000 [-]
	 SCS Same-Spin Energy      =      -0.1360453329470764 [Eh]
	 SCS Opposite-Spin Energy  =      -1.4978969470194816 [Eh]
	 SCS Correlation Energy    =      -1.6339422799665579 [Eh]
	 SCS Total Energy          =    -363.2208415561076436 [Eh]
	-----------------------------------------------------------

  Dipole Moment: [D]
     X:    -1.4363      Y:    -1.5384      Z:     0.1614     Total:     2.1109

*** Psi4 exiting successfully. Buy a developer a beer!
