                               Psi4 1.3.2 release

  ==> Input File <==

--------------------------------------------------------------------------
#psi4
#
memory 32 gb

molecule  {
0 1
  N       -1.5631460    -1.0786450     0.0000020
  C        0.9814170     1.4318910     0.0000000
  C        2.1554110     0.6922200     0.0000020
  C        2.1326810    -0.7203310    -0.0000050
  C        0.9343870    -1.4220840     0.0000000
  C       -0.2481830    -0.6706930     0.0000000
  C       -0.2522510     0.7528300     0.0000150
  C       -1.6207120     1.1681210    -0.0000080
  C       -2.3885810     0.0265560    -0.0000050
  H        1.0121500     2.5200250     0.0000050
  H        3.1140070     1.2059840    -0.0000050
  H        3.0718348    -1.2688097     0.2999950
  H        0.9183210    -2.5105470    -0.0000040
  H       -1.9975130     2.1830700    -0.0000130
  H       -1.8769340    -2.0399470     0.0000180
  H       -3.4648550    -0.0903210     0.0000040
units angstrom
no_reorient  #important for SAPT in psi4, default
symmetry c1  #important for SAPT in psi4, default
}

set PROPERTIES_ORIGIN ["COM"]
properties('MP2/aug-cc-pvtz', properties = ['dipole'])
--------------------------------------------------------------------------

    Molecular point group: c1
  Charge       = 0
  Multiplicity = 1
  Basis Set: AUG-CC-PVTZ
    Blend: AUG-CC-PVTZ
  Basis Set: (AUG-CC-PVTZ AUX)
    Blend: AUG-CC-PVTZ-JKFIT

    Orbital Energies [Eh]
    ---------------------

    Doubly Occupied:

       1A    -15.606177     2A    -11.273901     3A    -11.267455
       4A    -11.234754     5A    -11.233448     6A    -11.231873
       7A    -11.228079     8A    -11.223017     9A    -11.219276
      10A     -1.296764    11A     -1.128620    12A     -1.056248
      13A     -0.996828    14A     -0.973568    15A     -0.842066
      16A     -0.804775    17A     -0.788557    18A     -0.726778
      19A     -0.660018    20A     -0.645500    21A     -0.601783
      22A     -0.595643    23A     -0.584646    24A     -0.574758
      25A     -0.546778    26A     -0.507305    27A     -0.483557
      28A     -0.461274    29A     -0.386034    30A     -0.301803
      31A     -0.283158

  @DF-RHF Final Energy:  -361.58308466365537

   => Energetics <=

    Nuclear Repulsion Energy =            399.8523979392086858
    One-Electron Energy =               -1281.3420822501184375
    Two-Electron Energy =                 519.9065996472543247
    Total Energy =                       -361.5830846636554270
  Basis Set: (AUG-CC-PVTZ AUX)
    Blend: AUG-CC-PVTZ-RI
    Molecular point group: c1

    Geometry (in Angstrom), charge = 0, multiplicity = 1:

       Center              X                  Y                   Z               Mass
    ------------   -----------------  -----------------  -----------------  -----------------
         N           -1.556519104082    -1.078621287539    -0.002581026408    14.003074004430
         C            0.988043895918     1.431914712461    -0.002583026408    12.000000000000
         C            2.162037895918     0.692243712461    -0.002581026408    12.000000000000
         C            2.139307895918    -0.720307287539    -0.002588026408    12.000000000000
         C            0.941013895918    -1.422060287539    -0.002583026408    12.000000000000
         C           -0.241556104082    -0.670669287539    -0.002583026408    12.000000000000
         C           -0.245624104082     0.752853712461    -0.002568026408    12.000000000000
         C           -1.614085104082     1.168144712461    -0.002591026408    12.000000000000
         C           -2.381954104082     0.026579712461    -0.002588026408    12.000000000000
         H            1.018776895918     2.520048712461    -0.002578026408     1.007825032230
         H            3.120633895918     1.206007712461    -0.002588026408     1.007825032230
         H            3.078461695918    -1.268785987539     0.297411973592     1.007825032230
         H            0.924947895918    -2.510523287539    -0.002587026408     1.007825032230
         H           -1.990886104082     2.183093712461    -0.002596026408     1.007825032230
         H           -1.870307104082    -2.039923287539    -0.002565026408     1.007825032230
         H           -3.458228104082    -0.090297287539    -0.002579026408     1.007825032230

  Basis Set: AUG-CC-PVTZ
    Blend: AUG-CC-PVTZ
  Basis Set: (AUG-CC-PVTZ AUX)
    Blend: AUG-CC-PVTZ-JKFIT
	 Reference Energy          =    -361.5830846636553702 [Eh]
	 Singles Energy            =      -0.0000000000000000 [Eh]
	 Same-Spin Energy          =      -0.4083193718594016 [Eh]
	 Opposite-Spin Energy      =      -1.2487029696858523 [Eh]
	 Correlation Energy        =      -1.6570223415452539 [Eh]
	 Total Energy              =    -363.2401070052006276 [Eh]

	 ================> DF-SCS-MP2 Energies <==================
	-----------------------------------------------------------
	 SCS Same-Spin Scale       =       0.3333333333333333 [-]
	 SCS Opposite-Spin Scale   =       1.2000000000000000 [-]
	 SCS Same-Spin Energy      =      -0.1361064572864672 [Eh]
	 SCS Opposite-Spin Energy  =      -1.4984435636230227 [Eh]
	 SCS Correlation Energy    =      -1.6345500209094899 [Eh]
	 SCS Total Energy          =    -363.2176346845648709 [Eh]
	-----------------------------------------------------------

  Dipole Moment: [D]
     X:    -1.5706      Y:    -1.5037      Z:     0.1907     Total:     2.1828

*** Psi4 exiting successfully. Buy a developer a beer!
