                               Psi4 1.3.2 release

  ==> Input File <==

--------------------------------------------------------------------------
#psi4
#
memory 32 gb

molecule  {
0 1
  N       -1.5631460    -1.0786450     0.0000020
  C        0.9814170     1.4318910     0.0000000
  C        2.1554110     0.6922200     0.0000020
  C        2.1326810    -0.7203310    -0.0000050
  C        0.9343870    -1.4220840     0.0000000
  C       -0.2481830    -0.6706930     0.0000000
  C       -0.2522510     0.7528300     0.0000150
  C       -1.6207120     1.1681210    -0.0000080
  C       -2.3885810     0.0265560    -0.0000050
  H        1.0121500     2.5200250     0.0000050
  H        3.1140074     1.2059838     0.1999950
  H        3.0718340    -1.2688090    -0.0000050
  H        0.9183210    -2.5105470    -0.0000040
  H       -1.9975130     2.1830700    -0.0000130
  H       -1.8769340    -2.0399470     0.0000180
  H       -3.4648550    -0.0903210     0.0000040
units angstrom
no_reorient  #important for SAPT in psi4, default
symmetry c1  #important for SAPT in psi4, default
}

set PROPERTIES_ORIGIN ["COM"]
properties('MP2/aug-cc-pvtz', properties = ['dipole'])
--------------------------------------------------------------------------

    Molecular point group: c1
  Charge       = 0
  Multiplicity = 1
  Basis Set: AUG-CC-PVTZ
    Blend: AUG-CC-PVTZ
  Basis Set: (AUG-CC-PVTZ AUX)
    Blend: AUG-CC-PVTZ-JKFIT

    Orbital Energies [Eh]
    ---------------------

    Doubly Occupied:

       1A    -15.605994     2A    -11.273350     3A    -11.267525
       4A    -11.233700     5A    -11.232100     6A    -11.230687
       7A    -11.227457     8A    -11.223944     9A    -11.219041
      10A     -1.296531    11A     -1.128555    12A     -1.056211
      13A     -0.996081    14A     -0.974476    15A     -0.841908
      16A     -0.806146    17A     -0.788071    18A     -0.727448
      19A     -0.661450    20A     -0.645289    21A     -0.601962
      22A     -0.595210    23A     -0.584296    24A     -0.574281
      25A     -0.550133    26A     -0.506971    27A     -0.482934
      28A     -0.463146    29A     -0.386265    30A     -0.301456
      31A     -0.283171

  @DF-RHF Final Energy:  -361.58669912452046

   => Energetics <=

    Nuclear Repulsion Energy =            399.9343190708963220
    One-Electron Energy =               -1281.5104588966551091
    Two-Electron Energy =                 519.9894407012383226
    Total Energy =                       -361.5866991245204645
  Basis Set: (AUG-CC-PVTZ AUX)
    Blend: AUG-CC-PVTZ-RI
    Molecular point group: c1

    Geometry (in Angstrom), charge = 0, multiplicity = 1:

       Center              X                  Y                   Z               Mass
    ------------   -----------------  -----------------  -----------------  -----------------
         N           -1.556519100639    -1.078621291844    -0.001720063184    14.003074004430
         C            0.988043899361     1.431914708156    -0.001722063184    12.000000000000
         C            2.162037899361     0.692243708156    -0.001720063184    12.000000000000
         C            2.139307899361    -0.720307291844    -0.001727063184    12.000000000000
         C            0.941013899361    -1.422060291844    -0.001722063184    12.000000000000
         C           -0.241556100639    -0.670669291844    -0.001722063184    12.000000000000
         C           -0.245624100639     0.752853708156    -0.001707063184    12.000000000000
         C           -1.614085100639     1.168144708156    -0.001730063184    12.000000000000
         C           -2.381954100639     0.026579708156    -0.001727063184    12.000000000000
         H            1.018776899361     2.520048708156    -0.001717063184     1.007825032230
         H            3.120634299361     1.206007508156     0.198272936816     1.007825032230
         H            3.078460899361    -1.268785291844    -0.001727063184     1.007825032230
         H            0.924947899361    -2.510523291844    -0.001726063184     1.007825032230
         H           -1.990886100639     2.183093708156    -0.001735063184     1.007825032230
         H           -1.870307100639    -2.039923291844    -0.001704063184     1.007825032230
         H           -3.458228100639    -0.090297291844    -0.001718063184     1.007825032230

  Basis Set: AUG-CC-PVTZ
    Blend: AUG-CC-PVTZ
  Basis Set: (AUG-CC-PVTZ AUX)
    Blend: AUG-CC-PVTZ-JKFIT
	 Reference Energy          =    -361.5866991245204645 [Eh]
	 Singles Energy            =      -0.0000000000000000 [Eh]
	 Same-Spin Energy          =      -0.4081048255311011 [Eh]
	 Opposite-Spin Energy      =      -1.2481813567189546 [Eh]
	 Correlation Energy        =      -1.6562861822500556 [Eh]
	 Total Energy              =    -363.2429853067704926 [Eh]

	 ================> DF-SCS-MP2 Energies <==================
	-----------------------------------------------------------
	 SCS Same-Spin Scale       =       0.3333333333333333 [-]
	 SCS Opposite-Spin Scale   =       1.2000000000000000 [-]
	 SCS Same-Spin Energy      =      -0.1360349418437004 [Eh]
	 SCS Opposite-Spin Energy  =      -1.4978176280627455 [Eh]
	 SCS Correlation Energy    =      -1.6338525699064459 [Eh]
	 SCS Total Energy          =    -363.2205516944268879 [Eh]
	-----------------------------------------------------------

  Dipole Moment: [D]
     X:    -1.5258      Y:    -1.5639      Z:     0.1283     Total:     2.1887

*** Psi4 exiting successfully. Buy a developer a beer!
