                               Psi4 1.3.2 release

  ==> Input File <==

--------------------------------------------------------------------------
#psi4
#
memory 32 gb

molecule  {
0 1
  N       -1.5631460    -1.0786450     0.0000020
  C        0.9814170     1.4318910     0.0000000
  C        2.1554110     0.6922200     0.0000020
  C        2.1326810    -0.7203310    -0.0000050
  C        0.9343870    -1.4220840     0.0000000
  C       -0.2481830    -0.6706930     0.0000000
  C       -0.2522510     0.7528300     0.0000150
  C       -1.6207120     1.1681210    -0.0000080
  C       -2.3885810     0.0265560    -0.0000050
  H        1.0121500     2.5200250     0.0000050
  H        3.1140070     1.2059840    -0.0000050
  H        3.0718340    -1.2688090    -0.0000050
  H        0.9183210    -2.5105470    -0.0000040
  H       -1.9975130     2.1830700    -0.0000130
  H       -1.8769340    -2.0399470     0.0000180
  H       -3.4648548    -0.0903208     0.0500040
units angstrom
no_reorient  #important for SAPT in psi4, default
symmetry c1  #important for SAPT in psi4, default
}

set PROPERTIES_ORIGIN ["COM"]
properties('MP2/aug-cc-pvtz', properties = ['dipole'])
--------------------------------------------------------------------------

    Molecular point group: c1
  Charge       = 0
  Multiplicity = 1
  Basis Set: AUG-CC-PVTZ
    Blend: AUG-CC-PVTZ
  Basis Set: (AUG-CC-PVTZ AUX)
    Blend: AUG-CC-PVTZ-JKFIT

    Orbital Energies [Eh]
    ---------------------

    Doubly Occupied:

       1A    -15.605717     2A    -11.273257     3A    -11.267153
       4A    -11.233583     5A    -11.231704     6A    -11.230427
       7A    -11.227289     8A    -11.222414     9A    -11.218862
      10A     -1.296273    11A     -1.128466    12A     -1.056012
      13A     -0.996465    14A     -0.974262    15A     -0.842173
      16A     -0.806180    17A     -0.788463    18A     -0.727184
      19A     -0.661755    20A     -0.647351    21A     -0.601766
      22A     -0.595316    23A     -0.584123    24A     -0.574233
      25A     -0.549884    26A     -0.507770    27A     -0.482635
      28A     -0.464906    29A     -0.386067    30A     -0.301523
      31A     -0.283007

  @DF-RHF Final Energy:  -361.58912493314369

   => Energetics <=

    Nuclear Repulsion Energy =            399.9981901934544339
    One-Electron Energy =               -1281.6421861670830822
    Two-Electron Energy =                 520.0548710404849544
    Total Energy =                       -361.5891249331436939
  Basis Set: (AUG-CC-PVTZ AUX)
    Blend: AUG-CC-PVTZ-RI
    Molecular point group: c1

    Geometry (in Angstrom), charge = 0, multiplicity = 1:

       Center              X                  Y                   Z               Mass
    ------------   -----------------  -----------------  -----------------  -----------------
         N           -1.556519098917    -1.078621295288    -0.000428618349    14.003074004430
         C            0.988043901083     1.431914704712    -0.000430618349    12.000000000000
         C            2.162037901083     0.692243704712    -0.000428618349    12.000000000000
         C            2.139307901083    -0.720307295288    -0.000435618349    12.000000000000
         C            0.941013901083    -1.422060295288    -0.000430618349    12.000000000000
         C           -0.241556098917    -0.670669295288    -0.000430618349    12.000000000000
         C           -0.245624098917     0.752853704712    -0.000415618349    12.000000000000
         C           -1.614085098917     1.168144704712    -0.000438618349    12.000000000000
         C           -2.381954098917     0.026579704712    -0.000435618349    12.000000000000
         H            1.018776901083     2.520048704712    -0.000425618349     1.007825032230
         H            3.120633901083     1.206007704712    -0.000435618349     1.007825032230
         H            3.078460901083    -1.268785295288    -0.000435618349     1.007825032230
         H            0.924947901083    -2.510523295288    -0.000434618349     1.007825032230
         H           -1.990886098917     2.183093704712    -0.000443618349     1.007825032230
         H           -1.870307098917    -2.039923295288    -0.000412618349     1.007825032230
         H           -3.458227898917    -0.090297095288     0.049573381651     1.007825032230

  Basis Set: AUG-CC-PVTZ
    Blend: AUG-CC-PVTZ
  Basis Set: (AUG-CC-PVTZ AUX)
    Blend: AUG-CC-PVTZ-JKFIT
	 Reference Energy          =    -361.5891249331436939 [Eh]
	 Singles Energy            =      -0.0000000000000000 [Eh]
	 Same-Spin Energy          =      -0.4079861030273468 [Eh]
	 Opposite-Spin Energy      =      -1.2479056327179627 [Eh]
	 Correlation Energy        =      -1.6558917357453096 [Eh]
	 Total Energy              =    -363.2450166688889794 [Eh]

	 ================> DF-SCS-MP2 Energies <==================
	-----------------------------------------------------------
	 SCS Same-Spin Scale       =       0.3333333333333333 [-]
	 SCS Opposite-Spin Scale   =       1.2000000000000000 [-]
	 SCS Same-Spin Energy      =      -0.1359953676757822 [Eh]
	 SCS Opposite-Spin Energy  =      -1.4974867592615553 [Eh]
	 SCS Correlation Energy    =      -1.6334821269373374 [Eh]
	 SCS Total Energy          =    -363.2226070600810317 [Eh]
	-----------------------------------------------------------

  Dipole Moment: [D]
     X:    -1.4825      Y:    -1.5463      Z:     0.0409     Total:     2.1425

*** Psi4 exiting successfully. Buy a developer a beer!
