                               Psi4 1.3.2 release

  ==> Input File <==

--------------------------------------------------------------------------
#psi4
#
memory 32 gb

molecule  {
0 1
  N       -1.5631460    -1.0786450     0.0000020
  C        0.9814170     1.4318910     0.0000000
  C        2.1554110     0.6922200     0.0000020
  C        2.1326810    -0.7203310    -0.0000050
  C        0.9343870    -1.4220840     0.0000000
  C       -0.2481830    -0.6706930     0.0000000
  C       -0.2522510     0.7528300     0.0000150
  C       -1.6207118     1.1681209    -0.0500080
  C       -2.3885810     0.0265560    -0.0000050
  H        1.0121500     2.5200250     0.0000050
  H        3.1140070     1.2059840    -0.0000050
  H        3.0718340    -1.2688090    -0.0000050
  H        0.9183210    -2.5105470    -0.0000040
  H       -1.9975130     2.1830700    -0.0000130
  H       -1.8769340    -2.0399470     0.0000180
  H       -3.4648550    -0.0903210     0.0000040
units angstrom
no_reorient  #important for SAPT in psi4, default
symmetry c1  #important for SAPT in psi4, default
}

set PROPERTIES_ORIGIN ["COM"]
properties('MP2/aug-cc-pvtz', properties = ['dipole'])
--------------------------------------------------------------------------

    Molecular point group: c1
  Charge       = 0
  Multiplicity = 1
  Basis Set: AUG-CC-PVTZ
    Blend: AUG-CC-PVTZ
  Basis Set: (AUG-CC-PVTZ AUX)
    Blend: AUG-CC-PVTZ-JKFIT

    Orbital Energies [Eh]
    ---------------------

    Doubly Occupied:

       1A    -15.605872     2A    -11.273522     3A    -11.267158
       4A    -11.233601     5A    -11.231659     6A    -11.230414
       7A    -11.227370     8A    -11.222423     9A    -11.219015
      10A     -1.296335    11A     -1.128468    12A     -1.055859
      13A     -0.996477    14A     -0.974240    15A     -0.842251
      16A     -0.806133    17A     -0.788400    18A     -0.727252
      19A     -0.661769    20A     -0.647399    21A     -0.601708
      22A     -0.595318    23A     -0.584351    24A     -0.573562
      25A     -0.549867    26A     -0.507716    27A     -0.482569
      28A     -0.464868    29A     -0.385995    30A     -0.301533
      31A     -0.283021

  @DF-RHF Final Energy:  -361.58859842751741

   => Energetics <=

    Nuclear Repulsion Energy =            399.9744434320287496
    One-Electron Energy =               -1281.5938346951695621
    Two-Electron Energy =                 520.0307928356234015
    Total Energy =                       -361.5885984275174678
  Basis Set: (AUG-CC-PVTZ AUX)
    Blend: AUG-CC-PVTZ-RI
    Molecular point group: c1

    Geometry (in Angstrom), charge = 0, multiplicity = 1:

       Center              X                  Y                   Z               Mass
    ------------   -----------------  -----------------  -----------------  -----------------
         N           -1.556519117697    -1.078621283315     0.005127534065    14.003074004430
         C            0.988043882303     1.431914716685     0.005125534065    12.000000000000
         C            2.162037882303     0.692243716685     0.005127534065    12.000000000000
         C            2.139307882303    -0.720307283315     0.005120534065    12.000000000000
         C            0.941013882303    -1.422060283315     0.005125534065    12.000000000000
         C           -0.241556117697    -0.670669283315     0.005125534065    12.000000000000
         C           -0.245624117697     0.752853716685     0.005140534065    12.000000000000
         C           -1.614084917697     1.168144616685    -0.044882465935    12.000000000000
         C           -2.381954117697     0.026579716685     0.005120534065    12.000000000000
         H            1.018776882303     2.520048716685     0.005130534065     1.007825032230
         H            3.120633882303     1.206007716685     0.005120534065     1.007825032230
         H            3.078460882303    -1.268785283315     0.005120534065     1.007825032230
         H            0.924947882303    -2.510523283315     0.005121534065     1.007825032230
         H           -1.990886117697     2.183093716685     0.005112534065     1.007825032230
         H           -1.870307117697    -2.039923283315     0.005143534065     1.007825032230
         H           -3.458228117697    -0.090297283315     0.005129534065     1.007825032230

  Basis Set: AUG-CC-PVTZ
    Blend: AUG-CC-PVTZ
  Basis Set: (AUG-CC-PVTZ AUX)
    Blend: AUG-CC-PVTZ-JKFIT
	 Reference Energy          =    -361.5885984275174110 [Eh]
	 Singles Energy            =      -0.0000000000000000 [Eh]
	 Same-Spin Energy          =      -0.4080100077939285 [Eh]
	 Opposite-Spin Energy      =      -1.2479508582804342 [Eh]
	 Correlation Energy        =      -1.6559608660743628 [Eh]
	 Total Energy              =    -363.2445592935917489 [Eh]

	 ================> DF-SCS-MP2 Energies <==================
	-----------------------------------------------------------
	 SCS Same-Spin Scale       =       0.3333333333333333 [-]
	 SCS Opposite-Spin Scale   =       1.2000000000000000 [-]
	 SCS Same-Spin Energy      =      -0.1360033359313095 [Eh]
	 SCS Opposite-Spin Energy  =      -1.4975410299365211 [Eh]
	 SCS Correlation Energy    =      -1.6335443658678306 [Eh]
	 SCS Total Energy          =    -363.2221427933852169 [Eh]
	-----------------------------------------------------------

  Dipole Moment: [D]
     X:    -1.4815      Y:    -1.5529      Z:     0.0521     Total:     2.1469

*** Psi4 exiting successfully. Buy a developer a beer!
