                               Psi4 1.3.2 release

  ==> Input File <==

--------------------------------------------------------------------------
#psi4
#
memory 32 gb

molecule  {
0 1
  N       -1.5631460    -1.0786450     0.0000020
  C        0.9814170     1.4318910     0.0000000
  C        2.1554110     0.6922200     0.0000020
  C        2.1326810    -0.7203310    -0.0000050
  C        0.9343870    -1.4220840     0.0000000
  C       -0.2481830    -0.6706930     0.0000000
  C       -0.2522510     0.7528300     0.0000150
  C       -1.6207120     1.1681210    -0.0000080
  C       -2.3885810     0.0265560    -0.0000050
  H        1.0121492     2.5200247    -0.1499950
  H        3.1140070     1.2059840    -0.0000050
  H        3.0718340    -1.2688090    -0.0000050
  H        0.9183210    -2.5105470    -0.0000040
  H       -1.9975130     2.1830700    -0.0000130
  H       -1.8769340    -2.0399470     0.0000180
  H       -3.4648550    -0.0903210     0.0000040
units angstrom
no_reorient  #important for SAPT in psi4, default
symmetry c1  #important for SAPT in psi4, default
}

set PROPERTIES_ORIGIN ["COM"]
properties('MP2/aug-cc-pvtz', properties = ['dipole'])
--------------------------------------------------------------------------

    Molecular point group: c1
  Charge       = 0
  Multiplicity = 1
  Basis Set: AUG-CC-PVTZ
    Blend: AUG-CC-PVTZ
  Basis Set: (AUG-CC-PVTZ AUX)
    Blend: AUG-CC-PVTZ-JKFIT

    Orbital Energies [Eh]
    ---------------------

    Doubly Occupied:

       1A    -15.605799     2A    -11.273273     3A    -11.267196
       4A    -11.233802     5A    -11.232535     6A    -11.230487
       7A    -11.227414     8A    -11.222626     9A    -11.218841
      10A     -1.296347    11A     -1.128501    12A     -1.056027
      13A     -0.996400    14A     -0.974230    15A     -0.841946
      16A     -0.806275    17A     -0.788452    18A     -0.726428
      19A     -0.661579    20A     -0.647502    21A     -0.601742
      22A     -0.594219    23A     -0.583901    24A     -0.574314
      25A     -0.550003    26A     -0.507862    27A     -0.483065
      28A     -0.463787    29A     -0.385936    30A     -0.301576
      31A     -0.283026

  @DF-RHF Final Energy:  -361.58785092559594

   => Energetics <=

    Nuclear Repulsion Energy =            399.9627678850729353
    One-Electron Energy =               -1281.5710594934496385
    Two-Electron Energy =                 520.0204406827807588
    Total Energy =                       -361.5878509255959443
  Basis Set: (AUG-CC-PVTZ AUX)
    Blend: AUG-CC-PVTZ-RI
    Molecular point group: c1

    Geometry (in Angstrom), charge = 0, multiplicity = 1:

       Center              X                  Y                   Z               Mass
    ------------   -----------------  -----------------  -----------------  -----------------
         N           -1.556519090307    -1.078621290983     0.001293308098    14.003074004430
         C            0.988043909693     1.431914709017     0.001291308098    12.000000000000
         C            2.162037909693     0.692243709017     0.001293308098    12.000000000000
         C            2.139307909693    -0.720307290983     0.001286308098    12.000000000000
         C            0.941013909693    -1.422060290983     0.001291308098    12.000000000000
         C           -0.241556090307    -0.670669290983     0.001291308098    12.000000000000
         C           -0.245624090307     0.752853709017     0.001306308098    12.000000000000
         C           -1.614085090307     1.168144709017     0.001283308098    12.000000000000
         C           -2.381954090307     0.026579709017     0.001286308098    12.000000000000
         H            1.018776109693     2.520048409017    -0.148703691902     1.007825032230
         H            3.120633909693     1.206007709017     0.001286308098     1.007825032230
         H            3.078460909693    -1.268785290983     0.001286308098     1.007825032230
         H            0.924947909693    -2.510523290983     0.001287308098     1.007825032230
         H           -1.990886090307     2.183093709017     0.001278308098     1.007825032230
         H           -1.870307090307    -2.039923290983     0.001309308098     1.007825032230
         H           -3.458228090307    -0.090297290983     0.001295308098     1.007825032230

  Basis Set: AUG-CC-PVTZ
    Blend: AUG-CC-PVTZ
  Basis Set: (AUG-CC-PVTZ AUX)
    Blend: AUG-CC-PVTZ-JKFIT
	 Reference Energy          =    -361.5878509255959443 [Eh]
	 Singles Energy            =      -0.0000000000000000 [Eh]
	 Same-Spin Energy          =      -0.4080708437098963 [Eh]
	 Opposite-Spin Energy      =      -1.2480551342139916 [Eh]
	 Correlation Energy        =      -1.6561259779238879 [Eh]
	 Total Energy              =    -363.2439769035198083 [Eh]

	 ================> DF-SCS-MP2 Energies <==================
	-----------------------------------------------------------
	 SCS Same-Spin Scale       =       0.3333333333333333 [-]
	 SCS Opposite-Spin Scale   =       1.2000000000000000 [-]
	 SCS Same-Spin Energy      =      -0.1360236145699654 [Eh]
	 SCS Opposite-Spin Energy  =      -1.4976661610567898 [Eh]
	 SCS Correlation Energy    =      -1.6336897756267552 [Eh]
	 SCS Total Energy          =    -363.2215407012226933 [Eh]
	-----------------------------------------------------------

  Dipole Moment: [D]
     X:    -1.4868      Y:    -1.5673      Z:    -0.0938     Total:     2.1623

*** Psi4 exiting successfully. Buy a developer a beer!
