                               Psi4 1.3.2 release

  ==> Input File <==

--------------------------------------------------------------------------
#psi4
#
memory 32 gb

molecule  {
0 1
  N       -1.5631460    -1.0786450     0.0000020
  C        0.9814170     1.4318910     0.0000000
  C        2.1554110     0.6922200     0.0000020
  C        2.1326810    -0.7203310    -0.0000050
  C        0.9343870    -1.4220840     0.0000000
  C       -0.2481830    -0.6706930     0.0000000
  C       -0.2522510     0.7528300     0.0000150
  C       -1.6207110     1.1681204    -0.3000080
  C       -2.3885810     0.0265560    -0.0000050
  H        1.0121500     2.5200250     0.0000050
  H        3.1140070     1.2059840    -0.0000050
  H        3.0718340    -1.2688090    -0.0000050
  H        0.9183210    -2.5105470    -0.0000040
  H       -1.9975130     2.1830700    -0.0000130
  H       -1.8769340    -2.0399470     0.0000180
  H       -3.4648550    -0.0903210     0.0000040
units angstrom
no_reorient  #important for SAPT in psi4, default
symmetry c1  #important for SAPT in psi4, default
}

set PROPERTIES_ORIGIN ["COM"]
properties('MP2/aug-cc-pvtz', properties = ['dipole'])
--------------------------------------------------------------------------

    Molecular point group: c1
  Charge       = 0
  Multiplicity = 1
  Basis Set: AUG-CC-PVTZ
    Blend: AUG-CC-PVTZ
  Basis Set: (AUG-CC-PVTZ AUX)
    Blend: AUG-CC-PVTZ-JKFIT

    Orbital Energies [Eh]
    ---------------------

    Doubly Occupied:

       1A    -15.611009     2A    -11.284836     3A    -11.268302
       4A    -11.234712     5A    -11.231326     6A    -11.230919
       7A    -11.230159     8A    -11.225519     9A    -11.223324
      10A     -1.298542    11A     -1.129117    12A     -1.051114
      13A     -0.997161    14A     -0.972766    15A     -0.843313
      16A     -0.803976    17A     -0.786463    18A     -0.728240
      19A     -0.661285    20A     -0.646391    21A     -0.600615
      22A     -0.595876    23A     -0.587882    24A     -0.555710
      25A     -0.544020    26A     -0.506075    27A     -0.480489
      28A     -0.463183    29A     -0.384087    30A     -0.302384
      31A     -0.284194

  @DF-RHF Final Energy:  -361.56473017567964

   => Energetics <=

    Nuclear Repulsion Energy =            399.0189095818231522
    One-Electron Energy =               -1279.6413090374119292
    Two-Electron Energy =                 519.0576692799090779
    Total Energy =                       -361.5647301756796423
  Basis Set: (AUG-CC-PVTZ AUX)
    Blend: AUG-CC-PVTZ-RI
    Molecular point group: c1

    Geometry (in Angstrom), charge = 0, multiplicity = 1:

       Center              X                  Y                   Z               Mass
    ------------   -----------------  -----------------  -----------------  -----------------
         N           -1.556519199708    -1.078621232058     0.030755888078    14.003074004430
         C            0.988043800292     1.431914767942     0.030753888078    12.000000000000
         C            2.162037800292     0.692243767942     0.030755888078    12.000000000000
         C            2.139307800292    -0.720307232058     0.030748888078    12.000000000000
         C            0.941013800292    -1.422060232058     0.030753888078    12.000000000000
         C           -0.241556199708    -0.670669232058     0.030753888078    12.000000000000
         C           -0.245624199708     0.752853767942     0.030768888078    12.000000000000
         C           -1.614084199708     1.168144167942    -0.269254111922    12.000000000000
         C           -2.381954199708     0.026579767942     0.030748888078    12.000000000000
         H            1.018776800292     2.520048767942     0.030758888078     1.007825032230
         H            3.120633800292     1.206007767942     0.030748888078     1.007825032230
         H            3.078460800292    -1.268785232058     0.030748888078     1.007825032230
         H            0.924947800292    -2.510523232058     0.030749888078     1.007825032230
         H           -1.990886199708     2.183093767942     0.030740888078     1.007825032230
         H           -1.870307199708    -2.039923232058     0.030771888078     1.007825032230
         H           -3.458228199708    -0.090297232058     0.030757888078     1.007825032230

  Basis Set: AUG-CC-PVTZ
    Blend: AUG-CC-PVTZ
  Basis Set: (AUG-CC-PVTZ AUX)
    Blend: AUG-CC-PVTZ-JKFIT
	 Reference Energy          =    -361.5647301756796423 [Eh]
	 Singles Energy            =      -0.0000000000000000 [Eh]
	 Same-Spin Energy          =      -0.4091228576915646 [Eh]
	 Opposite-Spin Energy      =      -1.2511769047500314 [Eh]
	 Correlation Energy        =      -1.6602997624415960 [Eh]
	 Total Energy              =    -363.2250299381212244 [Eh]

	 ================> DF-SCS-MP2 Energies <==================
	-----------------------------------------------------------
	 SCS Same-Spin Scale       =       0.3333333333333333 [-]
	 SCS Opposite-Spin Scale   =       1.2000000000000000 [-]
	 SCS Same-Spin Energy      =      -0.1363742858971882 [Eh]
	 SCS Opposite-Spin Energy  =      -1.5014122857000376 [Eh]
	 SCS Correlation Energy    =      -1.6377865715972257 [Eh]
	 SCS Total Energy          =    -363.2025167472768885 [Eh]
	-----------------------------------------------------------

  Dipole Moment: [D]
     X:    -1.3434      Y:    -1.7542      Z:     0.3228     Total:     2.2330

*** Psi4 exiting successfully. Buy a developer a beer!
