                               Psi4 1.3.2 release

  ==> Input File <==

--------------------------------------------------------------------------
#psi4
#
memory 32 gb

molecule  {
0 1
  N       -1.5631460    -1.0786450     0.0000020
  C        0.9814170     1.4318910     0.0000000
  C        2.1554110     0.6922200     0.0000020
  C        2.1326810    -0.7203310    -0.0000050
  C        0.9343870    -1.4220840     0.0000000
  C       -0.2481830    -0.6706930     0.0000000
  C       -0.2522510     0.7528300     0.0000150
  C       -1.6207117     1.1681208    -0.1000080
  C       -2.3885810     0.0265560    -0.0000050
  H        1.0121500     2.5200250     0.0000050
  H        3.1140070     1.2059840    -0.0000050
  H        3.0718340    -1.2688090    -0.0000050
  H        0.9183210    -2.5105470    -0.0000040
  H       -1.9975130     2.1830700    -0.0000130
  H       -1.8769340    -2.0399470     0.0000180
  H       -3.4648550    -0.0903210     0.0000040
units angstrom
no_reorient  #important for SAPT in psi4, default
symmetry c1  #important for SAPT in psi4, default
}

set PROPERTIES_ORIGIN ["COM"]
properties('MP2/aug-cc-pvtz', properties = ['dipole'])
--------------------------------------------------------------------------

    Molecular point group: c1
  Charge       = 0
  Multiplicity = 1
  Basis Set: AUG-CC-PVTZ
    Blend: AUG-CC-PVTZ
  Basis Set: (AUG-CC-PVTZ AUX)
    Blend: AUG-CC-PVTZ-JKFIT

    Orbital Energies [Eh]
    ---------------------

    Doubly Occupied:

       1A    -15.606309     2A    -11.274529     3A    -11.267246
       4A    -11.233690     5A    -11.231595     6A    -11.230449
       7A    -11.227654     8A    -11.222496     9A    -11.219591
      10A     -1.296515    11A     -1.128518    12A     -1.055443
      13A     -0.996531    14A     -0.974112    15A     -0.842330
      16A     -0.805912    17A     -0.788207    18A     -0.727315
      19A     -0.661641    20A     -0.647342    21A     -0.601572
      22A     -0.595371    23A     -0.585057    24A     -0.571490
      25A     -0.549452    26A     -0.507583    27A     -0.482421
      28A     -0.464734    29A     -0.385810    30A     -0.301589
      31A     -0.283112

  @DF-RHF Final Energy:  -361.58659560030736

   => Energetics <=

    Nuclear Repulsion Energy =            399.8903476999109898
    One-Electron Energy =               -1281.4226534814977185
    Two-Electron Energy =                 519.9457101812794235
    Total Energy =                       -361.5865956003073052
  Basis Set: (AUG-CC-PVTZ AUX)
    Blend: AUG-CC-PVTZ-RI
    Molecular point group: c1

    Geometry (in Angstrom), charge = 0, multiplicity = 1:

       Center              X                  Y                   Z               Mass
    ------------   -----------------  -----------------  -----------------  -----------------
         N           -1.556519127949    -1.078621273064     0.010253204868    14.003074004430
         C            0.988043872051     1.431914726936     0.010251204868    12.000000000000
         C            2.162037872051     0.692243726936     0.010253204868    12.000000000000
         C            2.139307872051    -0.720307273064     0.010246204868    12.000000000000
         C            0.941013872051    -1.422060273064     0.010251204868    12.000000000000
         C           -0.241556127949    -0.670669273064     0.010251204868    12.000000000000
         C           -0.245624127949     0.752853726936     0.010266204868    12.000000000000
         C           -1.614084827949     1.168144526936    -0.089756795132    12.000000000000
         C           -2.381954127949     0.026579726936     0.010246204868    12.000000000000
         H            1.018776872051     2.520048726936     0.010256204868     1.007825032230
         H            3.120633872051     1.206007726936     0.010246204868     1.007825032230
         H            3.078460872051    -1.268785273064     0.010246204868     1.007825032230
         H            0.924947872051    -2.510523273064     0.010247204868     1.007825032230
         H           -1.990886127949     2.183093726936     0.010238204868     1.007825032230
         H           -1.870307127949    -2.039923273064     0.010269204868     1.007825032230
         H           -3.458228127949    -0.090297273064     0.010255204868     1.007825032230

  Basis Set: AUG-CC-PVTZ
    Blend: AUG-CC-PVTZ
  Basis Set: (AUG-CC-PVTZ AUX)
    Blend: AUG-CC-PVTZ-JKFIT
	 Reference Energy          =    -361.5865956003073620 [Eh]
	 Singles Energy            =      -0.0000000000000000 [Eh]
	 Same-Spin Energy          =      -0.4081115852512088 [Eh]
	 Opposite-Spin Energy      =      -1.2481859281842853 [Eh]
	 Correlation Energy        =      -1.6562975134354940 [Eh]
	 Total Energy              =    -363.2428931137428663 [Eh]

	 ================> DF-SCS-MP2 Energies <==================
	-----------------------------------------------------------
	 SCS Same-Spin Scale       =       0.3333333333333333 [-]
	 SCS Opposite-Spin Scale   =       1.2000000000000000 [-]
	 SCS Same-Spin Energy      =      -0.1360371950837363 [Eh]
	 SCS Opposite-Spin Energy  =      -1.4978231138211424 [Eh]
	 SCS Correlation Energy    =      -1.6338603089048787 [Eh]
	 SCS Total Energy          =    -363.2204559092122622 [Eh]
	-----------------------------------------------------------

  Dipole Moment: [D]
     X:    -1.4694      Y:    -1.5709      Z:     0.1047     Total:     2.1535

*** Psi4 exiting successfully. Buy a developer a beer!
