                               Psi4 1.3.2 release

  ==> Input File <==

--------------------------------------------------------------------------
#psi4
#
memory 32 gb

molecule  {
0 1
  N       -1.5631460    -1.0786450     0.0000020
  C        0.9814170     1.4318910     0.0000000
  C        2.1554110     0.6922200     0.0000020
  C        2.1326810    -0.7203310    -0.0000050
  C        0.9343870    -1.4220840     0.0000000
  C       -0.2481830    -0.6706930     0.0000000
  C       -0.2522510     0.7528300     0.0000150
  C       -1.6207120     1.1681210    -0.0000080
  C       -2.3885810     0.0265560    -0.0000050
  H        1.0121500     2.5200250     0.0000050
  H        3.1140070     1.2059840    -0.0000050
  H        3.0718340    -1.2688090    -0.0000050
  H        0.9183210    -2.5105470    -0.0000040
  H       -1.9975113     2.1830691    -0.1500130
  H       -1.8769340    -2.0399470     0.0000180
  H       -3.4648550    -0.0903210     0.0000040
units angstrom
no_reorient  #important for SAPT in psi4, default
symmetry c1  #important for SAPT in psi4, default
}

set PROPERTIES_ORIGIN ["COM"]
properties('MP2/aug-cc-pvtz', properties = ['dipole'])
--------------------------------------------------------------------------

    Molecular point group: c1
  Charge       = 0
  Multiplicity = 1
  Basis Set: AUG-CC-PVTZ
    Blend: AUG-CC-PVTZ
  Basis Set: (AUG-CC-PVTZ AUX)
    Blend: AUG-CC-PVTZ-JKFIT

    Orbital Energies [Eh]
    ---------------------

    Doubly Occupied:

       1A    -15.606011     2A    -11.273573     3A    -11.267224
       4A    -11.233647     5A    -11.231690     6A    -11.230462
       7A    -11.227313     8A    -11.222461     9A    -11.219608
      10A     -1.296503    11A     -1.128520    12A     -1.055924
      13A     -0.996542    14A     -0.974285    15A     -0.842316
      16A     -0.806128    17A     -0.787537    18A     -0.727191
      19A     -0.661803    20A     -0.647362    21A     -0.601488
      22A     -0.595291    23A     -0.584832    24A     -0.572210
      25A     -0.549650    26A     -0.507819    27A     -0.482494
      28A     -0.464990    29A     -0.385849    30A     -0.301600
      31A     -0.283107

  @DF-RHF Final Energy:  -361.58802828914020

   => Energetics <=

    Nuclear Repulsion Energy =            399.9632553754227615
    One-Electron Energy =               -1281.5717064817442861
    Two-Electron Energy =                 520.0204228171813838
    Total Energy =                       -361.5880282891401976
  Basis Set: (AUG-CC-PVTZ AUX)
    Blend: AUG-CC-PVTZ-RI
    Molecular point group: c1

    Geometry (in Angstrom), charge = 0, multiplicity = 1:

       Center              X                  Y                   Z               Mass
    ------------   -----------------  -----------------  -----------------  -----------------
         N           -1.556519111831    -1.078621285818     0.001293308098    14.003074004430
         C            0.988043888169     1.431914714182     0.001291308098    12.000000000000
         C            2.162037888169     0.692243714182     0.001293308098    12.000000000000
         C            2.139307888169    -0.720307285818     0.001286308098    12.000000000000
         C            0.941013888169    -1.422060285818     0.001291308098    12.000000000000
         C           -0.241556111831    -0.670669285818     0.001291308098    12.000000000000
         C           -0.245624111831     0.752853714182     0.001306308098    12.000000000000
         C           -1.614085111831     1.168144714182     0.001283308098    12.000000000000
         C           -2.381954111831     0.026579714182     0.001286308098    12.000000000000
         H            1.018776888169     2.520048714182     0.001296308098     1.007825032230
         H            3.120633888169     1.206007714182     0.001286308098     1.007825032230
         H            3.078460888169    -1.268785285818     0.001286308098     1.007825032230
         H            0.924947888169    -2.510523285818     0.001287308098     1.007825032230
         H           -1.990884411831     2.183092814182    -0.148721691902     1.007825032230
         H           -1.870307111831    -2.039923285818     0.001309308098     1.007825032230
         H           -3.458228111831    -0.090297285818     0.001295308098     1.007825032230

  Basis Set: AUG-CC-PVTZ
    Blend: AUG-CC-PVTZ
  Basis Set: (AUG-CC-PVTZ AUX)
    Blend: AUG-CC-PVTZ-JKFIT
	 Reference Energy          =    -361.5880282891401976 [Eh]
	 Singles Energy            =      -0.0000000000000000 [Eh]
	 Same-Spin Energy          =      -0.4080435814970755 [Eh]
	 Opposite-Spin Energy      =      -1.2480316449680537 [Eh]
	 Correlation Energy        =      -1.6560752264651293 [Eh]
	 Total Energy              =    -363.2441035156053317 [Eh]

	 ================> DF-SCS-MP2 Energies <==================
	-----------------------------------------------------------
	 SCS Same-Spin Scale       =       0.3333333333333333 [-]
	 SCS Opposite-Spin Scale   =       1.2000000000000000 [-]
	 SCS Same-Spin Energy      =      -0.1360145271656918 [Eh]
	 SCS Opposite-Spin Energy  =      -1.4976379739616645 [Eh]
	 SCS Correlation Energy    =      -1.6336525011273564 [Eh]
	 SCS Total Energy          =    -363.2216807902675555 [Eh]
	-----------------------------------------------------------

  Dipole Moment: [D]
     X:    -1.4744      Y:    -1.5663      Z:    -0.1209     Total:     2.1545

*** Psi4 exiting successfully. Buy a developer a beer!
