                               Psi4 1.3.2 release

  ==> Input File <==

--------------------------------------------------------------------------
#psi4
#
memory 32 gb

molecule  {
0 1
  N       -1.5631460    -1.0786450     0.0000020
  C        0.9814170     1.4318910     0.0000000
  C        2.1554110     0.6922200     0.0000020
  C        2.1326810    -0.7203310    -0.0000050
  C        0.9343870    -1.4220840     0.0000000
  C       -0.2481830    -0.6706930     0.0000000
  C       -0.2522510     0.7528300     0.0000150
  C       -1.6207120     1.1681210    -0.0000080
  C       -2.3885810     0.0265560    -0.0000050
  H        1.0121500     2.5200250     0.0000050
  H        3.1140070     1.2059840    -0.0000050
  H        3.0718340    -1.2688090    -0.0000050
  H        0.9183212    -2.5105471     0.0999960
  H       -1.9975130     2.1830700    -0.0000130
  H       -1.8769340    -2.0399470     0.0000180
  H       -3.4648550    -0.0903210     0.0000040
units angstrom
no_reorient  #important for SAPT in psi4, default
symmetry c1  #important for SAPT in psi4, default
}

set PROPERTIES_ORIGIN ["COM"]
properties('MP2/aug-cc-pvtz', properties = ['dipole'])
--------------------------------------------------------------------------

    Molecular point group: c1
  Charge       = 0
  Multiplicity = 1
  Basis Set: AUG-CC-PVTZ
    Blend: AUG-CC-PVTZ
  Basis Set: (AUG-CC-PVTZ AUX)
    Blend: AUG-CC-PVTZ-JKFIT

    Orbital Energies [Eh]
    ---------------------

    Doubly Occupied:

       1A    -15.605752     2A    -11.273198     3A    -11.267197
       4A    -11.233934     5A    -11.231805     6A    -11.230522
       7A    -11.227310     8A    -11.222446     9A    -11.218854
      10A     -1.296299    11A     -1.128492    12A     -1.055974
      13A     -0.996441    14A     -0.974294    15A     -0.842085
      16A     -0.806245    17A     -0.788416    18A     -0.727006
      19A     -0.661681    20A     -0.647228    21A     -0.601747
      22A     -0.595000    23A     -0.583856    24A     -0.574344
      25A     -0.550049    26A     -0.507803    27A     -0.482709
      28A     -0.464640    29A     -0.385986    30A     -0.301544
      31A     -0.283029

  @DF-RHF Final Energy:  -361.58868093935888

   => Energetics <=

    Nuclear Repulsion Energy =            399.9846532665175118
    One-Electron Energy =               -1281.6149002772697258
    Two-Electron Energy =                 520.0415660713933903
    Total Energy =                       -361.5886809393588237
  Basis Set: (AUG-CC-PVTZ AUX)
    Blend: AUG-CC-PVTZ-RI
    Molecular point group: c1

    Geometry (in Angstrom), charge = 0, multiplicity = 1:

       Center              X                  Y                   Z               Mass
    ------------   -----------------  -----------------  -----------------  -----------------
         N           -1.556519098917    -1.078621292705    -0.000859099961    14.003074004430
         C            0.988043901083     1.431914707295    -0.000861099961    12.000000000000
         C            2.162037901083     0.692243707295    -0.000859099961    12.000000000000
         C            2.139307901083    -0.720307292705    -0.000866099961    12.000000000000
         C            0.941013901083    -1.422060292705    -0.000861099961    12.000000000000
         C           -0.241556098917    -0.670669292705    -0.000861099961    12.000000000000
         C           -0.245624098917     0.752853707295    -0.000846099961    12.000000000000
         C           -1.614085098917     1.168144707295    -0.000869099961    12.000000000000
         C           -2.381954098917     0.026579707295    -0.000866099961    12.000000000000
         H            1.018776901083     2.520048707295    -0.000856099961     1.007825032230
         H            3.120633901083     1.206007707295    -0.000866099961     1.007825032230
         H            3.078460901083    -1.268785292705    -0.000866099961     1.007825032230
         H            0.924948101083    -2.510523392705     0.099134900039     1.007825032230
         H           -1.990886098917     2.183093707295    -0.000874099961     1.007825032230
         H           -1.870307098917    -2.039923292705    -0.000843099961     1.007825032230
         H           -3.458228098917    -0.090297292705    -0.000857099961     1.007825032230

  Basis Set: AUG-CC-PVTZ
    Blend: AUG-CC-PVTZ
  Basis Set: (AUG-CC-PVTZ AUX)
    Blend: AUG-CC-PVTZ-JKFIT
	 Reference Energy          =    -361.5886809393588806 [Eh]
	 Singles Energy            =      -0.0000000000000000 [Eh]
	 Same-Spin Energy          =      -0.4080121091602998 [Eh]
	 Opposite-Spin Energy      =      -1.2479524815820922 [Eh]
	 Correlation Energy        =      -1.6559645907423919 [Eh]
	 Total Energy              =    -363.2446455301012520 [Eh]

	 ================> DF-SCS-MP2 Energies <==================
	-----------------------------------------------------------
	 SCS Same-Spin Scale       =       0.3333333333333333 [-]
	 SCS Opposite-Spin Scale   =       1.2000000000000000 [-]
	 SCS Same-Spin Energy      =      -0.1360040363867666 [Eh]
	 SCS Opposite-Spin Energy  =      -1.4975429778985105 [Eh]
	 SCS Correlation Energy    =      -1.6335470142852770 [Eh]
	 SCS Total Energy          =    -363.2222279536441647 [Eh]
	-----------------------------------------------------------

  Dipole Moment: [D]
     X:    -1.4859      Y:    -1.5372      Z:     0.0669     Total:     2.1390

*** Psi4 exiting successfully. Buy a developer a beer!
