                               Psi4 1.3.2 release

  ==> Input File <==

--------------------------------------------------------------------------
#psi4
#
memory 32 gb

molecule  {
0 1
  N       -1.5631460    -1.0786450     0.0000020
  C        0.9814170     1.4318910     0.0000000
  C        2.1554110     0.6922200     0.0000020
  C        2.1326810    -0.7203310    -0.0000050
  C        0.9343870    -1.4220840     0.0000000
  C       -0.2481830    -0.6706930     0.0000000
  C       -0.2522510     0.7528290     0.1500150
  C       -1.6207120     1.1681210    -0.0000080
  C       -2.3885810     0.0265560    -0.0000050
  H        1.0121500     2.5200250     0.0000050
  H        3.1140070     1.2059840    -0.0000050
  H        3.0718340    -1.2688090    -0.0000050
  H        0.9183210    -2.5105470    -0.0000040
  H       -1.9975130     2.1830700    -0.0000130
  H       -1.8769340    -2.0399470     0.0000180
  H       -3.4648550    -0.0903210     0.0000040
units angstrom
no_reorient  #important for SAPT in psi4, default
symmetry c1  #important for SAPT in psi4, default
}

set PROPERTIES_ORIGIN ["COM"]
properties('MP2/aug-cc-pvtz', properties = ['dipole'])
--------------------------------------------------------------------------

    Molecular point group: c1
  Charge       = 0
  Multiplicity = 1
  Basis Set: AUG-CC-PVTZ
    Blend: AUG-CC-PVTZ
  Basis Set: (AUG-CC-PVTZ AUX)
    Blend: AUG-CC-PVTZ-JKFIT

    Orbital Energies [Eh]
    ---------------------

    Doubly Occupied:

       1A    -15.605946     2A    -11.272824     3A    -11.268919
       4A    -11.233504     5A    -11.233082     6A    -11.231213
       7A    -11.229103     8A    -11.222161     9A    -11.219599
      10A     -1.295934    11A     -1.127820    12A     -1.054941
      13A     -0.996093    14A     -0.973746    15A     -0.841240
      16A     -0.805459    17A     -0.787804    18A     -0.727142
      19A     -0.661304    20A     -0.647616    21A     -0.601901
      22A     -0.594854    23A     -0.582790    24A     -0.573135
      25A     -0.548979    26A     -0.507268    27A     -0.481624
      28A     -0.463762    29A     -0.384869    30A     -0.301417
      31A     -0.282711

  @DF-RHF Final Energy:  -361.58180619141632

   => Energetics <=

    Nuclear Repulsion Energy =            399.6896213098730755
    One-Electron Energy =               -1281.0253320907659145
    Two-Electron Energy =                 519.7539045894765195
    Total Energy =                       -361.5818061914163764
  Basis Set: (AUG-CC-PVTZ AUX)
    Blend: AUG-CC-PVTZ-RI
    Molecular point group: c1

    Geometry (in Angstrom), charge = 0, multiplicity = 1:

       Center              X                  Y                   Z               Mass
    ------------   -----------------  -----------------  -----------------  -----------------
         N           -1.556519097195    -1.078621191053    -0.015375149145    14.003074004430
         C            0.988043902805     1.431914808947    -0.015377149145    12.000000000000
         C            2.162037902805     0.692243808947    -0.015375149145    12.000000000000
         C            2.139307902805    -0.720307191053    -0.015382149145    12.000000000000
         C            0.941013902805    -1.422060191053    -0.015377149145    12.000000000000
         C           -0.241556097195    -0.670669191053    -0.015377149145    12.000000000000
         C           -0.245624097195     0.752852808947     0.134637850855    12.000000000000
         C           -1.614085097195     1.168144808947    -0.015385149145    12.000000000000
         C           -2.381954097195     0.026579808947    -0.015382149145    12.000000000000
         H            1.018776902805     2.520048808947    -0.015372149145     1.007825032230
         H            3.120633902805     1.206007808947    -0.015382149145     1.007825032230
         H            3.078460902805    -1.268785191053    -0.015382149145     1.007825032230
         H            0.924947902805    -2.510523191053    -0.015381149145     1.007825032230
         H           -1.990886097195     2.183093808947    -0.015390149145     1.007825032230
         H           -1.870307097195    -2.039923191053    -0.015359149145     1.007825032230
         H           -3.458228097195    -0.090297191053    -0.015373149145     1.007825032230

  Basis Set: AUG-CC-PVTZ
    Blend: AUG-CC-PVTZ
  Basis Set: (AUG-CC-PVTZ AUX)
    Blend: AUG-CC-PVTZ-JKFIT
	 Reference Energy          =    -361.5818061914163195 [Eh]
	 Singles Energy            =      -0.0000000000000000 [Eh]
	 Same-Spin Energy          =      -0.4082501764593370 [Eh]
	 Opposite-Spin Energy      =      -1.2484823589980754 [Eh]
	 Correlation Energy        =      -1.6567325354574123 [Eh]
	 Total Energy              =    -363.2385387268737418 [Eh]

	 ================> DF-SCS-MP2 Energies <==================
	-----------------------------------------------------------
	 SCS Same-Spin Scale       =       0.3333333333333333 [-]
	 SCS Opposite-Spin Scale   =       1.2000000000000000 [-]
	 SCS Same-Spin Energy      =      -0.1360833921531123 [Eh]
	 SCS Opposite-Spin Energy  =      -1.4981788307976904 [Eh]
	 SCS Correlation Energy    =      -1.6342622229508028 [Eh]
	 SCS Total Energy          =    -363.2160684143671006 [Eh]
	-----------------------------------------------------------

  Dipole Moment: [D]
     X:    -1.4781      Y:    -1.5668      Z:    -0.0281     Total:     2.1541

*** Psi4 exiting successfully. Buy a developer a beer!
