                               Psi4 1.3.2 release

  ==> Input File <==

--------------------------------------------------------------------------
#psi4
#
memory 32 gb

molecule  {
0 1
  N       -1.5631460    -1.0786450     0.0000020
  C        0.9814170     1.4318910     0.0000000
  C        2.1554110     0.6922200     0.0000020
  C        2.1326810    -0.7203310    -0.0000050
  C        0.9343870    -1.4220840     0.0000000
  C       -0.2481830    -0.6706930     0.0000000
  C       -0.2522510     0.7528300     0.0000150
  C       -1.6207120     1.1681210    -0.0000080
  C       -2.3885810     0.0265560    -0.0000050
  H        1.0121500     2.5200250     0.0000050
  H        3.1140070     1.2059840    -0.0000050
  H        3.0718344    -1.2688094     0.1499950
  H        0.9183210    -2.5105470    -0.0000040
  H       -1.9975130     2.1830700    -0.0000130
  H       -1.8769340    -2.0399470     0.0000180
  H       -3.4648550    -0.0903210     0.0000040
units angstrom
no_reorient  #important for SAPT in psi4, default
symmetry c1  #important for SAPT in psi4, default
}

set PROPERTIES_ORIGIN ["COM"]
properties('MP2/aug-cc-pvtz', properties = ['dipole'])
--------------------------------------------------------------------------

    Molecular point group: c1
  Charge       = 0
  Multiplicity = 1
  Basis Set: AUG-CC-PVTZ
    Blend: AUG-CC-PVTZ
  Basis Set: (AUG-CC-PVTZ AUX)
    Blend: AUG-CC-PVTZ-JKFIT

    Orbital Energies [Eh]
    ---------------------

    Doubly Occupied:

       1A    -15.605837     2A    -11.273364     3A    -11.267205
       4A    -11.233809     5A    -11.231724     6A    -11.231227
       7A    -11.227474     8A    -11.222548     9A    -11.218935
      10A     -1.296395    11A     -1.128485    12A     -1.056054
      13A     -0.996545    14A     -0.974082    15A     -0.842166
      16A     -0.805806    17A     -0.788487    18A     -0.727096
      19A     -0.661266    20A     -0.646964    21A     -0.601756
      22A     -0.595381    23A     -0.584202    24A     -0.574428
      25A     -0.549176    26A     -0.507666    27A     -0.482884
      28A     -0.463965    29A     -0.386048    30A     -0.301582
      31A     -0.283027

  @DF-RHF Final Energy:  -361.58784486650194

   => Energetics <=

    Nuclear Repulsion Energy =            399.9638340293338388
    One-Electron Energy =               -1281.5721820159685649
    Two-Electron Energy =                 520.0205031201328438
    Total Energy =                       -361.5878448665018823
  Basis Set: (AUG-CC-PVTZ AUX)
    Blend: AUG-CC-PVTZ-RI
    Molecular point group: c1

    Geometry (in Angstrom), charge = 0, multiplicity = 1:

       Center              X                  Y                   Z               Mass
    ------------   -----------------  -----------------  -----------------  -----------------
         N           -1.556519100639    -1.078621290122    -0.001289581573    14.003074004430
         C            0.988043899361     1.431914709878    -0.001291581573    12.000000000000
         C            2.162037899361     0.692243709878    -0.001289581573    12.000000000000
         C            2.139307899361    -0.720307290122    -0.001296581573    12.000000000000
         C            0.941013899361    -1.422060290122    -0.001291581573    12.000000000000
         C           -0.241556100639    -0.670669290122    -0.001291581573    12.000000000000
         C           -0.245624100639     0.752853709878    -0.001276581573    12.000000000000
         C           -1.614085100639     1.168144709878    -0.001299581573    12.000000000000
         C           -2.381954100639     0.026579709878    -0.001296581573    12.000000000000
         H            1.018776899361     2.520048709878    -0.001286581573     1.007825032230
         H            3.120633899361     1.206007709878    -0.001296581573     1.007825032230
         H            3.078461299361    -1.268785690122     0.148703418427     1.007825032230
         H            0.924947899361    -2.510523290122    -0.001295581573     1.007825032230
         H           -1.990886100639     2.183093709878    -0.001304581573     1.007825032230
         H           -1.870307100639    -2.039923290122    -0.001273581573     1.007825032230
         H           -3.458228100639    -0.090297290122    -0.001287581573     1.007825032230

  Basis Set: AUG-CC-PVTZ
    Blend: AUG-CC-PVTZ
  Basis Set: (AUG-CC-PVTZ AUX)
    Blend: AUG-CC-PVTZ-JKFIT
	 Reference Energy          =    -361.5878448665019391 [Eh]
	 Singles Energy            =      -0.0000000000000000 [Eh]
	 Same-Spin Energy          =      -0.4080667402892499 [Eh]
	 Opposite-Spin Energy      =      -1.2480691751854316 [Eh]
	 Correlation Energy        =      -1.6561359154746815 [Eh]
	 Total Energy              =    -363.2439807819766315 [Eh]

	 ================> DF-SCS-MP2 Energies <==================
	-----------------------------------------------------------
	 SCS Same-Spin Scale       =       0.3333333333333333 [-]
	 SCS Opposite-Spin Scale   =       1.2000000000000000 [-]
	 SCS Same-Spin Energy      =      -0.1360222467630833 [Eh]
	 SCS Opposite-Spin Energy  =      -1.4976830102225178 [Eh]
	 SCS Correlation Energy    =      -1.6337052569856012 [Eh]
	 SCS Total Energy          =    -363.2215501234875319 [Eh]
	-----------------------------------------------------------

  Dipole Moment: [D]
     X:    -1.5074      Y:    -1.5359      Z:     0.0977     Total:     2.1542

*** Psi4 exiting successfully. Buy a developer a beer!
