                               Psi4 1.3.2 release

  ==> Input File <==

--------------------------------------------------------------------------
#psi4
#
memory 32 gb

molecule  {
0 1
  N       -1.5631460    -1.0786450     0.0000020
  C        0.9814170     1.4318910     0.0000000
  C        2.1554110     0.6922200     0.0000020
  C        2.1326810    -0.7203310    -0.0000050
  C        0.9343870    -1.4220840     0.0000000
  C       -0.2481830    -0.6706930     0.0000000
  C       -0.2522510     0.7528300     0.0000150
  C       -1.6207120     1.1681210    -0.0000080
  C       -2.3885810     0.0265560    -0.0000050
  H        1.0121500     2.5200250     0.0000050
  H        3.1140070     1.2059840    -0.0000050
  H        3.0718340    -1.2688090    -0.0000050
  H        0.9183210    -2.5105470    -0.0000040
  H       -1.9975124     2.1830697    -0.0500130
  H       -1.8769340    -2.0399470     0.0000180
  H       -3.4648550    -0.0903210     0.0000040
units angstrom
no_reorient  #important for SAPT in psi4, default
symmetry c1  #important for SAPT in psi4, default
}

set PROPERTIES_ORIGIN ["COM"]
properties('MP2/aug-cc-pvtz', properties = ['dipole'])
--------------------------------------------------------------------------

    Molecular point group: c1
  Charge       = 0
  Multiplicity = 1
  Basis Set: AUG-CC-PVTZ
    Blend: AUG-CC-PVTZ
  Basis Set: (AUG-CC-PVTZ AUX)
    Blend: AUG-CC-PVTZ-JKFIT

    Orbital Energies [Eh]
    ---------------------

    Doubly Occupied:

       1A    -15.605759     2A    -11.273229     3A    -11.267141
       4A    -11.233580     5A    -11.231682     6A    -11.230410
       7A    -11.227279     8A    -11.222406     9A    -11.218911
      10A     -1.296301    11A     -1.128460    12A     -1.055990
      13A     -0.996469    14A     -0.974283    15A     -0.842236
      16A     -0.806199    17A     -0.788361    18A     -0.727228
      19A     -0.661814    20A     -0.647410    21A     -0.601725
      22A     -0.595299    23A     -0.584152    24A     -0.574071
      25A     -0.549969    26A     -0.507767    27A     -0.482604
      28A     -0.464921    29A     -0.386034    30A     -0.301524
      31A     -0.283005

  @DF-RHF Final Energy:  -361.58913149775532

   => Energetics <=

    Nuclear Repulsion Energy =            399.9981642737585048
    One-Electron Energy =               -1281.6421515832098521
    Two-Electron Energy =                 520.0548558116961431
    Total Energy =                       -361.5891314977552611
  Basis Set: (AUG-CC-PVTZ AUX)
    Blend: AUG-CC-PVTZ-RI
    Molecular point group: c1

    Geometry (in Angstrom), charge = 0, multiplicity = 1:

       Center              X                  Y                   Z               Mass
    ------------   -----------------  -----------------  -----------------  -----------------
         N           -1.556519102361    -1.078621290983     0.000432344875    14.003074004430
         C            0.988043897639     1.431914709017     0.000430344875    12.000000000000
         C            2.162037897639     0.692243709017     0.000432344875    12.000000000000
         C            2.139307897639    -0.720307290983     0.000425344875    12.000000000000
         C            0.941013897639    -1.422060290983     0.000430344875    12.000000000000
         C           -0.241556102361    -0.670669290983     0.000430344875    12.000000000000
         C           -0.245624102361     0.752853709017     0.000445344875    12.000000000000
         C           -1.614085102361     1.168144709017     0.000422344875    12.000000000000
         C           -2.381954102361     0.026579709017     0.000425344875    12.000000000000
         H            1.018776897639     2.520048709017     0.000435344875     1.007825032230
         H            3.120633897639     1.206007709017     0.000425344875     1.007825032230
         H            3.078460897639    -1.268785290983     0.000425344875     1.007825032230
         H            0.924947897639    -2.510523290983     0.000426344875     1.007825032230
         H           -1.990885502361     2.183093409017    -0.049582655125     1.007825032230
         H           -1.870307102361    -2.039923290983     0.000448344875     1.007825032230
         H           -3.458228102361    -0.090297290983     0.000434344875     1.007825032230

  Basis Set: AUG-CC-PVTZ
    Blend: AUG-CC-PVTZ
  Basis Set: (AUG-CC-PVTZ AUX)
    Blend: AUG-CC-PVTZ-JKFIT
	 Reference Energy          =    -361.5891314977553179 [Eh]
	 Singles Energy            =      -0.0000000000000000 [Eh]
	 Same-Spin Energy          =      -0.4079835822142455 [Eh]
	 Opposite-Spin Energy      =      -1.2479001057762300 [Eh]
	 Correlation Energy        =      -1.6558836879904755 [Eh]
	 Total Energy              =    -363.2450151857457854 [Eh]

	 ================> DF-SCS-MP2 Energies <==================
	-----------------------------------------------------------
	 SCS Same-Spin Scale       =       0.3333333333333333 [-]
	 SCS Opposite-Spin Scale   =       1.2000000000000000 [-]
	 SCS Same-Spin Energy      =      -0.1359945274047485 [Eh]
	 SCS Opposite-Spin Energy  =      -1.4974801269314759 [Eh]
	 SCS Correlation Energy    =      -1.6334746543362244 [Eh]
	 SCS Total Energy          =    -363.2226061520915437 [Eh]
	-----------------------------------------------------------

  Dipole Moment: [D]
     X:    -1.4843      Y:    -1.5490      Z:    -0.0405     Total:     2.1458

*** Psi4 exiting successfully. Buy a developer a beer!
