                               Psi4 1.3.2 release

  ==> Input File <==

--------------------------------------------------------------------------
#psi4
#
memory 32 gb

molecule  {
0 1
  N       -1.5631460    -1.0786450     0.0000020
  C        0.9814170     1.4318910     0.0000000
  C        2.1554110     0.6922200     0.0000020
  C        2.1326810    -0.7203310    -0.0000050
  C        0.9343870    -1.4220840     0.0000000
  C       -0.2481830    -0.6706930     0.0000000
  C       -0.2522510     0.7528300     0.0000150
  C       -1.6207120     1.1681210    -0.0000080
  C       -2.3885810     0.0265560    -0.0000050
  H        1.0121489     2.5200246    -0.1999950
  H        3.1140070     1.2059840    -0.0000050
  H        3.0718340    -1.2688090    -0.0000050
  H        0.9183210    -2.5105470    -0.0000040
  H       -1.9975130     2.1830700    -0.0000130
  H       -1.8769340    -2.0399470     0.0000180
  H       -3.4648550    -0.0903210     0.0000040
units angstrom
no_reorient  #important for SAPT in psi4, default
symmetry c1  #important for SAPT in psi4, default
}

set PROPERTIES_ORIGIN ["COM"]
properties('MP2/aug-cc-pvtz', properties = ['dipole'])
--------------------------------------------------------------------------

    Molecular point group: c1
  Charge       = 0
  Multiplicity = 1
  Basis Set: AUG-CC-PVTZ
    Blend: AUG-CC-PVTZ
  Basis Set: (AUG-CC-PVTZ AUX)
    Blend: AUG-CC-PVTZ-JKFIT

    Orbital Energies [Eh]
    ---------------------

    Doubly Occupied:

       1A    -15.605856     2A    -11.273342     3A    -11.267250
       4A    -11.233981     5A    -11.233195     6A    -11.230555
       7A    -11.227524     8A    -11.222804     9A    -11.218857
      10A     -1.296405    11A     -1.128542    12A     -1.056052
      13A     -0.996362    14A     -0.974193    15A     -0.841744
      16A     -0.806328    17A     -0.788447    18A     -0.725837
      19A     -0.661405    20A     -0.647571    21A     -0.601747
      22A     -0.593411    23A     -0.583759    24A     -0.574302
      25A     -0.550001    26A     -0.507943    27A     -0.483362
      28A     -0.462959    29A     -0.385844    30A     -0.301626
      31A     -0.283055

  @DF-RHF Final Energy:  -361.58668954013251

   => Energetics <=

    Nuclear Repulsion Energy =            399.9323735868700851
    One-Electron Energy =               -1281.5096001591080039
    Two-Electron Energy =                 519.9905370321054079
    Total Energy =                       -361.5866895401325110
  Basis Set: (AUG-CC-PVTZ AUX)
    Blend: AUG-CC-PVTZ-RI
    Molecular point group: c1

    Geometry (in Angstrom), charge = 0, multiplicity = 1:

       Center              X                  Y                   Z               Mass
    ------------   -----------------  -----------------  -----------------  -----------------
         N           -1.556519087724    -1.078621290122     0.001723789710    14.003074004430
         C            0.988043912276     1.431914709878     0.001721789710    12.000000000000
         C            2.162037912276     0.692243709878     0.001723789710    12.000000000000
         C            2.139307912276    -0.720307290122     0.001716789710    12.000000000000
         C            0.941013912276    -1.422060290122     0.001721789710    12.000000000000
         C           -0.241556087724    -0.670669290122     0.001721789710    12.000000000000
         C           -0.245624087724     0.752853709878     0.001736789710    12.000000000000
         C           -1.614085087724     1.168144709878     0.001713789710    12.000000000000
         C           -2.381954087724     0.026579709878     0.001716789710    12.000000000000
         H            1.018775812276     2.520048309878    -0.198273210290     1.007825032230
         H            3.120633912276     1.206007709878     0.001716789710     1.007825032230
         H            3.078460912276    -1.268785290122     0.001716789710     1.007825032230
         H            0.924947912276    -2.510523290122     0.001717789710     1.007825032230
         H           -1.990886087724     2.183093709878     0.001708789710     1.007825032230
         H           -1.870307087724    -2.039923290122     0.001739789710     1.007825032230
         H           -3.458228087724    -0.090297290122     0.001725789710     1.007825032230

  Basis Set: AUG-CC-PVTZ
    Blend: AUG-CC-PVTZ
  Basis Set: (AUG-CC-PVTZ AUX)
    Blend: AUG-CC-PVTZ-JKFIT
	 Reference Energy          =    -361.5866895401325110 [Eh]
	 Singles Energy            =      -0.0000000000000000 [Eh]
	 Same-Spin Energy          =      -0.4081425512676826 [Eh]
	 Opposite-Spin Energy      =      -1.2482087418645413 [Eh]
	 Correlation Energy        =      -1.6563512931322240 [Eh]
	 Total Energy              =    -363.2430408332647289 [Eh]

	 ================> DF-SCS-MP2 Energies <==================
	-----------------------------------------------------------
	 SCS Same-Spin Scale       =       0.3333333333333333 [-]
	 SCS Opposite-Spin Scale   =       1.2000000000000000 [-]
	 SCS Same-Spin Energy      =      -0.1360475170892275 [Eh]
	 SCS Opposite-Spin Energy  =      -1.4978504902374496 [Eh]
	 SCS Correlation Energy    =      -1.6338980073266771 [Eh]
	 SCS Total Energy          =    -363.2205875474591608 [Eh]
	-----------------------------------------------------------

  Dipole Moment: [D]
     X:    -1.4877      Y:    -1.5829      Z:    -0.1243     Total:     2.1758

*** Psi4 exiting successfully. Buy a developer a beer!
