                               Psi4 1.3.2 release

  ==> Input File <==

--------------------------------------------------------------------------
#psi4
#
memory 32 gb

molecule  {
0 1
  N       -1.5631460    -1.0786450     0.0000020
  C        0.9814170     1.4318910     0.0000000
  C        2.1554110     0.6922200     0.0000020
  C        2.1326810    -0.7203310    -0.0000050
  C        0.9343870    -1.4220840     0.0000000
  C       -0.2481830    -0.6706930     0.0000000
  C       -0.2522510     0.7528300     0.0000150
  C       -1.6207120     1.1681210    -0.0000080
  C       -2.3885810     0.0265560    -0.0000050
  H        1.0121500     2.5200250     0.0000050
  H        3.1140070     1.2059840    -0.0000050
  H        3.0718340    -1.2688090    -0.0000050
  H        0.9183210    -2.5105470    -0.0000040
  H       -1.9975130     2.1830700    -0.0000130
  H       -1.8769340    -2.0399470     0.0000180
  H       -3.4648540    -0.0903196     0.3000040
units angstrom
no_reorient  #important for SAPT in psi4, default
symmetry c1  #important for SAPT in psi4, default
}

set PROPERTIES_ORIGIN ["COM"]
properties('MP2/aug-cc-pvtz', properties = ['dipole'])
--------------------------------------------------------------------------

    Molecular point group: c1
  Charge       = 0
  Multiplicity = 1
  Basis Set: AUG-CC-PVTZ
    Blend: AUG-CC-PVTZ
  Basis Set: (AUG-CC-PVTZ AUX)
    Blend: AUG-CC-PVTZ-JKFIT

    Orbital Energies [Eh]
    ---------------------

    Doubly Occupied:

       1A    -15.605374     2A    -11.275705     3A    -11.267929
       4A    -11.233970     5A    -11.232479     6A    -11.231249
       7A    -11.227786     8A    -11.222912     9A    -11.220180
      10A     -1.296208    11A     -1.128947    12A     -1.056453
      13A     -0.996687    14A     -0.973617    15A     -0.840634
      16A     -0.805268    17A     -0.788337    18A     -0.725698
      19A     -0.660128    20A     -0.644760    21A     -0.602056
      22A     -0.595843    23A     -0.585942    24A     -0.572173
      25A     -0.545220    26A     -0.508066    27A     -0.483228
      28A     -0.464686    29A     -0.386384    30A     -0.301816
      31A     -0.283530

  @DF-RHF Final Energy:  -361.58355599087997

   => Energetics <=

    Nuclear Repulsion Energy =            399.8511563379519202
    One-Electron Energy =               -1281.3428930933919219
    Two-Electron Energy =                 519.9081807645600293
    Total Energy =                       -361.5835559908799723
  Basis Set: (AUG-CC-PVTZ AUX)
    Blend: AUG-CC-PVTZ-RI
    Molecular point group: c1

    Geometry (in Angstrom), charge = 0, multiplicity = 1:

       Center              X                  Y                   Z               Mass
    ------------   -----------------  -----------------  -----------------  -----------------
         N           -1.556519105804    -1.078621305620    -0.002581026408    14.003074004430
         C            0.988043894196     1.431914694380    -0.002583026408    12.000000000000
         C            2.162037894196     0.692243694380    -0.002581026408    12.000000000000
         C            2.139307894196    -0.720307305620    -0.002588026408    12.000000000000
         C            0.941013894196    -1.422060305620    -0.002583026408    12.000000000000
         C           -0.241556105804    -0.670669305620    -0.002583026408    12.000000000000
         C           -0.245624105804     0.752853694380    -0.002568026408    12.000000000000
         C           -1.614085105804     1.168144694380    -0.002591026408    12.000000000000
         C           -2.381954105804     0.026579694380    -0.002588026408    12.000000000000
         H            1.018776894196     2.520048694380    -0.002578026408     1.007825032230
         H            3.120633894196     1.206007694380    -0.002588026408     1.007825032230
         H            3.078460894196    -1.268785305620    -0.002588026408     1.007825032230
         H            0.924947894196    -2.510523305620    -0.002587026408     1.007825032230
         H           -1.990886105804     2.183093694380    -0.002596026408     1.007825032230
         H           -1.870307105804    -2.039923305620    -0.002565026408     1.007825032230
         H           -3.458227105804    -0.090295905620     0.297420973592     1.007825032230

  Basis Set: AUG-CC-PVTZ
    Blend: AUG-CC-PVTZ
  Basis Set: (AUG-CC-PVTZ AUX)
    Blend: AUG-CC-PVTZ-JKFIT
	 Reference Energy          =    -361.5835559908799723 [Eh]
	 Singles Energy            =      -0.0000000000000000 [Eh]
	 Same-Spin Energy          =      -0.4083304542209920 [Eh]
	 Opposite-Spin Energy      =      -1.2487388956145835 [Eh]
	 Correlation Energy        =      -1.6570693498355755 [Eh]
	 Total Energy              =    -363.2406253407155532 [Eh]

	 ================> DF-SCS-MP2 Energies <==================
	-----------------------------------------------------------
	 SCS Same-Spin Scale       =       0.3333333333333333 [-]
	 SCS Opposite-Spin Scale   =       1.2000000000000000 [-]
	 SCS Same-Spin Energy      =      -0.1361101514069973 [Eh]
	 SCS Opposite-Spin Energy  =      -1.4984866747375001 [Eh]
	 SCS Correlation Energy    =      -1.6345968261444974 [Eh]
	 SCS Total Energy          =    -363.2181528170244746 [Eh]
	-----------------------------------------------------------

  Dipole Moment: [D]
     X:    -1.3769      Y:    -1.5288      Z:     0.2383     Total:     2.0712

*** Psi4 exiting successfully. Buy a developer a beer!
