                               Psi4 1.3.2 release

  ==> Input File <==

--------------------------------------------------------------------------
#psi4
#
memory 32 gb

molecule  {
0 1
  N       -1.5631460    -1.0786450     0.0000020
  C        0.9814170     1.4318910     0.0000000
  C        2.1554110     0.6922200     0.0000020
  C        2.1326810    -0.7203310    -0.0000050
  C        0.9343870    -1.4220840     0.0000000
  C       -0.2481830    -0.6706930     0.0000000
  C       -0.2522510     0.7528300     0.0000150
  C       -1.6207120     1.1681210    -0.0000080
  C       -2.3885810     0.0265560    -0.0000050
  H        1.0121500     2.5200250     0.0000050
  H        3.1140070     1.2059840    -0.0000050
  H        3.0718341    -1.2688091     0.0499950
  H        0.9183210    -2.5105470    -0.0000040
  H       -1.9975130     2.1830700    -0.0000130
  H       -1.8769340    -2.0399470     0.0000180
  H       -3.4648550    -0.0903210     0.0000040
units angstrom
no_reorient  #important for SAPT in psi4, default
symmetry c1  #important for SAPT in psi4, default
}

set PROPERTIES_ORIGIN ["COM"]
properties('MP2/aug-cc-pvtz', properties = ['dipole'])
--------------------------------------------------------------------------

    Molecular point group: c1
  Charge       = 0
  Multiplicity = 1
  Basis Set: AUG-CC-PVTZ
    Blend: AUG-CC-PVTZ
  Basis Set: (AUG-CC-PVTZ AUX)
    Blend: AUG-CC-PVTZ-JKFIT

    Orbital Energies [Eh]
    ---------------------

    Doubly Occupied:

       1A    -15.605740     2A    -11.273205     3A    -11.267138
       4A    -11.233597     5A    -11.231686     6A    -11.230495
       7A    -11.227297     8A    -11.222415     9A    -11.218836
      10A     -1.296289    11A     -1.128455    12A     -1.056005
      13A     -0.996469    14A     -0.974260    15A     -0.842218
      16A     -0.806163    17A     -0.788468    18A     -0.727217
      19A     -0.661752    20A     -0.647367    21A     -0.601756
      22A     -0.595309    23A     -0.584067    24A     -0.574335
      25A     -0.549912    26A     -0.507750    27A     -0.482648
      28A     -0.464805    29A     -0.386056    30A     -0.301522
      31A     -0.282995

  @DF-RHF Final Energy:  -361.58911091099242

   => Energetics <=

    Nuclear Repulsion Energy =            399.9982281470499856
    One-Electron Energy =               -1281.6422242793967143
    Two-Electron Energy =                 520.0548852213543114
    Total Energy =                       -361.5891109109924173
  Basis Set: (AUG-CC-PVTZ AUX)
    Blend: AUG-CC-PVTZ-RI
    Molecular point group: c1

    Geometry (in Angstrom), charge = 0, multiplicity = 1:

       Center              X                  Y                   Z               Mass
    ------------   -----------------  -----------------  -----------------  -----------------
         N           -1.556519098056    -1.078621292705    -0.000428618349    14.003074004430
         C            0.988043901944     1.431914707295    -0.000430618349    12.000000000000
         C            2.162037901944     0.692243707295    -0.000428618349    12.000000000000
         C            2.139307901944    -0.720307292705    -0.000435618349    12.000000000000
         C            0.941013901944    -1.422060292705    -0.000430618349    12.000000000000
         C           -0.241556098056    -0.670669292705    -0.000430618349    12.000000000000
         C           -0.245624098056     0.752853707295    -0.000415618349    12.000000000000
         C           -1.614085098056     1.168144707295    -0.000438618349    12.000000000000
         C           -2.381954098056     0.026579707295    -0.000435618349    12.000000000000
         H            1.018776901944     2.520048707295    -0.000425618349     1.007825032230
         H            3.120633901944     1.206007707295    -0.000435618349     1.007825032230
         H            3.078461001944    -1.268785392705     0.049564381651     1.007825032230
         H            0.924947901944    -2.510523292705    -0.000434618349     1.007825032230
         H           -1.990886098056     2.183093707295    -0.000443618349     1.007825032230
         H           -1.870307098056    -2.039923292705    -0.000412618349     1.007825032230
         H           -3.458228098056    -0.090297292705    -0.000426618349     1.007825032230

  Basis Set: AUG-CC-PVTZ
    Blend: AUG-CC-PVTZ
  Basis Set: (AUG-CC-PVTZ AUX)
    Blend: AUG-CC-PVTZ-JKFIT
	 Reference Energy          =    -361.5891109109924173 [Eh]
	 Singles Energy            =      -0.0000000000000000 [Eh]
	 Same-Spin Energy          =      -0.4079864720275536 [Eh]
	 Opposite-Spin Energy      =      -1.2479026649793541 [Eh]
	 Correlation Energy        =      -1.6558891370069078 [Eh]
	 Total Energy              =    -363.2450000479993264 [Eh]

	 ================> DF-SCS-MP2 Energies <==================
	-----------------------------------------------------------
	 SCS Same-Spin Scale       =       0.3333333333333333 [-]
	 SCS Opposite-Spin Scale   =       1.2000000000000000 [-]
	 SCS Same-Spin Energy      =      -0.1359954906758512 [Eh]
	 SCS Opposite-Spin Energy  =      -1.4974831979752248 [Eh]
	 SCS Correlation Energy    =      -1.6334786886510759 [Eh]
	 SCS Total Energy          =    -363.2225895996434701 [Eh]
	-----------------------------------------------------------

  Dipole Moment: [D]
     X:    -1.4880      Y:    -1.5456      Z:     0.0328     Total:     2.1458

*** Psi4 exiting successfully. Buy a developer a beer!
