                               Psi4 1.3.2 release

  ==> Input File <==

--------------------------------------------------------------------------
#psi4
#
memory 32 gb

molecule  {
0 1
  N       -1.5631460    -1.0786450     0.0000020
  C        0.9814170     1.4318910     0.0000000
  C        2.1554110     0.6922200     0.0000020
  C        2.1326810    -0.7203310    -0.0000050
  C        0.9343870    -1.4220840     0.0000000
  C       -0.2481830    -0.6706930     0.0000000
  C       -0.2522510     0.7528300     0.0000150
  C       -1.6207120     1.1681210    -0.0000080
  C       -2.3885810     0.0265560    -0.0000050
  H        1.0121500     2.5200250     0.0000050
  H        3.1140070     1.2059840    -0.0000050
  H        3.0718340    -1.2688090    -0.0000050
  H        0.9183210    -2.5105470    -0.0000040
  H       -1.9975130     2.1830700    -0.0000130
  H       -1.8769339    -2.0399459     0.1000180
  H       -3.4648550    -0.0903210     0.0000040
units angstrom
no_reorient  #important for SAPT in psi4, default
symmetry c1  #important for SAPT in psi4, default
}

set PROPERTIES_ORIGIN ["COM"]
properties('MP2/aug-cc-pvtz', properties = ['dipole'])
--------------------------------------------------------------------------

    Molecular point group: c1
  Charge       = 0
  Multiplicity = 1
  Basis Set: AUG-CC-PVTZ
    Blend: AUG-CC-PVTZ
  Basis Set: (AUG-CC-PVTZ AUX)
    Blend: AUG-CC-PVTZ-JKFIT

    Orbital Energies [Eh]
    ---------------------

    Doubly Occupied:

       1A    -15.605921     2A    -11.273114     3A    -11.267068
       4A    -11.233591     5A    -11.231707     6A    -11.230427
       7A    -11.227336     8A    -11.222461     9A    -11.218928
      10A     -1.295952    11A     -1.128383    12A     -1.055782
      13A     -0.996297    14A     -0.974240    15A     -0.842071
      16A     -0.805577    17A     -0.788306    18A     -0.726741
      19A     -0.661756    20A     -0.647436    21A     -0.602177
      22A     -0.595521    23A     -0.583142    24A     -0.574037
      25A     -0.549991    26A     -0.507795    27A     -0.482642
      28A     -0.464852    29A     -0.386087    30A     -0.301609
      31A     -0.283056

  @DF-RHF Final Energy:  -361.58892325777174

   => Energetics <=

    Nuclear Repulsion Energy =            399.9790020528844821
    One-Electron Energy =               -1281.6078461191787028
    Two-Electron Energy =                 520.0399208085225382
    Total Energy =                       -361.5889232577717394
  Basis Set: (AUG-CC-PVTZ AUX)
    Blend: AUG-CC-PVTZ-RI
    Molecular point group: c1

    Geometry (in Angstrom), charge = 0, multiplicity = 1:

       Center              X                  Y                   Z               Mass
    ------------   -----------------  -----------------  -----------------  -----------------
         N           -1.556519098056    -1.078621303037    -0.000859099961    14.003074004430
         C            0.988043901944     1.431914696963    -0.000861099961    12.000000000000
         C            2.162037901944     0.692243696963    -0.000859099961    12.000000000000
         C            2.139307901944    -0.720307303037    -0.000866099961    12.000000000000
         C            0.941013901944    -1.422060303037    -0.000861099961    12.000000000000
         C           -0.241556098056    -0.670669303037    -0.000861099961    12.000000000000
         C           -0.245624098056     0.752853696963    -0.000846099961    12.000000000000
         C           -1.614085098056     1.168144696963    -0.000869099961    12.000000000000
         C           -2.381954098056     0.026579696963    -0.000866099961    12.000000000000
         H            1.018776901944     2.520048696963    -0.000856099961     1.007825032230
         H            3.120633901944     1.206007696963    -0.000866099961     1.007825032230
         H            3.078460901944    -1.268785303037    -0.000866099961     1.007825032230
         H            0.924947901944    -2.510523303037    -0.000865099961     1.007825032230
         H           -1.990886098056     2.183093696963    -0.000874099961     1.007825032230
         H           -1.870306998056    -2.039922203037     0.099156900039     1.007825032230
         H           -3.458228098056    -0.090297303037    -0.000857099961     1.007825032230

  Basis Set: AUG-CC-PVTZ
    Blend: AUG-CC-PVTZ
  Basis Set: (AUG-CC-PVTZ AUX)
    Blend: AUG-CC-PVTZ-JKFIT
	 Reference Energy          =    -361.5889232577717394 [Eh]
	 Singles Energy            =      -0.0000000000000000 [Eh]
	 Same-Spin Energy          =      -0.4080018233317210 [Eh]
	 Opposite-Spin Energy      =      -1.2479599849309975 [Eh]
	 Correlation Energy        =      -1.6559618082627185 [Eh]
	 Total Energy              =    -363.2448850660344419 [Eh]

	 ================> DF-SCS-MP2 Energies <==================
	-----------------------------------------------------------
	 SCS Same-Spin Scale       =       0.3333333333333333 [-]
	 SCS Opposite-Spin Scale   =       1.2000000000000000 [-]
	 SCS Same-Spin Energy      =      -0.1360006077772403 [Eh]
	 SCS Opposite-Spin Energy  =      -1.4975519819171970 [Eh]
	 SCS Correlation Energy    =      -1.6335525896944372 [Eh]
	 SCS Total Energy          =    -363.2224758474661712 [Eh]
	-----------------------------------------------------------

  Dipole Moment: [D]
     X:    -1.4800      Y:    -1.5384      Z:     0.1419     Total:     2.1395

*** Psi4 exiting successfully. Buy a developer a beer!
