                               Psi4 1.3.2 release

  ==> Input File <==

--------------------------------------------------------------------------
#psi4
#
memory 32 gb

molecule  {
0 1
  N       -1.5631460    -1.0786450     0.0000020
  C        0.9814170     1.4318910     0.0000000
  C        2.1554110     0.6922200     0.0000020
  C        2.1326810    -0.7203310    -0.0000050
  C        0.9343870    -1.4220840     0.0000000
  C       -0.2481830    -0.6706930     0.0000000
  C       -0.2522510     0.7528300     0.0000150
  C       -1.6207112     1.1681205    -0.2500080
  C       -2.3885810     0.0265560    -0.0000050
  H        1.0121500     2.5200250     0.0000050
  H        3.1140070     1.2059840    -0.0000050
  H        3.0718340    -1.2688090    -0.0000050
  H        0.9183210    -2.5105470    -0.0000040
  H       -1.9975130     2.1830700    -0.0000130
  H       -1.8769340    -2.0399470     0.0000180
  H       -3.4648550    -0.0903210     0.0000040
units angstrom
no_reorient  #important for SAPT in psi4, default
symmetry c1  #important for SAPT in psi4, default
}

set PROPERTIES_ORIGIN ["COM"]
properties('MP2/aug-cc-pvtz', properties = ['dipole'])
--------------------------------------------------------------------------

    Molecular point group: c1
  Charge       = 0
  Multiplicity = 1
  Basis Set: AUG-CC-PVTZ
    Blend: AUG-CC-PVTZ
  Basis Set: (AUG-CC-PVTZ AUX)
    Blend: AUG-CC-PVTZ-JKFIT

    Orbital Energies [Eh]
    ---------------------

    Doubly Occupied:

       1A    -15.609391     2A    -11.281388     3A    -11.267924
       4A    -11.234354     5A    -11.231288     6A    -11.230741
       7A    -11.229463     8A    -11.223529     9A    -11.223036
      10A     -1.297830    11A     -1.128905    12A     -1.052580
      13A     -0.996939    14A     -0.973232    15A     -0.842956
      16A     -0.804565    17A     -0.787010    18A     -0.727879
      19A     -0.661227    20A     -0.646779    21A     -0.600853
      22A     -0.595718    23A     -0.587310    24A     -0.560296
      25A     -0.546186    26A     -0.506616    27A     -0.481239
      28A     -0.463750    29A     -0.384634    30A     -0.302077
      31A     -0.283803

  @DF-RHF Final Energy:  -361.57233231239712

   => Energetics <=

    Nuclear Repulsion Energy =            399.3133376169664075
    One-Electron Energy =               -1280.2443451539761554
    Two-Electron Energy =                 519.3586752246125116
    Total Energy =                       -361.5723323123971795
  Basis Set: (AUG-CC-PVTZ AUX)
    Blend: AUG-CC-PVTZ-RI
    Molecular point group: c1

    Geometry (in Angstrom), charge = 0, multiplicity = 1:

       Center              X                  Y                   Z               Mass
    ------------   -----------------  -----------------  -----------------  -----------------
         N           -1.556519179206    -1.078621242310     0.025630217275    14.003074004430
         C            0.988043820794     1.431914757690     0.025628217275    12.000000000000
         C            2.162037820794     0.692243757690     0.025630217275    12.000000000000
         C            2.139307820794    -0.720307242310     0.025623217275    12.000000000000
         C            0.941013820794    -1.422060242310     0.025628217275    12.000000000000
         C           -0.241556179206    -0.670669242310     0.025628217275    12.000000000000
         C           -0.245624179206     0.752853757690     0.025643217275    12.000000000000
         C           -1.614084379206     1.168144257690    -0.224379782725    12.000000000000
         C           -2.381954179206     0.026579757690     0.025623217275    12.000000000000
         H            1.018776820794     2.520048757690     0.025633217275     1.007825032230
         H            3.120633820794     1.206007757690     0.025623217275     1.007825032230
         H            3.078460820794    -1.268785242310     0.025623217275     1.007825032230
         H            0.924947820794    -2.510523242310     0.025624217275     1.007825032230
         H           -1.990886179206     2.183093757690     0.025615217275     1.007825032230
         H           -1.870307179206    -2.039923242310     0.025646217275     1.007825032230
         H           -3.458228179206    -0.090297242310     0.025632217275     1.007825032230

  Basis Set: AUG-CC-PVTZ
    Blend: AUG-CC-PVTZ
  Basis Set: (AUG-CC-PVTZ AUX)
    Blend: AUG-CC-PVTZ-JKFIT
	 Reference Energy          =    -361.5723323123971227 [Eh]
	 Singles Energy            =      -0.0000000000000000 [Eh]
	 Same-Spin Energy          =      -0.4087891533166671 [Eh]
	 Opposite-Spin Energy      =      -1.2501394774154919 [Eh]
	 Correlation Energy        =      -1.6589286307321589 [Eh]
	 Total Energy              =    -363.2312609431292572 [Eh]

	 ================> DF-SCS-MP2 Energies <==================
	-----------------------------------------------------------
	 SCS Same-Spin Scale       =       0.3333333333333333 [-]
	 SCS Opposite-Spin Scale   =       1.2000000000000000 [-]
	 SCS Same-Spin Energy      =      -0.1362630511055557 [Eh]
	 SCS Opposite-Spin Energy  =      -1.5001673728985903 [Eh]
	 SCS Correlation Energy    =      -1.6364304240041458 [Eh]
	 SCS Total Energy          =    -363.2087627364012405 [Eh]
	-----------------------------------------------------------

  Dipole Moment: [D]
     X:    -1.3865      Y:    -1.6929      Z:     0.2670     Total:     2.2044

*** Psi4 exiting successfully. Buy a developer a beer!
