                               Psi4 1.3.2 release

  ==> Input File <==

--------------------------------------------------------------------------
#psi4
#
memory 32 gb

molecule  {
0 1
  N       -1.5631460    -1.0786450     0.0000020
  C        0.9814170     1.4318910     0.0000000
  C        2.1554110     0.6922200     0.0000020
  C        2.1326810    -0.7203310    -0.0000050
  C        0.9343870    -1.4220840     0.0000000
  C       -0.2481830    -0.6706930     0.0000000
  C       -0.2522510     0.7528300     0.0000150
  C       -1.6207120     1.1681210    -0.0000080
  C       -2.3885810     0.0265560    -0.0000050
  H        1.0121500     2.5200250     0.0000050
  H        3.1140070     1.2059840    -0.0000050
  H        3.0718343    -1.2688092     0.0999950
  H        0.9183210    -2.5105470    -0.0000040
  H       -1.9975130     2.1830700    -0.0000130
  H       -1.8769340    -2.0399470     0.0000180
  H       -3.4648550    -0.0903210     0.0000040
units angstrom
no_reorient  #important for SAPT in psi4, default
symmetry c1  #important for SAPT in psi4, default
}

set PROPERTIES_ORIGIN ["COM"]
properties('MP2/aug-cc-pvtz', properties = ['dipole'])
--------------------------------------------------------------------------

    Molecular point group: c1
  Charge       = 0
  Multiplicity = 1
  Basis Set: AUG-CC-PVTZ
    Blend: AUG-CC-PVTZ
  Basis Set: (AUG-CC-PVTZ AUX)
    Blend: AUG-CC-PVTZ-JKFIT

    Orbital Energies [Eh]
    ---------------------

    Doubly Occupied:

       1A    -15.605776     2A    -11.273265     3A    -11.267162
       4A    -11.233675     5A    -11.231699     6A    -11.230771
       7A    -11.227363     8A    -11.222464     9A    -11.218873
      10A     -1.296328    11A     -1.128466    12A     -1.056022
      13A     -0.996497    14A     -0.974191    15A     -0.842197
      16A     -0.806026    17A     -0.788475    18A     -0.727169
      19A     -0.661562    20A     -0.647218    21A     -0.601755
      22A     -0.595335    23A     -0.584118    24A     -0.574370
      25A     -0.549634    26A     -0.507719    27A     -0.482739
      28A     -0.464487    29A     -0.386053    30A     -0.301544
      31A     -0.283006

  @DF-RHF Final Energy:  -361.58864527893684

   => Energetics <=

    Nuclear Repulsion Energy =            399.9852525540368902
    One-Electron Energy =               -1281.6158799193722189
    Two-Electron Energy =                 520.0419820863985478
    Total Energy =                       -361.5886452789368377
  Basis Set: (AUG-CC-PVTZ AUX)
    Blend: AUG-CC-PVTZ-RI
    Molecular point group: c1

    Geometry (in Angstrom), charge = 0, multiplicity = 1:

       Center              X                  Y                   Z               Mass
    ------------   -----------------  -----------------  -----------------  -----------------
         N           -1.556519099778    -1.078621291844    -0.000859099961    14.003074004430
         C            0.988043900222     1.431914708156    -0.000861099961    12.000000000000
         C            2.162037900222     0.692243708156    -0.000859099961    12.000000000000
         C            2.139307900222    -0.720307291844    -0.000866099961    12.000000000000
         C            0.941013900222    -1.422060291844    -0.000861099961    12.000000000000
         C           -0.241556099778    -0.670669291844    -0.000861099961    12.000000000000
         C           -0.245624099778     0.752853708156    -0.000846099961    12.000000000000
         C           -1.614085099778     1.168144708156    -0.000869099961    12.000000000000
         C           -2.381954099778     0.026579708156    -0.000866099961    12.000000000000
         H            1.018776900222     2.520048708156    -0.000856099961     1.007825032230
         H            3.120633900222     1.206007708156    -0.000866099961     1.007825032230
         H            3.078461200222    -1.268785491844     0.099133900039     1.007825032230
         H            0.924947900222    -2.510523291844    -0.000865099961     1.007825032230
         H           -1.990886099778     2.183093708156    -0.000874099961     1.007825032230
         H           -1.870307099778    -2.039923291844    -0.000843099961     1.007825032230
         H           -3.458228099778    -0.090297291844    -0.000857099961     1.007825032230

  Basis Set: AUG-CC-PVTZ
    Blend: AUG-CC-PVTZ
  Basis Set: (AUG-CC-PVTZ AUX)
    Blend: AUG-CC-PVTZ-JKFIT
	 Reference Energy          =    -361.5886452789368377 [Eh]
	 Singles Energy            =      -0.0000000000000000 [Eh]
	 Same-Spin Energy          =      -0.4080171225653414 [Eh]
	 Opposite-Spin Energy      =      -1.2479616656194283 [Eh]
	 Correlation Energy        =      -1.6559787881847696 [Eh]
	 Total Energy              =    -363.2446240671216060 [Eh]

	 ================> DF-SCS-MP2 Energies <==================
	-----------------------------------------------------------
	 SCS Same-Spin Scale       =       0.3333333333333333 [-]
	 SCS Opposite-Spin Scale   =       1.2000000000000000 [-]
	 SCS Same-Spin Energy      =      -0.1360057075217805 [Eh]
	 SCS Opposite-Spin Energy  =      -1.4975539987433140 [Eh]
	 SCS Correlation Energy    =      -1.6335597062650944 [Eh]
	 SCS Total Energy          =    -363.2222049852019268 [Eh]
	-----------------------------------------------------------

  Dipole Moment: [D]
     X:    -1.4953      Y:    -1.5420      Z:     0.0654     Total:     2.1489

*** Psi4 exiting successfully. Buy a developer a beer!
