                               Psi4 1.3.2 release

  ==> Input File <==

--------------------------------------------------------------------------
#psi4
#
memory 32 gb

molecule  {
0 1
  N       -1.5631460    -1.0786450     0.0000020
  C        0.9814170     1.4318910     0.0000000
  C        2.1554110     0.6922200     0.0000020
  C        2.1326810    -0.7203310    -0.0000050
  C        0.9343870    -1.4220840     0.0000000
  C       -0.2481830    -0.6706930     0.0000000
  C       -0.2522510     0.7528300     0.0000150
  C       -1.6207120     1.1681210    -0.0000080
  C       -2.3885810     0.0265560    -0.0000050
  H        1.0121500     2.5200250     0.0000050
  H        3.1140070     1.2059840    -0.0000050
  H        3.0718345    -1.2688095     0.1999950
  H        0.9183210    -2.5105470    -0.0000040
  H       -1.9975130     2.1830700    -0.0000130
  H       -1.8769340    -2.0399470     0.0000180
  H       -3.4648550    -0.0903210     0.0000040
units angstrom
no_reorient  #important for SAPT in psi4, default
symmetry c1  #important for SAPT in psi4, default
}

set PROPERTIES_ORIGIN ["COM"]
properties('MP2/aug-cc-pvtz', properties = ['dipole'])
--------------------------------------------------------------------------

    Molecular point group: c1
  Charge       = 0
  Multiplicity = 1
  Basis Set: AUG-CC-PVTZ
    Blend: AUG-CC-PVTZ
  Basis Set: (AUG-CC-PVTZ AUX)
    Blend: AUG-CC-PVTZ-JKFIT

    Orbital Energies [Eh]
    ---------------------

    Doubly Occupied:

       1A    -15.605925     2A    -11.273504     3A    -11.267268
       4A    -11.234011     5A    -11.231865     6A    -11.231749
       7A    -11.227631     8A    -11.222668     9A    -11.219023
      10A     -1.296490    11A     -1.128517    12A     -1.056101
      13A     -0.996616    14A     -0.973938    15A     -0.842130
      16A     -0.805515    17A     -0.788505    18A     -0.727002
      19A     -0.660888    20A     -0.646599    21A     -0.601760
      22A     -0.595448    23A     -0.584320    24A     -0.574512
      25A     -0.548542    26A     -0.507585    27A     -0.483076
      28A     -0.463249    29A     -0.386043    30A     -0.301638
      31A     -0.283058

  @DF-RHF Final Energy:  -361.58667763427121

   => Energetics <=

    Nuclear Repulsion Energy =            399.9342722082713522
    One-Electron Energy =               -1281.5115456325877403
    Two-Electron Energy =                 519.9905957900451767
    Total Energy =                       -361.5866776342712683
  Basis Set: (AUG-CC-PVTZ AUX)
    Blend: AUG-CC-PVTZ-RI
    Molecular point group: c1

    Geometry (in Angstrom), charge = 0, multiplicity = 1:

       Center              X                  Y                   Z               Mass
    ------------   -----------------  -----------------  -----------------  -----------------
         N           -1.556519101500    -1.078621289261    -0.001720063184    14.003074004430
         C            0.988043898500     1.431914710739    -0.001722063184    12.000000000000
         C            2.162037898500     0.692243710739    -0.001720063184    12.000000000000
         C            2.139307898500    -0.720307289261    -0.001727063184    12.000000000000
         C            0.941013898500    -1.422060289261    -0.001722063184    12.000000000000
         C           -0.241556101500    -0.670669289261    -0.001722063184    12.000000000000
         C           -0.245624101500     0.752853710739    -0.001707063184    12.000000000000
         C           -1.614085101500     1.168144710739    -0.001730063184    12.000000000000
         C           -2.381954101500     0.026579710739    -0.001727063184    12.000000000000
         H            1.018776898500     2.520048710739    -0.001717063184     1.007825032230
         H            3.120633898500     1.206007710739    -0.001727063184     1.007825032230
         H            3.078461398500    -1.268785789261     0.198272936816     1.007825032230
         H            0.924947898500    -2.510523289261    -0.001726063184     1.007825032230
         H           -1.990886101500     2.183093710739    -0.001735063184     1.007825032230
         H           -1.870307101500    -2.039923289261    -0.001704063184     1.007825032230
         H           -3.458228101500    -0.090297289261    -0.001718063184     1.007825032230

  Basis Set: AUG-CC-PVTZ
    Blend: AUG-CC-PVTZ
  Basis Set: (AUG-CC-PVTZ AUX)
    Blend: AUG-CC-PVTZ-JKFIT
	 Reference Energy          =    -361.5866776342712114 [Eh]
	 Singles Energy            =      -0.0000000000000000 [Eh]
	 Same-Spin Energy          =      -0.4081342866260968 [Eh]
	 Opposite-Spin Energy      =      -1.2482284987669039 [Eh]
	 Correlation Energy        =      -1.6563627853930007 [Eh]
	 Total Energy              =    -363.2430404196642257 [Eh]

	 ================> DF-SCS-MP2 Energies <==================
	-----------------------------------------------------------
	 SCS Same-Spin Scale       =       0.3333333333333333 [-]
	 SCS Opposite-Spin Scale   =       1.2000000000000000 [-]
	 SCS Same-Spin Energy      =      -0.1360447622086989 [Eh]
	 SCS Opposite-Spin Energy  =      -1.4978741985202846 [Eh]
	 SCS Correlation Energy    =      -1.6339189607289835 [Eh]
	 SCS Total Energy          =    -363.2205965950001882 [Eh]
	-----------------------------------------------------------

  Dipole Moment: [D]
     X:    -1.5240      Y:    -1.5274      Z:     0.1294     Total:     2.1616

*** Psi4 exiting successfully. Buy a developer a beer!
