                               Psi4 1.3.2 release

  ==> Input File <==

--------------------------------------------------------------------------
#psi4
#
memory 32 gb

molecule  {
0 1
  N       -1.5631460    -1.0786450     0.0000020
  C        0.9814170     1.4318910     0.0000000
  C        2.1554110     0.6922200     0.0000020
  C        2.1326810    -0.7203310    -0.0000050
  C        0.9343870    -1.4220840     0.0000000
  C       -0.2481830    -0.6706930     0.0000000
  C       -0.2522510     0.7528293     0.1000150
  C       -1.6207120     1.1681210    -0.0000080
  C       -2.3885810     0.0265560    -0.0000050
  H        1.0121500     2.5200250     0.0000050
  H        3.1140070     1.2059840    -0.0000050
  H        3.0718340    -1.2688090    -0.0000050
  H        0.9183210    -2.5105470    -0.0000040
  H       -1.9975130     2.1830700    -0.0000130
  H       -1.8769340    -2.0399470     0.0000180
  H       -3.4648550    -0.0903210     0.0000040
units angstrom
no_reorient  #important for SAPT in psi4, default
symmetry c1  #important for SAPT in psi4, default
}

set PROPERTIES_ORIGIN ["COM"]
properties('MP2/aug-cc-pvtz', properties = ['dipole'])
--------------------------------------------------------------------------

    Molecular point group: c1
  Charge       = 0
  Multiplicity = 1
  Basis Set: AUG-CC-PVTZ
    Blend: AUG-CC-PVTZ
  Basis Set: (AUG-CC-PVTZ AUX)
    Blend: AUG-CC-PVTZ-JKFIT

    Orbital Energies [Eh]
    ---------------------

    Doubly Occupied:

       1A    -15.605819     2A    -11.273019     3A    -11.267922
       4A    -11.233528     5A    -11.232303     6A    -11.230759
       7A    -11.228089     8A    -11.222286     9A    -11.219172
      10A     -1.296117    11A     -1.128162    12A     -1.055524
      13A     -0.996289    14A     -0.974038    15A     -0.841775
      16A     -0.805865    17A     -0.788169    18A     -0.727186
      19A     -0.661581    20A     -0.647499    21A     -0.601829
      22A     -0.595099    23A     -0.583446    24A     -0.573806
      25A     -0.549539    26A     -0.507543    27A     -0.482179
      28A     -0.464398    29A     -0.385520    30A     -0.301462
      31A     -0.282860

  @DF-RHF Final Energy:  -361.58595200525440

   => Energetics <=

    Nuclear Repulsion Energy =            399.8629477526339997
    One-Electron Energy =               -1281.3722336152957268
    Two-Electron Energy =                 519.9233338574073287
    Total Energy =                       -361.5859520052543985
  Basis Set: (AUG-CC-PVTZ AUX)
    Blend: AUG-CC-PVTZ-RI
    Molecular point group: c1

    Geometry (in Angstrom), charge = 0, multiplicity = 1:

       Center              X                  Y                   Z               Mass
    ------------   -----------------  -----------------  -----------------  -----------------
         N           -1.556519097195    -1.078621221807    -0.010249478342    14.003074004430
         C            0.988043902805     1.431914778193    -0.010251478342    12.000000000000
         C            2.162037902805     0.692243778193    -0.010249478342    12.000000000000
         C            2.139307902805    -0.720307221807    -0.010256478342    12.000000000000
         C            0.941013902805    -1.422060221807    -0.010251478342    12.000000000000
         C           -0.241556097195    -0.670669221807    -0.010251478342    12.000000000000
         C           -0.245624097195     0.752853078193     0.089763521658    12.000000000000
         C           -1.614085097195     1.168144778193    -0.010259478342    12.000000000000
         C           -2.381954097195     0.026579778193    -0.010256478342    12.000000000000
         H            1.018776902805     2.520048778193    -0.010246478342     1.007825032230
         H            3.120633902805     1.206007778193    -0.010256478342     1.007825032230
         H            3.078460902805    -1.268785221807    -0.010256478342     1.007825032230
         H            0.924947902805    -2.510523221807    -0.010255478342     1.007825032230
         H           -1.990886097195     2.183093778193    -0.010264478342     1.007825032230
         H           -1.870307097195    -2.039923221807    -0.010233478342     1.007825032230
         H           -3.458228097195    -0.090297221807    -0.010247478342     1.007825032230

  Basis Set: AUG-CC-PVTZ
    Blend: AUG-CC-PVTZ
  Basis Set: (AUG-CC-PVTZ AUX)
    Blend: AUG-CC-PVTZ-JKFIT
	 Reference Energy          =    -361.5859520052543985 [Eh]
	 Singles Energy            =      -0.0000000000000000 [Eh]
	 Same-Spin Energy          =      -0.4081032315668947 [Eh]
	 Opposite-Spin Energy      =      -1.2480679598520110 [Eh]
	 Correlation Energy        =      -1.6561711914189057 [Eh]
	 Total Energy              =    -363.2421231966732762 [Eh]

	 ================> DF-SCS-MP2 Energies <==================
	-----------------------------------------------------------
	 SCS Same-Spin Scale       =       0.3333333333333333 [-]
	 SCS Opposite-Spin Scale   =       1.2000000000000000 [-]
	 SCS Same-Spin Energy      =      -0.1360344105222982 [Eh]
	 SCS Opposite-Spin Energy  =      -1.4976815518224131 [Eh]
	 SCS Correlation Energy    =      -1.6337159623447113 [Eh]
	 SCS Total Energy          =    -363.2196679675990936 [Eh]
	-----------------------------------------------------------

  Dipole Moment: [D]
     X:    -1.4821      Y:    -1.5557      Z:    -0.0182     Total:     2.1487

*** Psi4 exiting successfully. Buy a developer a beer!
