                               Psi4 1.3.2 release

  ==> Input File <==

--------------------------------------------------------------------------
#psi4
#
memory 32 gb

molecule  {
0 1
  N       -1.5631460    -1.0786450     0.0000020
  C        0.9814170     1.4318910     0.0000000
  C        2.1554110     0.6922200     0.0000020
  C        2.1326810    -0.7203310    -0.0000050
  C        0.9343870    -1.4220840     0.0000000
  C       -0.2481830    -0.6706930     0.0000000
  C       -0.2522510     0.7528300     0.0000150
  C       -1.6207120     1.1681210    -0.0000080
  C       -2.3885810     0.0265560    -0.0000050
  H        1.0121484     2.5200245    -0.2999950
  H        3.1140070     1.2059840    -0.0000050
  H        3.0718340    -1.2688090    -0.0000050
  H        0.9183210    -2.5105470    -0.0000040
  H       -1.9975130     2.1830700    -0.0000130
  H       -1.8769340    -2.0399470     0.0000180
  H       -3.4648550    -0.0903210     0.0000040
units angstrom
no_reorient  #important for SAPT in psi4, default
symmetry c1  #important for SAPT in psi4, default
}

set PROPERTIES_ORIGIN ["COM"]
properties('MP2/aug-cc-pvtz', properties = ['dipole'])
--------------------------------------------------------------------------

    Molecular point group: c1
  Charge       = 0
  Multiplicity = 1
  Basis Set: AUG-CC-PVTZ
    Blend: AUG-CC-PVTZ
  Basis Set: (AUG-CC-PVTZ AUX)
    Blend: AUG-CC-PVTZ-JKFIT

    Orbital Energies [Eh]
    ---------------------

    Doubly Occupied:

       1A    -15.606022     2A    -11.273541     3A    -11.267412
       4A    -11.235050     5A    -11.234490     6A    -11.230752
       7A    -11.227843     8A    -11.223312     9A    -11.218908
      10A     -1.296575    11A     -1.128673    12A     -1.056134
      13A     -0.996286    14A     -0.974106    15A     -0.841233
      16A     -0.806487    17A     -0.788453    18A     -0.724300
      19A     -0.660955    20A     -0.647774    21A     -0.601806
      22A     -0.591341    23A     -0.583188    24A     -0.574234
      25A     -0.549986    26A     -0.508177    27A     -0.484026
      28A     -0.460758    29A     -0.385588    30A     -0.301773
      31A     -0.283148

  @DF-RHF Final Energy:  -361.58311393741189

   => Energetics <=

    Nuclear Repulsion Energy =            399.8481185276643259
    One-Electron Energy =               -1281.3378017192285370
    Two-Electron Energy =                 519.9065692541522594
    Total Energy =                       -361.5831139374118948
  Basis Set: (AUG-CC-PVTZ AUX)
    Blend: AUG-CC-PVTZ-RI
    Molecular point group: c1

    Geometry (in Angstrom), charge = 0, multiplicity = 1:

       Center              X                  Y                   Z               Mass
    ------------   -----------------  -----------------  -----------------  -----------------
         N           -1.556519083419    -1.078621289261     0.002584752934    14.003074004430
         C            0.988043916581     1.431914710739     0.002582752934    12.000000000000
         C            2.162037916581     0.692243710739     0.002584752934    12.000000000000
         C            2.139307916581    -0.720307289261     0.002577752934    12.000000000000
         C            0.941013916581    -1.422060289261     0.002582752934    12.000000000000
         C           -0.241556083419    -0.670669289261     0.002582752934    12.000000000000
         C           -0.245624083419     0.752853710739     0.002597752934    12.000000000000
         C           -1.614085083419     1.168144710739     0.002574752934    12.000000000000
         C           -2.381954083419     0.026579710739     0.002577752934    12.000000000000
         H            1.018775316581     2.520048210739    -0.297412247066     1.007825032230
         H            3.120633916581     1.206007710739     0.002577752934     1.007825032230
         H            3.078460916581    -1.268785289261     0.002577752934     1.007825032230
         H            0.924947916581    -2.510523289261     0.002578752934     1.007825032230
         H           -1.990886083419     2.183093710739     0.002569752934     1.007825032230
         H           -1.870307083419    -2.039923289261     0.002600752934     1.007825032230
         H           -3.458228083419    -0.090297289261     0.002586752934     1.007825032230

  Basis Set: AUG-CC-PVTZ
    Blend: AUG-CC-PVTZ
  Basis Set: (AUG-CC-PVTZ AUX)
    Blend: AUG-CC-PVTZ-JKFIT
	 Reference Energy          =    -361.5831139374118948 [Eh]
	 Singles Energy            =      -0.0000000000000000 [Eh]
	 Same-Spin Energy          =      -0.4083403004233729 [Eh]
	 Opposite-Spin Energy      =      -1.2486779782138835 [Eh]
	 Correlation Energy        =      -1.6570182786372563 [Eh]
	 Total Energy              =    -363.2401322160491759 [Eh]

	 ================> DF-SCS-MP2 Energies <==================
	-----------------------------------------------------------
	 SCS Same-Spin Scale       =       0.3333333333333333 [-]
	 SCS Opposite-Spin Scale   =       1.2000000000000000 [-]
	 SCS Same-Spin Energy      =      -0.1361134334744576 [Eh]
	 SCS Opposite-Spin Energy  =      -1.4984135738566602 [Eh]
	 SCS Correlation Energy    =      -1.6345270073311178 [Eh]
	 SCS Total Energy          =    -363.2176409447430387 [Eh]
	-----------------------------------------------------------

  Dipole Moment: [D]
     X:    -1.4903      Y:    -1.6265      Z:    -0.1832     Total:     2.2136

*** Psi4 exiting successfully. Buy a developer a beer!
