                               Psi4 1.3.2 release

  ==> Input File <==

--------------------------------------------------------------------------
#psi4
#
memory 32 gb

molecule  {
0 1
  N       -1.5631460    -1.0786450     0.0000020
  C        0.9814170     1.4318910     0.0000000
  C        2.1554110     0.6922200     0.0000020
  C        2.1326810    -0.7203310    -0.0000050
  C        0.9343870    -1.4220840     0.0000000
  C       -0.2481830    -0.6706930     0.0000000
  C       -0.2522510     0.7528300     0.0000150
  C       -1.6207120     1.1681210    -0.0000080
  C       -2.3885810     0.0265560    -0.0000050
  H        1.0121500     2.5200250     0.0000050
  H        3.1140077     1.2059837     0.2999950
  H        3.0718340    -1.2688090    -0.0000050
  H        0.9183210    -2.5105470    -0.0000040
  H       -1.9975130     2.1830700    -0.0000130
  H       -1.8769340    -2.0399470     0.0000180
  H       -3.4648550    -0.0903210     0.0000040
units angstrom
no_reorient  #important for SAPT in psi4, default
symmetry c1  #important for SAPT in psi4, default
}

set PROPERTIES_ORIGIN ["COM"]
properties('MP2/aug-cc-pvtz', properties = ['dipole'])
--------------------------------------------------------------------------

    Molecular point group: c1
  Charge       = 0
  Multiplicity = 1
  Basis Set: AUG-CC-PVTZ
    Blend: AUG-CC-PVTZ
  Basis Set: (AUG-CC-PVTZ AUX)
    Blend: AUG-CC-PVTZ-JKFIT

    Orbital Energies [Eh]
    ---------------------

    Doubly Occupied:

       1A    -15.606325     2A    -11.273561     3A    -11.268017
       4A    -11.233874     5A    -11.232631     6A    -11.231059
       7A    -11.227696     8A    -11.225822     9A    -11.219314
      10A     -1.296851    11A     -1.128702    12A     -1.056482
      13A     -0.995674    14A     -0.974725    15A     -0.841593
      16A     -0.806119    17A     -0.787624    18A     -0.727722
      19A     -0.661217    20A     -0.642692    21A     -0.602226
      22A     -0.595109    23A     -0.584601    24A     -0.574232
      25A     -0.550304    26A     -0.505930    27A     -0.483303
      28A     -0.460991    29A     -0.386528    30A     -0.301406
      31A     -0.283401

  @DF-RHF Final Energy:  -361.58313598080696

   => Energetics <=

    Nuclear Repulsion Energy =            399.8524987199089651
    One-Electron Energy =               -1281.3398081846964942
    Two-Electron Energy =                 519.9041734839806850
    Total Energy =                       -361.5831359808069010
  Basis Set: (AUG-CC-PVTZ AUX)
    Blend: AUG-CC-PVTZ-RI
    Molecular point group: c1

    Geometry (in Angstrom), charge = 0, multiplicity = 1:

       Center              X                  Y                   Z               Mass
    ------------   -----------------  -----------------  -----------------  -----------------
         N           -1.556519103222    -1.078621290983    -0.002581026408    14.003074004430
         C            0.988043896778     1.431914709017    -0.002583026408    12.000000000000
         C            2.162037896778     0.692243709017    -0.002581026408    12.000000000000
         C            2.139307896778    -0.720307290983    -0.002588026408    12.000000000000
         C            0.941013896778    -1.422060290983    -0.002583026408    12.000000000000
         C           -0.241556103222    -0.670669290983    -0.002583026408    12.000000000000
         C           -0.245624103222     0.752853709017    -0.002568026408    12.000000000000
         C           -1.614085103222     1.168144709017    -0.002591026408    12.000000000000
         C           -2.381954103222     0.026579709017    -0.002588026408    12.000000000000
         H            1.018776896778     2.520048709017    -0.002578026408     1.007825032230
         H            3.120634596778     1.206007409017     0.297411973592     1.007825032230
         H            3.078460896778    -1.268785290983    -0.002588026408     1.007825032230
         H            0.924947896778    -2.510523290983    -0.002587026408     1.007825032230
         H           -1.990886103222     2.183093709017    -0.002596026408     1.007825032230
         H           -1.870307103222    -2.039923290983    -0.002565026408     1.007825032230
         H           -3.458228103222    -0.090297290983    -0.002579026408     1.007825032230

  Basis Set: AUG-CC-PVTZ
    Blend: AUG-CC-PVTZ
  Basis Set: (AUG-CC-PVTZ AUX)
    Blend: AUG-CC-PVTZ-JKFIT
	 Reference Energy          =    -361.5831359808069578 [Eh]
	 Singles Energy            =      -0.0000000000000000 [Eh]
	 Same-Spin Energy          =      -0.4082555276210659 [Eh]
	 Opposite-Spin Energy      =      -1.2486125797407985 [Eh]
	 Correlation Energy        =      -1.6568681073618645 [Eh]
	 Total Energy              =    -363.2400040881688028 [Eh]

	 ================> DF-SCS-MP2 Energies <==================
	-----------------------------------------------------------
	 SCS Same-Spin Scale       =       0.3333333333333333 [-]
	 SCS Opposite-Spin Scale   =       1.2000000000000000 [-]
	 SCS Same-Spin Energy      =      -0.1360851758736886 [Eh]
	 SCS Opposite-Spin Energy  =      -1.4983350956889583 [Eh]
	 SCS Correlation Energy    =      -1.6344202715626470 [Eh]
	 SCS Total Energy          =    -363.2175562523696044 [Eh]
	-----------------------------------------------------------

  Dipole Moment: [D]
     X:    -1.5747      Y:    -1.5847      Z:     0.1891     Total:     2.2420

*** Psi4 exiting successfully. Buy a developer a beer!
