                               Psi4 1.3.2 release

  ==> Input File <==

--------------------------------------------------------------------------
#psi4
#
memory 32 gb

molecule  {
0 1
  N       -1.5631460    -1.0786450     0.0000020
  C        0.9814170     1.4318910     0.0000000
  C        2.1554110     0.6922200     0.0000020
  C        2.1326810    -0.7203310    -0.0000050
  C        0.9343870    -1.4220840     0.0000000
  C       -0.2481830    -0.6706930     0.0000000
  C       -0.2522510     0.7528300     0.0000150
  C       -1.6207120     1.1681210    -0.0000080
  C       -2.3885810     0.0265560    -0.0000050
  H        1.0121500     2.5200250     0.0000050
  H        3.1140070     1.2059840    -0.0000050
  H        3.0718340    -1.2688090    -0.0000050
  H        0.9183210    -2.5105470    -0.0000040
  H       -1.9975130     2.1830700    -0.0000130
  H       -1.8769340    -2.0399470     0.0000180
  H       -3.4648545    -0.0903203     0.1500040
units angstrom
no_reorient  #important for SAPT in psi4, default
symmetry c1  #important for SAPT in psi4, default
}

set PROPERTIES_ORIGIN ["COM"]
properties('MP2/aug-cc-pvtz', properties = ['dipole'])
--------------------------------------------------------------------------

    Molecular point group: c1
  Charge       = 0
  Multiplicity = 1
  Basis Set: AUG-CC-PVTZ
    Blend: AUG-CC-PVTZ
  Basis Set: (AUG-CC-PVTZ AUX)
    Blend: AUG-CC-PVTZ-JKFIT

    Orbital Energies [Eh]
    ---------------------

    Doubly Occupied:

       1A    -15.605629     2A    -11.273828     3A    -11.267333
       4A    -11.233671     5A    -11.231885     6A    -11.230620
       7A    -11.227403     8A    -11.222529     9A    -11.219170
      10A     -1.296254    11A     -1.128577    12A     -1.056112
      13A     -0.996510    14A     -0.974098    15A     -0.841769
      16A     -0.805950    17A     -0.788436    18A     -0.726807
      19A     -0.661293    20A     -0.646807    21A     -0.601837
      22A     -0.595440    23A     -0.584652    24A     -0.573586
      25A     -0.548892    26A     -0.507845    27A     -0.482774
      28A     -0.464857    29A     -0.386139    30A     -0.301589
      31A     -0.283127

  @DF-RHF Final Energy:  -361.58797117491559

   => Energetics <=

    Nuclear Repulsion Energy =            399.9634996588597460
    One-Electron Energy =               -1281.5721012658464133
    Two-Electron Energy =                 520.0206304320710160
    Total Energy =                       -361.5879711749156513
  Basis Set: (AUG-CC-PVTZ AUX)
    Blend: AUG-CC-PVTZ-RI
    Molecular point group: c1

    Geometry (in Angstrom), charge = 0, multiplicity = 1:

       Center              X                  Y                   Z               Mass
    ------------   -----------------  -----------------  -----------------  -----------------
         N           -1.556519101500    -1.078621299593    -0.001289581573    14.003074004430
         C            0.988043898500     1.431914700407    -0.001291581573    12.000000000000
         C            2.162037898500     0.692243700407    -0.001289581573    12.000000000000
         C            2.139307898500    -0.720307299593    -0.001296581573    12.000000000000
         C            0.941013898500    -1.422060299593    -0.001291581573    12.000000000000
         C           -0.241556101500    -0.670669299593    -0.001291581573    12.000000000000
         C           -0.245624101500     0.752853700407    -0.001276581573    12.000000000000
         C           -1.614085101500     1.168144700407    -0.001299581573    12.000000000000
         C           -2.381954101500     0.026579700407    -0.001296581573    12.000000000000
         H            1.018776898500     2.520048700407    -0.001286581573     1.007825032230
         H            3.120633898500     1.206007700407    -0.001296581573     1.007825032230
         H            3.078460898500    -1.268785299593    -0.001296581573     1.007825032230
         H            0.924947898500    -2.510523299593    -0.001295581573     1.007825032230
         H           -1.990886101500     2.183093700407    -0.001304581573     1.007825032230
         H           -1.870307101500    -2.039923299593    -0.001273581573     1.007825032230
         H           -3.458227601500    -0.090296599593     0.148712418427     1.007825032230

  Basis Set: AUG-CC-PVTZ
    Blend: AUG-CC-PVTZ
  Basis Set: (AUG-CC-PVTZ AUX)
    Blend: AUG-CC-PVTZ-JKFIT
	 Reference Energy          =    -361.5879711749155945 [Eh]
	 Singles Energy            =      -0.0000000000000000 [Eh]
	 Same-Spin Energy          =      -0.4080663926128706 [Eh]
	 Opposite-Spin Energy      =      -1.2480830427077856 [Eh]
	 Correlation Energy        =      -1.6561494353206561 [Eh]
	 Total Energy              =    -363.2441206102362230 [Eh]

	 ================> DF-SCS-MP2 Energies <==================
	-----------------------------------------------------------
	 SCS Same-Spin Scale       =       0.3333333333333333 [-]
	 SCS Opposite-Spin Scale   =       1.2000000000000000 [-]
	 SCS Same-Spin Energy      =      -0.1360221308709569 [Eh]
	 SCS Opposite-Spin Energy  =      -1.4976996512493426 [Eh]
	 SCS Correlation Energy    =      -1.6337217821202994 [Eh]
	 SCS Total Energy          =    -363.2216929570358843 [Eh]
	-----------------------------------------------------------

  Dipole Moment: [D]
     X:    -1.4577      Y:    -1.5420      Z:     0.1218     Total:     2.1254

*** Psi4 exiting successfully. Buy a developer a beer!
