                               Psi4 1.3.2 release

  ==> Input File <==

--------------------------------------------------------------------------
#psi4
#
memory 32 gb

molecule  {
0 1
  N       -1.5631460    -1.0786450     0.0000020
  C        0.9814170     1.4318910     0.0000000
  C        2.1554110     0.6922200     0.0000020
  C        2.1326810    -0.7203310    -0.0000050
  C        0.9343870    -1.4220840     0.0000000
  C       -0.2481830    -0.6706930     0.0000000
  C       -0.2522510     0.7528300     0.0000150
  C       -1.6207120     1.1681210    -0.0000080
  C       -2.3885810     0.0265560    -0.0000050
  H        1.0121500     2.5200250     0.0000050
  H        3.1140070     1.2059840    -0.0000050
  H        3.0718340    -1.2688090    -0.0000050
  H        0.9183216    -2.5105473     0.2999960
  H       -1.9975130     2.1830700    -0.0000130
  H       -1.8769340    -2.0399470     0.0000180
  H       -3.4648550    -0.0903210     0.0000040
units angstrom
no_reorient  #important for SAPT in psi4, default
symmetry c1  #important for SAPT in psi4, default
}

set PROPERTIES_ORIGIN ["COM"]
properties('MP2/aug-cc-pvtz', properties = ['dipole'])
--------------------------------------------------------------------------

    Molecular point group: c1
  Charge       = 0
  Multiplicity = 1
  Basis Set: AUG-CC-PVTZ
    Blend: AUG-CC-PVTZ
  Basis Set: (AUG-CC-PVTZ AUX)
    Blend: AUG-CC-PVTZ-JKFIT

    Orbital Energies [Eh]
    ---------------------

    Doubly Occupied:

       1A    -15.605958     2A    -11.273318     3A    -11.267753
       4A    -11.236802     5A    -11.232780     6A    -11.231455
       7A    -11.227610     8A    -11.222834     9A    -11.219105
      10A     -1.296496    11A     -1.128839    12A     -1.055830
      13A     -0.996352    14A     -0.974409    15A     -0.841125
      16A     -0.806550    17A     -0.788095    18A     -0.725463
      19A     -0.660884    20A     -0.645780    21A     -0.601809
      22A     -0.592825    23A     -0.581937    24A     -0.574473
      25A     -0.550424    26A     -0.508159    27A     -0.483225
      28A     -0.462612    29A     -0.385450    30A     -0.301794
      31A     -0.283335

  @DF-RHF Final Energy:  -361.58340157404206

   => Energetics <=

    Nuclear Repulsion Energy =            399.8469983397387182
    One-Electron Energy =               -1281.3338361432222428
    Two-Electron Energy =                 519.9034362294414677
    Total Energy =                       -361.5834015740420000
  Basis Set: (AUG-CC-PVTZ AUX)
    Blend: AUG-CC-PVTZ-RI
    Molecular point group: c1

    Geometry (in Angstrom), charge = 0, multiplicity = 1:

       Center              X                  Y                   Z               Mass
    ------------   -----------------  -----------------  -----------------  -----------------
         N           -1.556519102361    -1.078621290983    -0.002581026408    14.003074004430
         C            0.988043897639     1.431914709017    -0.002583026408    12.000000000000
         C            2.162037897639     0.692243709017    -0.002581026408    12.000000000000
         C            2.139307897639    -0.720307290983    -0.002588026408    12.000000000000
         C            0.941013897639    -1.422060290983    -0.002583026408    12.000000000000
         C           -0.241556102361    -0.670669290983    -0.002583026408    12.000000000000
         C           -0.245624102361     0.752853709017    -0.002568026408    12.000000000000
         C           -1.614085102361     1.168144709017    -0.002591026408    12.000000000000
         C           -2.381954102361     0.026579709017    -0.002588026408    12.000000000000
         H            1.018776897639     2.520048709017    -0.002578026408     1.007825032230
         H            3.120633897639     1.206007709017    -0.002588026408     1.007825032230
         H            3.078460897639    -1.268785290983    -0.002588026408     1.007825032230
         H            0.924948497639    -2.510523590983     0.297412973592     1.007825032230
         H           -1.990886102361     2.183093709017    -0.002596026408     1.007825032230
         H           -1.870307102361    -2.039923290983    -0.002565026408     1.007825032230
         H           -3.458228102361    -0.090297290983    -0.002579026408     1.007825032230

  Basis Set: AUG-CC-PVTZ
    Blend: AUG-CC-PVTZ
  Basis Set: (AUG-CC-PVTZ AUX)
    Blend: AUG-CC-PVTZ-JKFIT
	 Reference Energy          =    -361.5834015740420568 [Eh]
	 Singles Energy            =      -0.0000000000000000 [Eh]
	 Same-Spin Energy          =      -0.4082873167003404 [Eh]
	 Opposite-Spin Energy      =      -1.2486168395071788 [Eh]
	 Correlation Energy        =      -1.6569041562075193 [Eh]
	 Total Energy              =    -363.2403057302495881 [Eh]

	 ================> DF-SCS-MP2 Energies <==================
	-----------------------------------------------------------
	 SCS Same-Spin Scale       =       0.3333333333333333 [-]
	 SCS Opposite-Spin Scale   =       1.2000000000000000 [-]
	 SCS Same-Spin Energy      =      -0.1360957722334468 [Eh]
	 SCS Opposite-Spin Energy  =      -1.4983402074086145 [Eh]
	 SCS Correlation Energy    =      -1.6344359796420613 [Eh]
	 SCS Total Energy          =    -363.2178375536840917 [Eh]
	-----------------------------------------------------------

  Dipole Moment: [D]
     X:    -1.4886      Y:    -1.4628      Z:     0.1951     Total:     2.0962

*** Psi4 exiting successfully. Buy a developer a beer!
