                               Psi4 1.3.2 release

  ==> Input File <==

--------------------------------------------------------------------------
#psi4
#
memory 32 gb

molecule  {
0 1
  N       -1.5631460    -1.0786450     0.0000020
  C        0.9814170     1.4318910     0.0000000
  C        2.1554110     0.6922200     0.0000020
  C        2.1326810    -0.7203310    -0.0000050
  C        0.9343870    -1.4220840     0.0000000
  C       -0.2481830    -0.6706930     0.0000000
  C       -0.2522510     0.7528300     0.0000150
  C       -1.6207120     1.1681210    -0.0000080
  C       -2.3885810     0.0265560    -0.0000050
  H        1.0121500     2.5200250     0.0000050
  H        3.1140076     1.2059837     0.2499950
  H        3.0718340    -1.2688090    -0.0000050
  H        0.9183210    -2.5105470    -0.0000040
  H       -1.9975130     2.1830700    -0.0000130
  H       -1.8769340    -2.0399470     0.0000180
  H       -3.4648550    -0.0903210     0.0000040
units angstrom
no_reorient  #important for SAPT in psi4, default
symmetry c1  #important for SAPT in psi4, default
}

set PROPERTIES_ORIGIN ["COM"]
properties('MP2/aug-cc-pvtz', properties = ['dipole'])
--------------------------------------------------------------------------

    Molecular point group: c1
  Charge       = 0
  Multiplicity = 1
  Basis Set: AUG-CC-PVTZ
    Blend: AUG-CC-PVTZ
  Basis Set: (AUG-CC-PVTZ AUX)
    Blend: AUG-CC-PVTZ-JKFIT

    Orbital Energies [Eh]
    ---------------------

    Doubly Occupied:

       1A    -15.606143     2A    -11.273445     3A    -11.267748
       4A    -11.233777     5A    -11.232338     6A    -11.230853
       7A    -11.227564     8A    -11.224798     9A    -11.219164
      10A     -1.296675    11A     -1.128620    12A     -1.056333
      13A     -0.995890    14A     -0.974588    15A     -0.841757
      16A     -0.806128    17A     -0.787864    18A     -0.727571
      19A     -0.661321    20A     -0.644107    21A     -0.602081
      22A     -0.595164    23A     -0.584433    24A     -0.574259
      25A     -0.550209    26A     -0.506510    27A     -0.483104
      28A     -0.462171    29A     -0.386383    30A     -0.301431
      31A     -0.283274

  @DF-RHF Final Energy:  -361.58513962365026

   => Energetics <=

    Nuclear Repulsion Energy =            399.8970373396048785
    One-Electron Energy =               -1281.4329546099206709
    Two-Electron Energy =                 519.9507776466655287
    Total Energy =                       -361.5851396236503206
  Basis Set: (AUG-CC-PVTZ AUX)
    Blend: AUG-CC-PVTZ-RI
    Molecular point group: c1

    Geometry (in Angstrom), charge = 0, multiplicity = 1:

       Center              X                  Y                   Z               Mass
    ------------   -----------------  -----------------  -----------------  -----------------
         N           -1.556519102361    -1.078621290983    -0.002150544796    14.003074004430
         C            0.988043897639     1.431914709017    -0.002152544796    12.000000000000
         C            2.162037897639     0.692243709017    -0.002150544796    12.000000000000
         C            2.139307897639    -0.720307290983    -0.002157544796    12.000000000000
         C            0.941013897639    -1.422060290983    -0.002152544796    12.000000000000
         C           -0.241556102361    -0.670669290983    -0.002152544796    12.000000000000
         C           -0.245624102361     0.752853709017    -0.002137544796    12.000000000000
         C           -1.614085102361     1.168144709017    -0.002160544796    12.000000000000
         C           -2.381954102361     0.026579709017    -0.002157544796    12.000000000000
         H            1.018776897639     2.520048709017    -0.002147544796     1.007825032230
         H            3.120634497639     1.206007409017     0.247842455204     1.007825032230
         H            3.078460897639    -1.268785290983    -0.002157544796     1.007825032230
         H            0.924947897639    -2.510523290983    -0.002156544796     1.007825032230
         H           -1.990886102361     2.183093709017    -0.002165544796     1.007825032230
         H           -1.870307102361    -2.039923290983    -0.002134544796     1.007825032230
         H           -3.458228102361    -0.090297290983    -0.002148544796     1.007825032230

  Basis Set: AUG-CC-PVTZ
    Blend: AUG-CC-PVTZ
  Basis Set: (AUG-CC-PVTZ AUX)
    Blend: AUG-CC-PVTZ-JKFIT
	 Reference Energy          =    -361.5851396236502637 [Eh]
	 Singles Energy            =      -0.0000000000000000 [Eh]
	 Same-Spin Energy          =      -0.4081737128636480 [Eh]
	 Opposite-Spin Energy      =      -1.2483725289035945 [Eh]
	 Correlation Energy        =      -1.6565462417672425 [Eh]
	 Total Energy              =    -363.2416858654174803 [Eh]

	 ================> DF-SCS-MP2 Energies <==================
	-----------------------------------------------------------
	 SCS Same-Spin Scale       =       0.3333333333333333 [-]
	 SCS Opposite-Spin Scale   =       1.2000000000000000 [-]
	 SCS Same-Spin Energy      =      -0.1360579042878826 [Eh]
	 SCS Opposite-Spin Energy  =      -1.4980470346843133 [Eh]
	 SCS Correlation Energy    =      -1.6341049389721960 [Eh]
	 SCS Total Energy          =    -363.2192445626224639 [Eh]
	-----------------------------------------------------------

  Dipole Moment: [D]
     X:    -1.5480      Y:    -1.5733      Z:     0.1591     Total:     2.2129

*** Psi4 exiting successfully. Buy a developer a beer!
