                               Psi4 1.3.2 release

  ==> Input File <==

--------------------------------------------------------------------------
#psi4
#
memory 32 gb

molecule  {
0 1
  N       -1.5631460    -1.0786450     0.0000020
  C        0.9814170     1.4318910     0.0000000
  C        2.1554110     0.6922200     0.0000020
  C        2.1326810    -0.7203310    -0.0000050
  C        0.9343870    -1.4220840     0.0000000
  C       -0.2481830    -0.6706930     0.0000000
  C       -0.2522510     0.7528300     0.0000150
  C       -1.6207120     1.1681210    -0.0000080
  C       -2.3885810     0.0265560    -0.0000050
  H        1.0121500     2.5200250     0.0000050
  H        3.1140070     1.2059840    -0.0000050
  H        3.0718340    -1.2688090    -0.0000050
  H        0.9183210    -2.5105470    -0.0000040
  H       -1.9975130     2.1830700    -0.0000130
  H       -1.8769337    -2.0399447     0.2000180
  H       -3.4648550    -0.0903210     0.0000040
units angstrom
no_reorient  #important for SAPT in psi4, default
symmetry c1  #important for SAPT in psi4, default
}

set PROPERTIES_ORIGIN ["COM"]
properties('MP2/aug-cc-pvtz', properties = ['dipole'])
--------------------------------------------------------------------------

    Molecular point group: c1
  Charge       = 0
  Multiplicity = 1
  Basis Set: AUG-CC-PVTZ
    Blend: AUG-CC-PVTZ
  Basis Set: (AUG-CC-PVTZ AUX)
    Blend: AUG-CC-PVTZ-JKFIT

    Orbital Energies [Eh]
    ---------------------

    Doubly Occupied:

       1A    -15.606496     2A    -11.272906     3A    -11.266888
       4A    -11.233647     5A    -11.231781     6A    -11.230495
       7A    -11.227514     8A    -11.222640     9A    -11.219235
      10A     -1.295020    11A     -1.128189    12A     -1.055168
      13A     -0.995831    14A     -0.974113    15A     -0.841659
      16A     -0.803814    17A     -0.787781    18A     -0.725244
      19A     -0.661568    20A     -0.647492    21A     -0.603211
      22A     -0.595899    23A     -0.581185    24A     -0.572927
      25A     -0.549944    26A     -0.507894    27A     -0.482707
      28A     -0.464675    29A     -0.386174    30A     -0.301884
      31A     -0.283240

  @DF-RHF Final Energy:  -361.58770072607763

   => Energetics <=

    Nuclear Repulsion Energy =            399.9098898701755616
    One-Electron Energy =               -1281.4807416842638759
    Two-Electron Energy =                 519.9831510880106862
    Total Energy =                       -361.5877007260776281
  Basis Set: (AUG-CC-PVTZ AUX)
    Blend: AUG-CC-PVTZ-RI
    Molecular point group: c1

    Geometry (in Angstrom), charge = 0, multiplicity = 1:

       Center              X                  Y                   Z               Mass
    ------------   -----------------  -----------------  -----------------  -----------------
         N           -1.556519099778    -1.078621313368    -0.001720063184    14.003074004430
         C            0.988043900222     1.431914686632    -0.001722063184    12.000000000000
         C            2.162037900222     0.692243686632    -0.001720063184    12.000000000000
         C            2.139307900222    -0.720307313368    -0.001727063184    12.000000000000
         C            0.941013900222    -1.422060313368    -0.001722063184    12.000000000000
         C           -0.241556099778    -0.670669313368    -0.001722063184    12.000000000000
         C           -0.245624099778     0.752853686632    -0.001707063184    12.000000000000
         C           -1.614085099778     1.168144686632    -0.001730063184    12.000000000000
         C           -2.381954099778     0.026579686632    -0.001727063184    12.000000000000
         H            1.018776900222     2.520048686632    -0.001717063184     1.007825032230
         H            3.120633900222     1.206007686632    -0.001727063184     1.007825032230
         H            3.078460900222    -1.268785313368    -0.001727063184     1.007825032230
         H            0.924947900222    -2.510523313368    -0.001726063184     1.007825032230
         H           -1.990886099778     2.183093686632    -0.001735063184     1.007825032230
         H           -1.870306799778    -2.039921013368     0.198295936816     1.007825032230
         H           -3.458228099778    -0.090297313368    -0.001718063184     1.007825032230

  Basis Set: AUG-CC-PVTZ
    Blend: AUG-CC-PVTZ
  Basis Set: (AUG-CC-PVTZ AUX)
    Blend: AUG-CC-PVTZ-JKFIT
	 Reference Energy          =    -361.5877007260776281 [Eh]
	 Singles Energy            =      -0.0000000000000000 [Eh]
	 Same-Spin Energy          =      -0.4080794261153990 [Eh]
	 Opposite-Spin Energy      =      -1.2481945567797583 [Eh]
	 Correlation Energy        =      -1.6562739828951574 [Eh]
	 Total Energy              =    -363.2439747089727575 [Eh]

	 ================> DF-SCS-MP2 Energies <==================
	-----------------------------------------------------------
	 SCS Same-Spin Scale       =       0.3333333333333333 [-]
	 SCS Opposite-Spin Scale   =       1.2000000000000000 [-]
	 SCS Same-Spin Energy      =      -0.1360264753717997 [Eh]
	 SCS Opposite-Spin Energy  =      -1.4978334681357099 [Eh]
	 SCS Correlation Energy    =      -1.6338599435075096 [Eh]
	 SCS Total Energy          =    -363.2215606695851307 [Eh]
	-----------------------------------------------------------

  Dipole Moment: [D]
     X:    -1.4637      Y:    -1.5138      Z:     0.2819     Total:     2.1245

*** Psi4 exiting successfully. Buy a developer a beer!
