                               Psi4 1.3.2 release

  ==> Input File <==

--------------------------------------------------------------------------
#psi4
#
memory 32 gb

molecule  {
0 1
  N       -1.5631460    -1.0786450     0.0000020
  C        0.9814170     1.4318910     0.0000000
  C        2.1554110     0.6922200     0.0000020
  C        2.1326810    -0.7203310    -0.0000050
  C        0.9343870    -1.4220840     0.0000000
  C       -0.2481830    -0.6706930     0.0000000
  C       -0.2522510     0.7528300     0.0000150
  C       -1.6207120     1.1681210    -0.0000080
  C       -2.3885810     0.0265560    -0.0000050
  H        1.0121486     2.5200246    -0.2499950
  H        3.1140070     1.2059840    -0.0000050
  H        3.0718340    -1.2688090    -0.0000050
  H        0.9183210    -2.5105470    -0.0000040
  H       -1.9975130     2.1830700    -0.0000130
  H       -1.8769340    -2.0399470     0.0000180
  H       -3.4648550    -0.0903210     0.0000040
units angstrom
no_reorient  #important for SAPT in psi4, default
symmetry c1  #important for SAPT in psi4, default
}

set PROPERTIES_ORIGIN ["COM"]
properties('MP2/aug-cc-pvtz', properties = ['dipole'])
--------------------------------------------------------------------------

    Molecular point group: c1
  Charge       = 0
  Multiplicity = 1
  Basis Set: AUG-CC-PVTZ
    Blend: AUG-CC-PVTZ
  Basis Set: (AUG-CC-PVTZ AUX)
    Blend: AUG-CC-PVTZ-JKFIT

    Orbital Energies [Eh]
    ---------------------

    Doubly Occupied:

       1A    -15.605930     2A    -11.273431     3A    -11.267321
       4A    -11.234211     5A    -11.234036     6A    -11.230643
       7A    -11.227667     8A    -11.223033     9A    -11.218879
      10A     -1.296481    11A     -1.128599    12A     -1.056087
      13A     -0.996323    14A     -0.974151    15A     -0.841503
      16A     -0.806399    17A     -0.788446    18A     -0.725119
      19A     -0.661195    20A     -0.647662    21A     -0.601767
      22A     -0.592429    23A     -0.583536    24A     -0.574279
      25A     -0.549997    26A     -0.508048    27A     -0.483692
      28A     -0.461943    29A     -0.385728    30A     -0.301691
      31A     -0.283095

  @DF-RHF Final Energy:  -361.58512451551223

   => Energetics <=

    Nuclear Repulsion Energy =            399.8939961842534103
    One-Electron Energy =               -1281.4315925331641211
    Two-Electron Energy =                 519.9524718333984765
    Total Energy =                       -361.5851245155122342
  Basis Set: (AUG-CC-PVTZ AUX)
    Blend: AUG-CC-PVTZ-RI
    Molecular point group: c1

    Geometry (in Angstrom), charge = 0, multiplicity = 1:

       Center              X                  Y                   Z               Mass
    ------------   -----------------  -----------------  -----------------  -----------------
         N           -1.556519085141    -1.078621290122     0.002154271322    14.003074004430
         C            0.988043914859     1.431914709878     0.002152271322    12.000000000000
         C            2.162037914859     0.692243709878     0.002154271322    12.000000000000
         C            2.139307914859    -0.720307290122     0.002147271322    12.000000000000
         C            0.941013914859    -1.422060290122     0.002152271322    12.000000000000
         C           -0.241556085141    -0.670669290122     0.002152271322    12.000000000000
         C           -0.245624085141     0.752853709878     0.002167271322    12.000000000000
         C           -1.614085085141     1.168144709878     0.002144271322    12.000000000000
         C           -2.381954085141     0.026579709878     0.002147271322    12.000000000000
         H            1.018775514859     2.520048309878    -0.247842728678     1.007825032230
         H            3.120633914859     1.206007709878     0.002147271322     1.007825032230
         H            3.078460914859    -1.268785290122     0.002147271322     1.007825032230
         H            0.924947914859    -2.510523290122     0.002148271322     1.007825032230
         H           -1.990886085141     2.183093709878     0.002139271322     1.007825032230
         H           -1.870307085141    -2.039923290122     0.002170271322     1.007825032230
         H           -3.458228085141    -0.090297290122     0.002156271322     1.007825032230

  Basis Set: AUG-CC-PVTZ
    Blend: AUG-CC-PVTZ
  Basis Set: (AUG-CC-PVTZ AUX)
    Blend: AUG-CC-PVTZ-JKFIT
	 Reference Energy          =    -361.5851245155122342 [Eh]
	 Singles Energy            =      -0.0000000000000000 [Eh]
	 Same-Spin Energy          =      -0.4082327444199264 [Eh]
	 Opposite-Spin Energy      =      -1.2484165373648972 [Eh]
	 Correlation Energy        =      -1.6566492817848237 [Eh]
	 Total Energy              =    -363.2417737972970713 [Eh]

	 ================> DF-SCS-MP2 Energies <==================
	-----------------------------------------------------------
	 SCS Same-Spin Scale       =       0.3333333333333333 [-]
	 SCS Opposite-Spin Scale   =       1.2000000000000000 [-]
	 SCS Same-Spin Energy      =      -0.1360775814733088 [Eh]
	 SCS Opposite-Spin Energy  =      -1.4980998448378766 [Eh]
	 SCS Correlation Energy    =      -1.6341774263111855 [Eh]
	 SCS Total Energy          =    -363.2193019418234030 [Eh]
	-----------------------------------------------------------

  Dipole Moment: [D]
     X:    -1.4889      Y:    -1.6027      Z:    -0.1542     Total:     2.1929

*** Psi4 exiting successfully. Buy a developer a beer!
