                               Psi4 1.3.2 release

  ==> Input File <==

--------------------------------------------------------------------------
#psi4
#
memory 32 gb

molecule  {
0 1
  N       -1.5631460    -1.0786450     0.0000020
  C        0.9814170     1.4318910     0.0000000
  C        2.1554110     0.6922200     0.0000020
  C        2.1326810    -0.7203310    -0.0000050
  C        0.9343870    -1.4220840     0.0000000
  C       -0.2481830    -0.6706930     0.0000000
  C       -0.2522510     0.7528300     0.0000150
  C       -1.6207120     1.1681210    -0.0000080
  C       -2.3885810     0.0265560    -0.0000050
  H        1.0121500     2.5200250     0.0000050
  H        3.1140070     1.2059840    -0.0000050
  H        3.0718340    -1.2688090    -0.0000050
  H        0.9183210    -2.5105470    -0.0000040
  H       -1.9975096     2.1830683    -0.3000130
  H       -1.8769340    -2.0399470     0.0000180
  H       -3.4648550    -0.0903210     0.0000040
units angstrom
no_reorient  #important for SAPT in psi4, default
symmetry c1  #important for SAPT in psi4, default
}

set PROPERTIES_ORIGIN ["COM"]
properties('MP2/aug-cc-pvtz', properties = ['dipole'])
--------------------------------------------------------------------------

    Molecular point group: c1
  Charge       = 0
  Multiplicity = 1
  Basis Set: AUG-CC-PVTZ
    Blend: AUG-CC-PVTZ
  Basis Set: (AUG-CC-PVTZ AUX)
    Blend: AUG-CC-PVTZ-JKFIT

    Orbital Energies [Eh]
    ---------------------

    Doubly Occupied:

       1A    -15.606843     2A    -11.274708     3A    -11.267513
       4A    -11.233875     5A    -11.231730     6A    -11.230644
       7A    -11.227457     8A    -11.222651     9A    -11.221903
      10A     -1.297175    11A     -1.128729    12A     -1.055739
      13A     -0.996794    14A     -0.974319    15A     -0.842601
      16A     -0.806015    17A     -0.784977    18A     -0.727097
      19A     -0.661837    20A     -0.647236    21A     -0.600860
      22A     -0.595271    23A     -0.586268    24A     -0.567249
      25A     -0.548056    26A     -0.508003    27A     -0.482080
      28A     -0.465222    29A     -0.385260    30A     -0.301862
      31A     -0.283456

  @DF-RHF Final Energy:  -361.58377220204767

   => Energetics <=

    Nuclear Repulsion Energy =            399.8501411344763596
    One-Electron Energy =               -1281.3409630139874480
    Two-Electron Energy =                 519.9070496774634194
    Total Energy =                       -361.5837722020476122
  Basis Set: (AUG-CC-PVTZ AUX)
    Blend: AUG-CC-PVTZ-RI
    Molecular point group: c1

    Geometry (in Angstrom), charge = 0, multiplicity = 1:

       Center              X                  Y                   Z               Mass
    ------------   -----------------  -----------------  -----------------  -----------------
         N           -1.556519126468    -1.078621278930     0.002584752934    14.003074004430
         C            0.988043873532     1.431914721070     0.002582752934    12.000000000000
         C            2.162037873532     0.692243721070     0.002584752934    12.000000000000
         C            2.139307873532    -0.720307278930     0.002577752934    12.000000000000
         C            0.941013873532    -1.422060278930     0.002582752934    12.000000000000
         C           -0.241556126468    -0.670669278930     0.002582752934    12.000000000000
         C           -0.245624126468     0.752853721070     0.002597752934    12.000000000000
         C           -1.614085126468     1.168144721070     0.002574752934    12.000000000000
         C           -2.381954126468     0.026579721070     0.002577752934    12.000000000000
         H            1.018776873532     2.520048721070     0.002587752934     1.007825032230
         H            3.120633873532     1.206007721070     0.002577752934     1.007825032230
         H            3.078460873532    -1.268785278930     0.002577752934     1.007825032230
         H            0.924947873532    -2.510523278930     0.002578752934     1.007825032230
         H           -1.990882726468     2.183092021070    -0.297430247066     1.007825032230
         H           -1.870307126468    -2.039923278930     0.002600752934     1.007825032230
         H           -3.458228126468    -0.090297278930     0.002586752934     1.007825032230

  Basis Set: AUG-CC-PVTZ
    Blend: AUG-CC-PVTZ
  Basis Set: (AUG-CC-PVTZ AUX)
    Blend: AUG-CC-PVTZ-JKFIT
	 Reference Energy          =    -361.5837722020476690 [Eh]
	 Singles Energy            =      -0.0000000000000000 [Eh]
	 Same-Spin Energy          =      -0.4082391871168182 [Eh]
	 Opposite-Spin Energy      =      -1.2485256024419262 [Eh]
	 Correlation Energy        =      -1.6567647895587445 [Eh]
	 Total Energy              =    -363.2405369916064046 [Eh]

	 ================> DF-SCS-MP2 Energies <==================
	-----------------------------------------------------------
	 SCS Same-Spin Scale       =       0.3333333333333333 [-]
	 SCS Opposite-Spin Scale   =       1.2000000000000000 [-]
	 SCS Same-Spin Energy      =      -0.1360797290389394 [Eh]
	 SCS Opposite-Spin Energy  =      -1.4982307229303113 [Eh]
	 SCS Correlation Energy    =      -1.6343104519692506 [Eh]
	 SCS Total Energy          =    -363.2180826540169392 [Eh]
	-----------------------------------------------------------

  Dipole Moment: [D]
     X:    -1.4421      Y:    -1.6225      Z:    -0.2368     Total:     2.1836

*** Psi4 exiting successfully. Buy a developer a beer!
