                               Psi4 1.3.2 release

  ==> Input File <==

--------------------------------------------------------------------------
#psi4
#
memory 32 gb

molecule  {
0 1
  N       -1.5631460    -1.0786450     0.0000020
  C        0.9814170     1.4318910     0.0000000
  C        2.1554110     0.6922200     0.0000020
  C        2.1326810    -0.7203310    -0.0000050
  C        0.9343870    -1.4220840     0.0000000
  C       -0.2481830    -0.6706930     0.0000000
  C       -0.2522510     0.7528300     0.0000150
  C       -1.6207120     1.1681210    -0.0000080
  C       -2.3885810     0.0265560    -0.0000050
  H        1.0121500     2.5200250     0.0000050
  H        3.1140071     1.2059839     0.0499950
  H        3.0718340    -1.2688090    -0.0000050
  H        0.9183210    -2.5105470    -0.0000040
  H       -1.9975130     2.1830700    -0.0000130
  H       -1.8769340    -2.0399470     0.0000180
  H       -3.4648550    -0.0903210     0.0000040
units angstrom
no_reorient  #important for SAPT in psi4, default
symmetry c1  #important for SAPT in psi4, default
}

set PROPERTIES_ORIGIN ["COM"]
properties('MP2/aug-cc-pvtz', properties = ['dipole'])
--------------------------------------------------------------------------

    Molecular point group: c1
  Charge       = 0
  Multiplicity = 1
  Basis Set: AUG-CC-PVTZ
    Blend: AUG-CC-PVTZ
  Basis Set: (AUG-CC-PVTZ AUX)
    Blend: AUG-CC-PVTZ-JKFIT

    Orbital Energies [Eh]
    ---------------------

    Doubly Occupied:

       1A    -15.605744     2A    -11.273196     3A    -11.267155
       4A    -11.233579     5A    -11.231707     6A    -11.230420
       7A    -11.227286     8A    -11.222496     9A    -11.218837
      10A     -1.296292    11A     -1.128458    12A     -1.056012
      13A     -0.996434    14A     -0.974295    15A     -0.842204
      16A     -0.806204    17A     -0.788440    18A     -0.727246
      19A     -0.661787    20A     -0.647283    21A     -0.601769
      22A     -0.595294    23A     -0.584065    24A     -0.574321
      25A     -0.550012    26A     -0.507712    27A     -0.482638
      28A     -0.464800    29A     -0.386070    30A     -0.301510
      31A     -0.283003

  @DF-RHF Final Energy:  -361.58911204010076

   => Energetics <=

    Nuclear Repulsion Energy =            399.9982320126540003
    One-Electron Energy =               -1281.6421480102212627
    Two-Electron Energy =                 520.0548039574665609
    Total Energy =                       -361.5891120401007583
  Basis Set: (AUG-CC-PVTZ AUX)
    Blend: AUG-CC-PVTZ-RI
    Molecular point group: c1

    Geometry (in Angstrom), charge = 0, multiplicity = 1:

       Center              X                  Y                   Z               Mass
    ------------   -----------------  -----------------  -----------------  -----------------
         N           -1.556519098056    -1.078621292705    -0.000428618349    14.003074004430
         C            0.988043901944     1.431914707295    -0.000430618349    12.000000000000
         C            2.162037901944     0.692243707295    -0.000428618349    12.000000000000
         C            2.139307901944    -0.720307292705    -0.000435618349    12.000000000000
         C            0.941013901944    -1.422060292705    -0.000430618349    12.000000000000
         C           -0.241556098056    -0.670669292705    -0.000430618349    12.000000000000
         C           -0.245624098056     0.752853707295    -0.000415618349    12.000000000000
         C           -1.614085098056     1.168144707295    -0.000438618349    12.000000000000
         C           -2.381954098056     0.026579707295    -0.000435618349    12.000000000000
         H            1.018776901944     2.520048707295    -0.000425618349     1.007825032230
         H            3.120634001944     1.206007607295     0.049564381651     1.007825032230
         H            3.078460901944    -1.268785292705    -0.000435618349     1.007825032230
         H            0.924947901944    -2.510523292705    -0.000434618349     1.007825032230
         H           -1.990886098056     2.183093707295    -0.000443618349     1.007825032230
         H           -1.870307098056    -2.039923292705    -0.000412618349     1.007825032230
         H           -3.458228098056    -0.090297292705    -0.000426618349     1.007825032230

  Basis Set: AUG-CC-PVTZ
    Blend: AUG-CC-PVTZ
  Basis Set: (AUG-CC-PVTZ AUX)
    Blend: AUG-CC-PVTZ-JKFIT
	 Reference Energy          =    -361.5891120401007583 [Eh]
	 Singles Energy            =      -0.0000000000000000 [Eh]
	 Same-Spin Energy          =      -0.4079844939029160 [Eh]
	 Opposite-Spin Energy      =      -1.2478986601601365 [Eh]
	 Correlation Energy        =      -1.6558831540630525 [Eh]
	 Total Energy              =    -363.2449951941638346 [Eh]

	 ================> DF-SCS-MP2 Energies <==================
	-----------------------------------------------------------
	 SCS Same-Spin Scale       =       0.3333333333333333 [-]
	 SCS Opposite-Spin Scale   =       1.2000000000000000 [-]
	 SCS Same-Spin Energy      =      -0.1359948313009720 [Eh]
	 SCS Opposite-Spin Energy  =      -1.4974783921921637 [Eh]
	 SCS Correlation Energy    =      -1.6334732234931357 [Eh]
	 SCS Total Energy          =    -363.2225852635938850 [Eh]
	-----------------------------------------------------------

  Dipole Moment: [D]
     X:    -1.4882      Y:    -1.5479      Z:     0.0325     Total:     2.1475

*** Psi4 exiting successfully. Buy a developer a beer!
