                               Psi4 1.3.2 release

  ==> Input File <==

--------------------------------------------------------------------------
#psi4
#
memory 32 gb

molecule  {
0 1
  N       -1.5631460    -1.0786450     0.0000020
  C        0.9814170     1.4318910     0.0000000
  C        2.1554110     0.6922200     0.0000020
  C        2.1326810    -0.7203310    -0.0000050
  C        0.9343870    -1.4220840     0.0000000
  C       -0.2481830    -0.6706930     0.0000000
  C       -0.2522510     0.7528300     0.0000150
  C       -1.6207120     1.1681210    -0.0000080
  C       -2.3885810     0.0265560    -0.0000050
  H        1.0121500     2.5200250     0.0000050
  H        3.1140070     1.2059840    -0.0000050
  H        3.0718340    -1.2688090    -0.0000050
  H        0.9183210    -2.5105470    -0.0000040
  H       -1.9975130     2.1830700    -0.0000130
  H       -1.8769336    -2.0399436     0.3000180
  H       -3.4648550    -0.0903210     0.0000040
units angstrom
no_reorient  #important for SAPT in psi4, default
symmetry c1  #important for SAPT in psi4, default
}

set PROPERTIES_ORIGIN ["COM"]
properties('MP2/aug-cc-pvtz', properties = ['dipole'])
--------------------------------------------------------------------------

    Molecular point group: c1
  Charge       = 0
  Multiplicity = 1
  Basis Set: AUG-CC-PVTZ
    Blend: AUG-CC-PVTZ
  Basis Set: (AUG-CC-PVTZ AUX)
    Blend: AUG-CC-PVTZ-JKFIT

    Orbital Energies [Eh]
    ---------------------

    Doubly Occupied:

       1A    -15.607433     2A    -11.272587     3A    -11.266612
       4A    -11.233735     5A    -11.231898     6A    -11.230602
       7A    -11.227799     8A    -11.222924     9A    -11.219722
      10A     -1.293591    11A     -1.127904    12A     -1.054260
      13A     -0.995122    14A     -0.973914    15A     -0.841115
      16A     -0.801336    17A     -0.786750    18A     -0.722696
      19A     -0.661241    20A     -0.647580    21A     -0.604341
      22A     -0.596175    23A     -0.579536    24A     -0.570428
      25A     -0.549834    26A     -0.508052    27A     -0.482795
      28A     -0.464388    29A     -0.386315    30A     -0.302320
      31A     -0.283527

  @DF-RHF Final Energy:  -361.58508205865036

   => Energetics <=

    Nuclear Repulsion Energy =            399.7996921220188824
    One-Electron Energy =               -1281.2764854012029900
    Two-Electron Energy =                 519.8917112205338071
    Total Energy =                       -361.5850820586503005
  Basis Set: (AUG-CC-PVTZ AUX)
    Blend: AUG-CC-PVTZ-RI
    Molecular point group: c1

    Geometry (in Angstrom), charge = 0, multiplicity = 1:

       Center              X                  Y                   Z               Mass
    ------------   -----------------  -----------------  -----------------  -----------------
         N           -1.556519100639    -1.078621322839    -0.002581026408    14.003074004430
         C            0.988043899361     1.431914677161    -0.002583026408    12.000000000000
         C            2.162037899361     0.692243677161    -0.002581026408    12.000000000000
         C            2.139307899361    -0.720307322839    -0.002588026408    12.000000000000
         C            0.941013899361    -1.422060322839    -0.002583026408    12.000000000000
         C           -0.241556100639    -0.670669322839    -0.002583026408    12.000000000000
         C           -0.245624100639     0.752853677161    -0.002568026408    12.000000000000
         C           -1.614085100639     1.168144677161    -0.002591026408    12.000000000000
         C           -2.381954100639     0.026579677161    -0.002588026408    12.000000000000
         H            1.018776899361     2.520048677161    -0.002578026408     1.007825032230
         H            3.120633899361     1.206007677161    -0.002588026408     1.007825032230
         H            3.078460899361    -1.268785322839    -0.002588026408     1.007825032230
         H            0.924947899361    -2.510523322839    -0.002587026408     1.007825032230
         H           -1.990886100639     2.183093677161    -0.002596026408     1.007825032230
         H           -1.870306700639    -2.039919922839     0.297434973592     1.007825032230
         H           -3.458228100639    -0.090297322839    -0.002579026408     1.007825032230

  Basis Set: AUG-CC-PVTZ
    Blend: AUG-CC-PVTZ
  Basis Set: (AUG-CC-PVTZ AUX)
    Blend: AUG-CC-PVTZ-JKFIT
	 Reference Energy          =    -361.5850820586503573 [Eh]
	 Singles Energy            =      -0.0000000000000000 [Eh]
	 Same-Spin Energy          =      -0.4082087623235880 [Eh]
	 Opposite-Spin Energy      =      -1.2486028602446906 [Eh]
	 Correlation Energy        =      -1.6568116225682785 [Eh]
	 Total Energy              =    -363.2418936812186416 [Eh]

	 ================> DF-SCS-MP2 Energies <==================
	-----------------------------------------------------------
	 SCS Same-Spin Scale       =       0.3333333333333333 [-]
	 SCS Opposite-Spin Scale   =       1.2000000000000000 [-]
	 SCS Same-Spin Energy      =      -0.1360695874411960 [Eh]
	 SCS Opposite-Spin Energy  =      -1.4983234322936287 [Eh]
	 SCS Correlation Energy    =      -1.6343930197348246 [Eh]
	 SCS Total Energy          =    -363.2194750783851873 [Eh]
	-----------------------------------------------------------

  Dipole Moment: [D]
     X:    -1.4379      Y:    -1.4745      Z:     0.4186     Total:     2.1017

*** Psi4 exiting successfully. Buy a developer a beer!
