                               Psi4 1.3.2 release

  ==> Input File <==

--------------------------------------------------------------------------
#psi4
#
memory 32 gb

molecule  {
0 1
  N       -1.5631460    -1.0786450     0.0000020
  C        0.9814170     1.4318910     0.0000000
  C        2.1554110     0.6922200     0.0000020
  C        2.1326810    -0.7203310    -0.0000050
  C        0.9343870    -1.4220840     0.0000000
  C       -0.2481830    -0.6706930     0.0000000
  C       -0.2522510     0.7528300     0.0000150
  C       -1.6207113     1.1681206    -0.2000080
  C       -2.3885810     0.0265560    -0.0000050
  H        1.0121500     2.5200250     0.0000050
  H        3.1140070     1.2059840    -0.0000050
  H        3.0718340    -1.2688090    -0.0000050
  H        0.9183210    -2.5105470    -0.0000040
  H       -1.9975130     2.1830700    -0.0000130
  H       -1.8769340    -2.0399470     0.0000180
  H       -3.4648550    -0.0903210     0.0000040
units angstrom
no_reorient  #important for SAPT in psi4, default
symmetry c1  #important for SAPT in psi4, default
}

set PROPERTIES_ORIGIN ["COM"]
properties('MP2/aug-cc-pvtz', properties = ['dipole'])
--------------------------------------------------------------------------

    Molecular point group: c1
  Charge       = 0
  Multiplicity = 1
  Basis Set: AUG-CC-PVTZ
    Blend: AUG-CC-PVTZ
  Basis Set: (AUG-CC-PVTZ AUX)
    Blend: AUG-CC-PVTZ-JKFIT

    Orbital Energies [Eh]
    ---------------------

    Doubly Occupied:

       1A    -15.608067     2A    -11.278492     3A    -11.267625
       4A    -11.234065     5A    -11.231387     6A    -11.230608
       7A    -11.228735     8A    -11.222802     9A    -11.221864
      10A     -1.297259    11A     -1.128735    12A     -1.053797
      13A     -0.996761    14A     -0.973610    15A     -0.842676
      16A     -0.805104    17A     -0.787495    18A     -0.727615
      19A     -0.661310    20A     -0.647055    21A     -0.601116
      22A     -0.595577    23A     -0.586636    24A     -0.564645
      25A     -0.547684    26A     -0.507041    27A     -0.481782
      28A     -0.464186    29A     -0.385116    30A     -0.301851
      31A     -0.283496

  @DF-RHF Final Energy:  -361.57849133536274

   => Energetics <=

    Nuclear Repulsion Energy =            399.5581766730928166
    One-Electron Energy =               -1280.7449512395610327
    Two-Electron Energy =                 519.6082832311054744
    Total Energy =                       -361.5784913353627417
  Basis Set: (AUG-CC-PVTZ AUX)
    Blend: AUG-CC-PVTZ-RI
    Molecular point group: c1

    Geometry (in Angstrom), charge = 0, multiplicity = 1:

       Center              X                  Y                   Z               Mass
    ------------   -----------------  -----------------  -----------------  -----------------
         N           -1.556519168954    -1.078621252561     0.020504546473    14.003074004430
         C            0.988043831046     1.431914747439     0.020502546473    12.000000000000
         C            2.162037831046     0.692243747439     0.020504546473    12.000000000000
         C            2.139307831046    -0.720307252561     0.020497546473    12.000000000000
         C            0.941013831046    -1.422060252561     0.020502546473    12.000000000000
         C           -0.241556168954    -0.670669252561     0.020502546473    12.000000000000
         C           -0.245624168954     0.752853747439     0.020517546473    12.000000000000
         C           -1.614084468954     1.168144347439    -0.179505453527    12.000000000000
         C           -2.381954168954     0.026579747439     0.020497546473    12.000000000000
         H            1.018776831046     2.520048747439     0.020507546473     1.007825032230
         H            3.120633831046     1.206007747439     0.020497546473     1.007825032230
         H            3.078460831046    -1.268785252561     0.020497546473     1.007825032230
         H            0.924947831046    -2.510523252561     0.020498546473     1.007825032230
         H           -1.990886168954     2.183093747439     0.020489546473     1.007825032230
         H           -1.870307168954    -2.039923252561     0.020520546473     1.007825032230
         H           -3.458228168954    -0.090297252561     0.020506546473     1.007825032230

  Basis Set: AUG-CC-PVTZ
    Blend: AUG-CC-PVTZ
  Basis Set: (AUG-CC-PVTZ AUX)
    Blend: AUG-CC-PVTZ-JKFIT
	 Reference Energy          =    -361.5784913353627417 [Eh]
	 Singles Energy            =      -0.0000000000000000 [Eh]
	 Same-Spin Energy          =      -0.4085055714573623 [Eh]
	 Opposite-Spin Energy      =      -1.2492833007960416 [Eh]
	 Correlation Energy        =      -1.6577888722534038 [Eh]
	 Total Energy              =    -363.2362802076161188 [Eh]

	 ================> DF-SCS-MP2 Energies <==================
	-----------------------------------------------------------
	 SCS Same-Spin Scale       =       0.3333333333333333 [-]
	 SCS Opposite-Spin Scale   =       1.2000000000000000 [-]
	 SCS Same-Spin Energy      =      -0.1361685238191208 [Eh]
	 SCS Opposite-Spin Energy  =      -1.4991399609552498 [Eh]
	 SCS Correlation Energy    =      -1.6353084847743706 [Eh]
	 SCS Total Energy          =    -363.2137998201371261 [Eh]
	-----------------------------------------------------------

  Dipole Moment: [D]
     X:    -1.4219      Y:    -1.6414      Z:     0.2120     Total:     2.1819

*** Psi4 exiting successfully. Buy a developer a beer!
