                               Psi4 1.3.2 release

  ==> Input File <==

--------------------------------------------------------------------------
#psi4
#
memory 32 gb

molecule  {
0 1
  F        0.9463590     1.6328250    -0.0000060
  O       -1.4337610     0.6405030     0.0000000
  O       -0.7019790    -1.5172570    -0.0000080
  C        0.8874440     0.2587590    -0.0000040
  C        1.9567240    -0.4715930    -0.7531570
  C        1.9567160    -0.4715890     0.7531700
  C       -0.5794653    -0.3521556    -0.0000051
  C       -2.7814420     0.1202980     0.0000060
  H        2.6839580     0.1584250    -1.2535400
  H        1.6654270    -1.3795450    -1.2692510
  H        1.6654180    -1.3795360     1.2692720
  H        2.6839450     0.1584310     1.2535580
  H       -3.4198550     1.0009170     0.0000120
  H       -2.9519650    -0.4865460     0.8901010
  H       -2.9519750    -0.4865410    -0.8900910
units angstrom
no_reorient  #important for SAPT in psi4, default
symmetry c1  #important for SAPT in psi4, default
}

set PROPERTIES_ORIGIN ["COM"]
properties('MP2/aug-cc-pvtz', properties = ['dipole'])
--------------------------------------------------------------------------

    Molecular point group: c1
  Charge       = 0
  Multiplicity = 1
  Basis Set: AUG-CC-PVTZ
    Blend: AUG-CC-PVTZ
  Basis Set: (AUG-CC-PVTZ AUX)
    Blend: AUG-CC-PVTZ-JKFIT

    Orbital Energies [Eh]
    ---------------------

    Doubly Occupied:

       1A    -26.290548     2A    -20.626497     3A    -20.560788
       4A    -11.393783     5A    -11.331216     6A    -11.297754
       7A    -11.243892     8A    -11.243221     9A     -1.601895
      10A     -1.492781    11A     -1.402406    12A     -1.158633
      13A     -0.999687    14A     -0.869151    15A     -0.847017
      16A     -0.788189    17A     -0.758193    18A     -0.708581
      19A     -0.696407    20A     -0.679524    21A     -0.669088
      22A     -0.647983    23A     -0.622983    24A     -0.583228
      25A     -0.575646    26A     -0.552827    27A     -0.530394
      28A     -0.489927    29A     -0.487037    30A     -0.427642
      31A     -0.425733

  @DF-RHF Final Energy:  -442.70849136525823

   => Energetics <=

    Nuclear Repulsion Energy =            390.6333884861045362
    One-Electron Energy =               -1382.6784559306572646
    Two-Electron Energy =                 549.3365760792945593
    Total Energy =                       -442.7084913652581690
  Basis Set: (AUG-CC-PVTZ AUX)
    Blend: AUG-CC-PVTZ-RI
    Molecular point group: c1

    Geometry (in Angstrom), charge = 0, multiplicity = 1:

       Center              X                  Y                   Z               Mass
    ------------   -----------------  -----------------  -----------------  -----------------
         F            0.942393383861     1.602591888994    -0.000005477543    18.998403162730
         O           -1.437726616139     0.610269888994     0.000000522457    15.994914619570
         O           -0.705944616139    -1.547490111006    -0.000007477543    15.994914619570
         C            0.883478383861     0.228525888994    -0.000003477543    12.000000000000
         C            1.952758383861    -0.501826111006    -0.753156477543    12.000000000000
         C            1.952750383861    -0.501822111006     0.753170522457    12.000000000000
         C           -0.583430916139    -0.382388711006    -0.000004577543    12.000000000000
         C           -2.785407616139     0.090064888994     0.000006522457    12.000000000000
         H            2.679992383861     0.128191888994    -1.253539477543     1.007825032230
         H            1.661461383861    -1.409778111006    -1.269250477543     1.007825032230
         H            1.661452383861    -1.409769111006     1.269272522457     1.007825032230
         H            2.679979383861     0.128197888994     1.253558522457     1.007825032230
         H           -3.423820616139     0.970683888994     0.000012522457     1.007825032230
         H           -2.955930616139    -0.516779111006     0.890101522457     1.007825032230
         H           -2.955940616139    -0.516774111006    -0.890090477543     1.007825032230

  Basis Set: AUG-CC-PVTZ
    Blend: AUG-CC-PVTZ
  Basis Set: (AUG-CC-PVTZ AUX)
    Blend: AUG-CC-PVTZ-JKFIT
	 Reference Energy          =    -442.7084913652582259 [Eh]
	 Singles Energy            =      -0.0000000000000000 [Eh]
	 Same-Spin Energy          =      -0.4137457233024369 [Eh]
	 Opposite-Spin Energy      =      -1.2872089103783999 [Eh]
	 Correlation Energy        =      -1.7009546336808368 [Eh]
	 Total Energy              =    -444.4094459989390771 [Eh]

	 ================> DF-SCS-MP2 Energies <==================
	-----------------------------------------------------------
	 SCS Same-Spin Scale       =       0.3333333333333333 [-]
	 SCS Opposite-Spin Scale   =       1.2000000000000000 [-]
	 SCS Same-Spin Energy      =      -0.1379152411008123 [Eh]
	 SCS Opposite-Spin Energy  =      -1.5446506924540799 [Eh]
	 SCS Correlation Energy    =      -1.6825659335548921 [Eh]
	 SCS Total Energy          =    -444.3910572988131094 [Eh]
	-----------------------------------------------------------

  Dipole Moment: [D]
     X:    -0.9594      Y:    -0.2777      Z:     0.0000     Total:     0.9988

*** Psi4 exiting successfully. Buy a developer a beer!
