                               Psi4 1.3.2 release

  ==> Input File <==

--------------------------------------------------------------------------
#psi4
#
memory 32 gb

molecule  {
0 1
  F        0.9463590     1.6328250    -0.0000060
  O       -1.4337610     0.6405030     0.0000000
  O       -0.7019790    -1.5172570    -0.0000080
  C        0.8874440     0.2587590    -0.0000040
  C        1.9567240    -0.4715930    -0.7531570
  C        1.9567160    -0.4715890     0.7531700
  C       -0.3025223    -0.2368188    -0.0000049
  C       -2.7814420     0.1202980     0.0000060
  H        2.6839580     0.1584250    -1.2535400
  H        1.6654270    -1.3795450    -1.2692510
  H        1.6654180    -1.3795360     1.2692720
  H        2.6839450     0.1584310     1.2535580
  H       -3.4198550     1.0009170     0.0000120
  H       -2.9519650    -0.4865460     0.8901010
  H       -2.9519750    -0.4865410    -0.8900910
units angstrom
no_reorient  #important for SAPT in psi4, default
symmetry c1  #important for SAPT in psi4, default
}

set PROPERTIES_ORIGIN ["COM"]
properties('MP2/aug-cc-pvtz', properties = ['dipole'])
--------------------------------------------------------------------------

    Molecular point group: c1
  Charge       = 0
  Multiplicity = 1
  Basis Set: AUG-CC-PVTZ
    Blend: AUG-CC-PVTZ
  Basis Set: (AUG-CC-PVTZ AUX)
    Blend: AUG-CC-PVTZ-JKFIT

    Orbital Energies [Eh]
    ---------------------

    Doubly Occupied:

       1A    -26.313700     2A    -20.596165     3A    -20.536493
       4A    -11.403333     5A    -11.347391     6A    -11.280278
       7A    -11.279165     8A    -11.278474     9A     -1.627736
      10A     -1.409801    11A     -1.294674    12A     -1.206023
      13A     -1.029625    14A     -0.923995    15A     -0.878927
      16A     -0.795498    17A     -0.740043    18A     -0.720428
      19A     -0.701861    20A     -0.655938    21A     -0.647659
      22A     -0.644223    23A     -0.622192    24A     -0.593221
      25A     -0.569757    26A     -0.535844    27A     -0.510292
      28A     -0.483968    29A     -0.459892    30A     -0.441227
      31A     -0.426082

  @DF-RHF Final Energy:  -442.63749730293466

   => Energetics <=

    Nuclear Repulsion Energy =            391.0019104824892224
    One-Electron Energy =               -1383.3709999277230054
    Two-Electron Energy =                 549.7315921422991778
    Total Energy =                       -442.6374973029346620
  Basis Set: (AUG-CC-PVTZ AUX)
    Blend: AUG-CC-PVTZ-RI
    Molecular point group: c1

    Geometry (in Angstrom), charge = 0, multiplicity = 1:

       Center              X                  Y                   Z               Mass
    ------------   -----------------  -----------------  -----------------  -----------------
         F            0.914239950068     1.590866996280    -0.000005497874    18.998403162730
         O           -1.465880049932     0.598544996280     0.000000502126    15.994914619570
         O           -0.734098049932    -1.559215003720    -0.000007497874    15.994914619570
         C            0.855324950068     0.216800996280    -0.000003497874    12.000000000000
         C            1.924604950068    -0.513551003720    -0.753156497874    12.000000000000
         C            1.924596950068    -0.513547003720     0.753170502126    12.000000000000
         C           -0.334641349932    -0.278776803720    -0.000004397874    12.000000000000
         C           -2.813561049932     0.078339996280     0.000006502126    12.000000000000
         H            2.651838950068     0.116466996280    -1.253539497874     1.007825032230
         H            1.633307950068    -1.421503003720    -1.269250497874     1.007825032230
         H            1.633298950068    -1.421494003720     1.269272502126     1.007825032230
         H            2.651825950068     0.116472996280     1.253558502126     1.007825032230
         H           -3.451974049932     0.958958996280     0.000012502126     1.007825032230
         H           -2.984084049932    -0.528504003720     0.890101502126     1.007825032230
         H           -2.984094049932    -0.528499003720    -0.890090497874     1.007825032230

  Basis Set: AUG-CC-PVTZ
    Blend: AUG-CC-PVTZ
  Basis Set: (AUG-CC-PVTZ AUX)
    Blend: AUG-CC-PVTZ-JKFIT
	 Reference Energy          =    -442.6374973029346620 [Eh]
	 Singles Energy            =      -0.0000000000000000 [Eh]
	 Same-Spin Energy          =      -0.4209093902232866 [Eh]
	 Opposite-Spin Energy      =      -1.3005571867381398 [Eh]
	 Correlation Energy        =      -1.7214665769614264 [Eh]
	 Total Energy              =    -444.3589638798960664 [Eh]

	 ================> DF-SCS-MP2 Energies <==================
	-----------------------------------------------------------
	 SCS Same-Spin Scale       =       0.3333333333333333 [-]
	 SCS Opposite-Spin Scale   =       1.2000000000000000 [-]
	 SCS Same-Spin Energy      =      -0.1403031300744289 [Eh]
	 SCS Opposite-Spin Energy  =      -1.5606686240857677 [Eh]
	 SCS Correlation Energy    =      -1.7009717541601965 [Eh]
	 SCS Total Energy          =    -444.3384690570948692 [Eh]
	-----------------------------------------------------------

  Dipole Moment: [D]
     X:     1.3259      Y:     0.0698      Z:     0.0000     Total:     1.3277

*** Psi4 exiting successfully. Buy a developer a beer!
