                               Psi4 1.3.2 release

  ==> Input File <==

--------------------------------------------------------------------------
#psi4
#
memory 32 gb

molecule  {
0 1
  F        0.9463590     1.6328250    -0.0000060
  O       -1.4337610     0.6405030     0.0000000
  O       -0.6175005    -1.5293109    -0.0000081
  C        0.8874440     0.2587590    -0.0000040
  C        1.9567240    -0.4715930    -0.7531570
  C        1.9567160    -0.4715890     0.7531700
  C       -0.4871510    -0.3137100    -0.0000050
  C       -2.7814420     0.1202980     0.0000060
  H        2.6839580     0.1584250    -1.2535400
  H        1.6654270    -1.3795450    -1.2692510
  H        1.6654180    -1.3795360     1.2692720
  H        2.6839450     0.1584310     1.2535580
  H       -3.4198550     1.0009170     0.0000120
  H       -2.9519650    -0.4865460     0.8901010
  H       -2.9519750    -0.4865410    -0.8900910
units angstrom
no_reorient  #important for SAPT in psi4, default
symmetry c1  #important for SAPT in psi4, default
}

set PROPERTIES_ORIGIN ["COM"]
properties('MP2/aug-cc-pvtz', properties = ['dipole'])
--------------------------------------------------------------------------

    Molecular point group: c1
  Charge       = 0
  Multiplicity = 1
  Basis Set: AUG-CC-PVTZ
    Blend: AUG-CC-PVTZ
  Basis Set: (AUG-CC-PVTZ AUX)
    Blend: AUG-CC-PVTZ-JKFIT

    Orbital Energies [Eh]
    ---------------------

    Doubly Occupied:

       1A    -26.295503     2A    -20.622144     3A    -20.554535
       4A    -11.397524     5A    -11.335675     6A    -11.295433
       7A    -11.250993     8A    -11.250318     9A     -1.607901
      10A     -1.466353    11A     -1.370756    12A     -1.168899
      13A     -1.001338    14A     -0.892570    15A     -0.853803
      16A     -0.782316    17A     -0.759181    18A     -0.708417
      19A     -0.688639    20A     -0.669683    21A     -0.668931
      22A     -0.645257    23A     -0.626993    24A     -0.588118
      25A     -0.568005    26A     -0.543991    27A     -0.532997
      28A     -0.483390    29A     -0.476222    30A     -0.442063
      31A     -0.432013

  @DF-RHF Final Energy:  -442.71373181813181

   => Energetics <=

    Nuclear Repulsion Energy =            390.8333570667434174
    One-Electron Energy =               -1383.1342557646789828
    Two-Electron Energy =                 549.5871668798037035
    Total Energy =                       -442.7137318181318051
  Basis Set: (AUG-CC-PVTZ AUX)
    Blend: AUG-CC-PVTZ-RI
    Molecular point group: c1

    Geometry (in Angstrom), charge = 0, multiplicity = 1:

       Center              X                  Y                   Z               Mass
    ------------   -----------------  -----------------  -----------------  -----------------
         F            0.921562010245     1.600316903765    -0.000005474159    18.998403162730
         O           -1.458557989755     0.607994903765     0.000000525841    15.994914619570
         O           -0.642297489755    -1.561818996235    -0.000007574159    15.994914619570
         C            0.862647010245     0.226250903765    -0.000003474159    12.000000000000
         C            1.931927010245    -0.504101096235    -0.753156474159    12.000000000000
         C            1.931919010245    -0.504097096235     0.753170525841    12.000000000000
         C           -0.511947989755    -0.346218096235    -0.000004474159    12.000000000000
         C           -2.806238989755     0.087789903765     0.000006525841    12.000000000000
         H            2.659161010245     0.125916903765    -1.253539474159     1.007825032230
         H            1.640630010245    -1.412053096235    -1.269250474159     1.007825032230
         H            1.640621010245    -1.412044096235     1.269272525841     1.007825032230
         H            2.659148010245     0.125922903765     1.253558525841     1.007825032230
         H           -3.444651989755     0.968408903765     0.000012525841     1.007825032230
         H           -2.976761989755    -0.519054096235     0.890101525841     1.007825032230
         H           -2.976771989755    -0.519049096235    -0.890090474159     1.007825032230

  Basis Set: AUG-CC-PVTZ
    Blend: AUG-CC-PVTZ
  Basis Set: (AUG-CC-PVTZ AUX)
    Blend: AUG-CC-PVTZ-JKFIT
	 Reference Energy          =    -442.7137318181318051 [Eh]
	 Singles Energy            =      -0.0000000000000000 [Eh]
	 Same-Spin Energy          =      -0.4151209773936031 [Eh]
	 Opposite-Spin Energy      =      -1.2898652286437595 [Eh]
	 Correlation Energy        =      -1.7049862060373626 [Eh]
	 Total Energy              =    -444.4187180241691522 [Eh]

	 ================> DF-SCS-MP2 Energies <==================
	-----------------------------------------------------------
	 SCS Same-Spin Scale       =       0.3333333333333333 [-]
	 SCS Opposite-Spin Scale   =       1.2000000000000000 [-]
	 SCS Same-Spin Energy      =      -0.1383736591312010 [Eh]
	 SCS Opposite-Spin Energy  =      -1.5478382743725114 [Eh]
	 SCS Correlation Energy    =      -1.6862119335037125 [Eh]
	 SCS Total Energy          =    -444.3999437516355329 [Eh]
	-----------------------------------------------------------

  Dipole Moment: [D]
     X:    -0.5007      Y:    -0.1294      Z:     0.0000     Total:     0.5172

*** Psi4 exiting successfully. Buy a developer a beer!
