                               Psi4 1.3.2 release

  ==> Input File <==

--------------------------------------------------------------------------
#psi4
#
memory 32 gb

molecule  {
0 1
  F        0.9463590     1.6328250    -0.0000060
  O       -1.4337610     0.6405030     0.0000000
  O       -0.5749972    -1.5331195    -0.0000081
  C        0.8874440     0.2587590    -0.0000040
  C        1.9567240    -0.4715930    -0.7531570
  C        1.9567160    -0.4715890     0.7531700
  C       -0.4871510    -0.3137100    -0.0000050
  C       -2.7814420     0.1202980     0.0000060
  H        2.6839580     0.1584250    -1.2535400
  H        1.6654270    -1.3795450    -1.2692510
  H        1.6654180    -1.3795360     1.2692720
  H        2.6839450     0.1584310     1.2535580
  H       -3.4198550     1.0009170     0.0000120
  H       -2.9519650    -0.4865460     0.8901010
  H       -2.9519750    -0.4865410    -0.8900910
units angstrom
no_reorient  #important for SAPT in psi4, default
symmetry c1  #important for SAPT in psi4, default
}

set PROPERTIES_ORIGIN ["COM"]
properties('MP2/aug-cc-pvtz', properties = ['dipole'])
--------------------------------------------------------------------------

    Molecular point group: c1
  Charge       = 0
  Multiplicity = 1
  Basis Set: AUG-CC-PVTZ
    Blend: AUG-CC-PVTZ
  Basis Set: (AUG-CC-PVTZ AUX)
    Blend: AUG-CC-PVTZ-JKFIT

    Orbital Energies [Eh]
    ---------------------

    Doubly Occupied:

       1A    -26.293751     2A    -20.624842     3A    -20.555063
       4A    -11.397943     5A    -11.333373     6A    -11.297116
       7A    -11.249403     8A    -11.248728     9A     -1.606387
      10A     -1.466742    11A     -1.373670    12A     -1.166868
      13A     -1.002199    14A     -0.892045    15A     -0.852387
      16A     -0.782372    17A     -0.759173    18A     -0.707880
      19A     -0.688642    20A     -0.669773    21A     -0.668755
      22A     -0.645005    23A     -0.625966    24A     -0.587798
      25A     -0.569300    26A     -0.545758    27A     -0.531874
      28A     -0.482723    29A     -0.477638    30A     -0.440691
      31A     -0.430292

  @DF-RHF Final Energy:  -442.71172905895742

   => Energetics <=

    Nuclear Repulsion Energy =            390.9907189566246757
    One-Electron Energy =               -1383.4565874925426670
    Two-Electron Energy =                 549.7541394769605176
    Total Energy =                       -442.7117290589574168
  Basis Set: (AUG-CC-PVTZ AUX)
    Blend: AUG-CC-PVTZ-RI
    Molecular point group: c1

    Geometry (in Angstrom), charge = 0, multiplicity = 1:

       Center              X                  Y                   Z               Mass
    ------------   -----------------  -----------------  -----------------  -----------------
         F            0.915802781738     1.600832971875    -0.000005474159    18.998403162730
         O           -1.464317218262     0.608510971875     0.000000525841    15.994914619570
         O           -0.605553418262    -1.565111528125    -0.000007574159    15.994914619570
         C            0.856887781738     0.226766971875    -0.000003474159    12.000000000000
         C            1.926167781738    -0.503585028125    -0.753156474159    12.000000000000
         C            1.926159781738    -0.503581028125     0.753170525841    12.000000000000
         C           -0.517707218262    -0.345702028125    -0.000004474159    12.000000000000
         C           -2.811998218262     0.088305971875     0.000006525841    12.000000000000
         H            2.653401781738     0.126432971875    -1.253539474159     1.007825032230
         H            1.634870781738    -1.411537028125    -1.269250474159     1.007825032230
         H            1.634861781738    -1.411528028125     1.269272525841     1.007825032230
         H            2.653388781738     0.126438971875     1.253558525841     1.007825032230
         H           -3.450411218262     0.968924971875     0.000012525841     1.007825032230
         H           -2.982521218262    -0.518538028125     0.890101525841     1.007825032230
         H           -2.982531218262    -0.518533028125    -0.890090474159     1.007825032230

  Basis Set: AUG-CC-PVTZ
    Blend: AUG-CC-PVTZ
  Basis Set: (AUG-CC-PVTZ AUX)
    Blend: AUG-CC-PVTZ-JKFIT
	 Reference Energy          =    -442.7117290589574168 [Eh]
	 Singles Energy            =      -0.0000000000000000 [Eh]
	 Same-Spin Energy          =      -0.4152321373542466 [Eh]
	 Opposite-Spin Energy      =      -1.2901083890798926 [Eh]
	 Correlation Energy        =      -1.7053405264341390 [Eh]
	 Total Energy              =    -444.4170695853915731 [Eh]

	 ================> DF-SCS-MP2 Energies <==================
	-----------------------------------------------------------
	 SCS Same-Spin Scale       =       0.3333333333333333 [-]
	 SCS Opposite-Spin Scale   =       1.2000000000000000 [-]
	 SCS Same-Spin Energy      =      -0.1384107124514155 [Eh]
	 SCS Opposite-Spin Energy  =      -1.5481300668958711 [Eh]
	 SCS Correlation Energy    =      -1.6865407793472866 [Eh]
	 SCS Total Energy          =    -444.3982698383047136 [Eh]
	-----------------------------------------------------------

  Dipole Moment: [D]
     X:    -0.6472      Y:    -0.1326      Z:     0.0000     Total:     0.6606

*** Psi4 exiting successfully. Buy a developer a beer!
