                               Psi4 1.3.2 release

  ==> Input File <==

--------------------------------------------------------------------------
#psi4
#
memory 32 gb

molecule  {
0 1
  F        0.9463590     1.6328250    -0.0000060
  O       -1.4337610     0.6405030     0.0000000
  O       -0.7019790    -1.5172570    -0.0000080
  C        0.8874440     0.2587590    -0.0000040
  C        1.8846128    -0.5426088    -0.7794122
  C        1.9567160    -0.4715890     0.7531700
  C       -0.4871510    -0.3137100    -0.0000050
  C       -2.7814420     0.1202980     0.0000060
  H        2.6839580     0.1584250    -1.2535400
  H        1.6654270    -1.3795450    -1.2692510
  H        1.6654180    -1.3795360     1.2692720
  H        2.6839450     0.1584310     1.2535580
  H       -3.4198550     1.0009170     0.0000120
  H       -2.9519650    -0.4865460     0.8901010
  H       -2.9519750    -0.4865410    -0.8900910
units angstrom
no_reorient  #important for SAPT in psi4, default
symmetry c1  #important for SAPT in psi4, default
}

set PROPERTIES_ORIGIN ["COM"]
properties('MP2/aug-cc-pvtz', properties = ['dipole'])
--------------------------------------------------------------------------

    Molecular point group: c1
  Charge       = 0
  Multiplicity = 1
  Basis Set: AUG-CC-PVTZ
    Blend: AUG-CC-PVTZ
  Basis Set: (AUG-CC-PVTZ AUX)
    Blend: AUG-CC-PVTZ-JKFIT

    Orbital Energies [Eh]
    ---------------------

    Doubly Occupied:

       1A    -26.302508     2A    -20.616479     3A    -20.552967
       4A    -11.396062     5A    -11.343494     6A    -11.291837
       7A    -11.255626     8A    -11.254984     9A     -1.613251
      10A     -1.465932    11A     -1.364835    12A     -1.169767
      13A     -0.998906    14A     -0.892350    15A     -0.863077
      16A     -0.785363    17A     -0.758819    18A     -0.713734
      19A     -0.692151    20A     -0.671550    21A     -0.668643
      22A     -0.642055    23A     -0.634531    24A     -0.585267
      25A     -0.562854    26A     -0.540575    27A     -0.536776
      28A     -0.480300    29A     -0.474414    30A     -0.439502
      31A     -0.437274

  @DF-RHF Final Energy:  -442.70141293299520

   => Energetics <=

    Nuclear Repulsion Energy =            390.7665347930538928
    One-Electron Energy =               -1382.9241330523916531
    Two-Electron Energy =                 549.4561853263425064
    Total Energy =                       -442.7014129329952539
  Basis Set: (AUG-CC-PVTZ AUX)
    Blend: AUG-CC-PVTZ-RI
    Molecular point group: c1

    Geometry (in Angstrom), charge = 0, multiplicity = 1:

       Center              X                  Y                   Z               Mass
    ------------   -----------------  -----------------  -----------------  -----------------
         F            0.940339579871     1.605902905951     0.002663559839    18.998403162730
         O           -1.439780420129     0.613580905951     0.002669559839    15.994914619570
         O           -0.707998420129    -1.544179094049     0.002661559839    15.994914619570
         C            0.881424579871     0.231836905951     0.002665559839    12.000000000000
         C            1.878593379871    -0.569530894049    -0.776742640161    12.000000000000
         C            1.950696579871    -0.498511094049     0.755839559839    12.000000000000
         C           -0.493170420129    -0.340632094049     0.002664559839    12.000000000000
         C           -2.787461420129     0.093375905951     0.002675559839    12.000000000000
         H            2.677938579871     0.131502905951    -1.250870440161     1.007825032230
         H            1.659407579871    -1.406467094049    -1.266581440161     1.007825032230
         H            1.659398579871    -1.406458094049     1.271941559839     1.007825032230
         H            2.677925579871     0.131508905951     1.256227559839     1.007825032230
         H           -3.425874420129     0.973994905951     0.002681559839     1.007825032230
         H           -2.957984420129    -0.513468094049     0.892770559839     1.007825032230
         H           -2.957994420129    -0.513463094049    -0.887421440161     1.007825032230

  Basis Set: AUG-CC-PVTZ
    Blend: AUG-CC-PVTZ
  Basis Set: (AUG-CC-PVTZ AUX)
    Blend: AUG-CC-PVTZ-JKFIT
	 Reference Energy          =    -442.7014129329951970 [Eh]
	 Singles Energy            =      -0.0000000000000000 [Eh]
	 Same-Spin Energy          =      -0.4152658815728817 [Eh]
	 Opposite-Spin Energy      =      -1.2905968401429544 [Eh]
	 Correlation Energy        =      -1.7058627217158362 [Eh]
	 Total Energy              =    -444.4072756547110430 [Eh]

	 ================> DF-SCS-MP2 Energies <==================
	-----------------------------------------------------------
	 SCS Same-Spin Scale       =       0.3333333333333333 [-]
	 SCS Opposite-Spin Scale   =       1.2000000000000000 [-]
	 SCS Same-Spin Energy      =      -0.1384219605242939 [Eh]
	 SCS Opposite-Spin Energy  =      -1.5487162081715453 [Eh]
	 SCS Correlation Energy    =      -1.6871381686958391 [Eh]
	 SCS Total Energy          =    -444.3885511016910641 [Eh]
	-----------------------------------------------------------

  Dipole Moment: [D]
     X:    -0.2346      Y:    -0.1397      Z:     0.0153     Total:     0.2735

*** Psi4 exiting successfully. Buy a developer a beer!
