                               Psi4 1.3.2 release

  ==> Input File <==

--------------------------------------------------------------------------
#psi4
#
memory 32 gb

molecule  {
0 1
  F        0.8275387     1.6303786     0.0812328
  O       -1.4337610     0.6405030     0.0000000
  O       -0.7019790    -1.5172570    -0.0000080
  C        0.8874440     0.2587590    -0.0000040
  C        1.9567240    -0.4715930    -0.7531570
  C        1.9567160    -0.4715890     0.7531700
  C       -0.4871510    -0.3137100    -0.0000050
  C       -2.7814420     0.1202980     0.0000060
  H        2.6839580     0.1584250    -1.2535400
  H        1.6654270    -1.3795450    -1.2692510
  H        1.6654180    -1.3795360     1.2692720
  H        2.6839450     0.1584310     1.2535580
  H       -3.4198550     1.0009170     0.0000120
  H       -2.9519650    -0.4865460     0.8901010
  H       -2.9519750    -0.4865410    -0.8900910
units angstrom
no_reorient  #important for SAPT in psi4, default
symmetry c1  #important for SAPT in psi4, default
}

set PROPERTIES_ORIGIN ["COM"]
properties('MP2/aug-cc-pvtz', properties = ['dipole'])
--------------------------------------------------------------------------

    Molecular point group: c1
  Charge       = 0
  Multiplicity = 1
  Basis Set: AUG-CC-PVTZ
    Blend: AUG-CC-PVTZ
  Basis Set: (AUG-CC-PVTZ AUX)
    Blend: AUG-CC-PVTZ-JKFIT

    Orbital Energies [Eh]
    ---------------------

    Doubly Occupied:

       1A    -26.297923     2A    -20.614170     3A    -20.550608
       4A    -11.392693     5A    -11.340491     6A    -11.290427
       7A    -11.257484     8A    -11.253726     9A     -1.610570
      10A     -1.463318    11A     -1.362355    12A     -1.174094
      13A     -0.998275    14A     -0.893702    15A     -0.857486
      16A     -0.779293    17A     -0.756618    18A     -0.712141
      19A     -0.689592    20A     -0.669373    21A     -0.665882
      22A     -0.642088    23A     -0.631749    24A     -0.585986
      25A     -0.563923    26A     -0.537867    27A     -0.536050
      28A     -0.483953    29A     -0.471454    30A     -0.444412
      31A     -0.435654

  @DF-RHF Final Energy:  -442.71325813375330

   => Energetics <=

    Nuclear Repulsion Energy =            391.4650496081104620
    One-Electron Energy =               -1384.4299049778735480
    Two-Electron Energy =                 550.2515972360098431
    Total Energy =                       -442.7132581337532429
  Basis Set: (AUG-CC-PVTZ AUX)
    Blend: AUG-CC-PVTZ-RI
    Molecular point group: c1

    Geometry (in Angstrom), charge = 0, multiplicity = 1:

       Center              X                  Y                   Z               Mass
    ------------   -----------------  -----------------  -----------------  -----------------
         F            0.833312113613     1.596630926676     0.068158353377    18.998403162730
         O           -1.427987586387     0.606755326676    -0.013074446623    15.994914619570
         O           -0.696205586387    -1.551004673324    -0.013082446623    15.994914619570
         C            0.893217413613     0.225011326676    -0.013078446623    12.000000000000
         C            1.962497413613    -0.505340673324    -0.766231446623    12.000000000000
         C            1.962489413613    -0.505336673324     0.740095553377    12.000000000000
         C           -0.481377586387    -0.347457673324    -0.013079446623    12.000000000000
         C           -2.775668586387     0.086550326676    -0.013068446623    12.000000000000
         H            2.689731413613     0.124677326676    -1.266614446623     1.007825032230
         H            1.671200413613    -1.413292673324    -1.282325446623     1.007825032230
         H            1.671191413613    -1.413283673324     1.256197553377     1.007825032230
         H            2.689718413613     0.124683326676     1.240483553377     1.007825032230
         H           -3.414081586387     0.967169326676    -0.013062446623     1.007825032230
         H           -2.946191586387    -0.520293673324     0.877026553377     1.007825032230
         H           -2.946201586387    -0.520288673324    -0.903165446623     1.007825032230

  Basis Set: AUG-CC-PVTZ
    Blend: AUG-CC-PVTZ
  Basis Set: (AUG-CC-PVTZ AUX)
    Blend: AUG-CC-PVTZ-JKFIT
	 Reference Energy          =    -442.7132581337532997 [Eh]
	 Singles Energy            =      -0.0000000000000000 [Eh]
	 Same-Spin Energy          =      -0.4149963962987084 [Eh]
	 Opposite-Spin Energy      =      -1.2895366031492270 [Eh]
	 Correlation Energy        =      -1.7045329994479355 [Eh]
	 Total Energy              =    -444.4177911332012627 [Eh]

	 ================> DF-SCS-MP2 Energies <==================
	-----------------------------------------------------------
	 SCS Same-Spin Scale       =       0.3333333333333333 [-]
	 SCS Opposite-Spin Scale   =       1.2000000000000000 [-]
	 SCS Same-Spin Energy      =      -0.1383321320995695 [Eh]
	 SCS Opposite-Spin Energy  =      -1.5474439237790725 [Eh]
	 SCS Correlation Energy    =      -1.6857760558786419 [Eh]
	 SCS Total Energy          =    -444.3990341896319478 [Eh]
	-----------------------------------------------------------

  Dipole Moment: [D]
     X:    -0.0192      Y:    -0.1128      Z:    -0.0826     Total:     0.1411

*** Psi4 exiting successfully. Buy a developer a beer!
