                               Psi4 1.3.2 release

  ==> Input File <==

--------------------------------------------------------------------------
#psi4
#
memory 32 gb

molecule  {
0 1
  F        0.9463590     1.6328250    -0.0000060
  O       -1.4337610     0.6405030     0.0000000
  O       -0.7019790    -1.5172570    -0.0000080
  C        0.8874440     0.2587590    -0.0000040
  C        1.9567240    -0.4715930    -0.7531570
  C        1.9567160    -0.4715890     0.7531700
  C       -0.3948367    -0.2752644    -0.0000049
  C       -2.7814420     0.1202980     0.0000060
  H        2.6839580     0.1584250    -1.2535400
  H        1.6654270    -1.3795450    -1.2692510
  H        1.6654180    -1.3795360     1.2692720
  H        2.6839450     0.1584310     1.2535580
  H       -3.4198550     1.0009170     0.0000120
  H       -2.9519650    -0.4865460     0.8901010
  H       -2.9519750    -0.4865410    -0.8900910
units angstrom
no_reorient  #important for SAPT in psi4, default
symmetry c1  #important for SAPT in psi4, default
}

set PROPERTIES_ORIGIN ["COM"]
properties('MP2/aug-cc-pvtz', properties = ['dipole'])
--------------------------------------------------------------------------

    Molecular point group: c1
  Charge       = 0
  Multiplicity = 1
  Basis Set: AUG-CC-PVTZ
    Blend: AUG-CC-PVTZ
  Basis Set: (AUG-CC-PVTZ AUX)
    Blend: AUG-CC-PVTZ-JKFIT

    Orbital Energies [Eh]
    ---------------------

    Doubly Occupied:

       1A    -26.306371     2A    -20.606837     3A    -20.545910
       4A    -11.401233     5A    -11.345271     6A    -11.286360
       7A    -11.265494     8A    -11.264811     9A     -1.619217
      10A     -1.438218    11A     -1.328171    12A     -1.188836
      13A     -1.007868    14A     -0.914770    15A     -0.866967
      16A     -0.787142    17A     -0.749437    18A     -0.716131
      19A     -0.693794    20A     -0.657468    21A     -0.656570
      22A     -0.644574    23A     -0.632809    24A     -0.594086
      25A     -0.563492    26A     -0.535962    27A     -0.526315
      28A     -0.477834    29A     -0.463651    30A     -0.452322
      31A     -0.435934

  @DF-RHF Final Energy:  -442.69327839712753

   => Energetics <=

    Nuclear Repulsion Energy =            390.7170511988887256
    One-Electron Energy =               -1382.8729506088702692
    Two-Electron Energy =                 549.4626210128540151
    Total Energy =                       -442.6932783971275285
  Basis Set: (AUG-CC-PVTZ AUX)
    Blend: AUG-CC-PVTZ-RI
    Molecular point group: c1

    Geometry (in Angstrom), charge = 0, multiplicity = 1:

       Center              X                  Y                   Z               Mass
    ------------   -----------------  -----------------  -----------------  -----------------
         F            0.923624434776     1.594775293851    -0.000005497874    18.998403162730
         O           -1.456495565224     0.602453293851     0.000000502126    15.994914619570
         O           -0.724713565224    -1.555306706149    -0.000007497874    15.994914619570
         C            0.864709434776     0.220709293851    -0.000003497874    12.000000000000
         C            1.933989434776    -0.509642706149    -0.753156497874    12.000000000000
         C            1.933981434776    -0.509638706149     0.753170502126    12.000000000000
         C           -0.417571265224    -0.313314106149    -0.000004397874    12.000000000000
         C           -2.804176565224     0.082248293851     0.000006502126    12.000000000000
         H            2.661223434776     0.120375293851    -1.253539497874     1.007825032230
         H            1.642692434776    -1.417594706149    -1.269250497874     1.007825032230
         H            1.642683434776    -1.417585706149     1.269272502126     1.007825032230
         H            2.661210434776     0.120381293851     1.253558502126     1.007825032230
         H           -3.442589565224     0.962867293851     0.000012502126     1.007825032230
         H           -2.974699565224    -0.524595706149     0.890101502126     1.007825032230
         H           -2.974709565224    -0.524590706149    -0.890090497874     1.007825032230

  Basis Set: AUG-CC-PVTZ
    Blend: AUG-CC-PVTZ
  Basis Set: (AUG-CC-PVTZ AUX)
    Blend: AUG-CC-PVTZ-JKFIT
	 Reference Energy          =    -442.6932783971275285 [Eh]
	 Singles Energy            =      -0.0000000000000000 [Eh]
	 Same-Spin Energy          =      -0.4174862463734984 [Eh]
	 Opposite-Spin Energy      =      -1.2941723771275906 [Eh]
	 Correlation Energy        =      -1.7116586235010889 [Eh]
	 Total Energy              =    -444.4049370206286085 [Eh]

	 ================> DF-SCS-MP2 Energies <==================
	-----------------------------------------------------------
	 SCS Same-Spin Scale       =       0.3333333333333333 [-]
	 SCS Opposite-Spin Scale   =       1.2000000000000000 [-]
	 SCS Same-Spin Energy      =      -0.1391620821244995 [Eh]
	 SCS Opposite-Spin Energy  =      -1.5530068525531087 [Eh]
	 SCS Correlation Energy    =      -1.6921689346776081 [Eh]
	 SCS Total Energy          =    -444.3854473318051532 [Eh]
	-----------------------------------------------------------

  Dipole Moment: [D]
     X:     0.5368      Y:    -0.0275      Z:     0.0000     Total:     0.5375

*** Psi4 exiting successfully. Buy a developer a beer!
