                               Psi4 1.3.2 release

  ==> Input File <==

--------------------------------------------------------------------------
#psi4
#
memory 32 gb

molecule  {
0 1
  F        0.9067597     1.6336843     0.0271176
  O       -1.4337610     0.6405030     0.0000000
  O       -0.7019790    -1.5172570    -0.0000080
  C        0.8874440     0.2587590    -0.0000040
  C        1.9567240    -0.4715930    -0.7531570
  C        1.9567160    -0.4715890     0.7531700
  C       -0.4871510    -0.3137100    -0.0000050
  C       -2.7814420     0.1202980     0.0000060
  H        2.6839580     0.1584250    -1.2535400
  H        1.6654270    -1.3795450    -1.2692510
  H        1.6654180    -1.3795360     1.2692720
  H        2.6839450     0.1584310     1.2535580
  H       -3.4198550     1.0009170     0.0000120
  H       -2.9519650    -0.4865460     0.8901010
  H       -2.9519750    -0.4865410    -0.8900910
units angstrom
no_reorient  #important for SAPT in psi4, default
symmetry c1  #important for SAPT in psi4, default
}

set PROPERTIES_ORIGIN ["COM"]
properties('MP2/aug-cc-pvtz', properties = ['dipole'])
--------------------------------------------------------------------------

    Molecular point group: c1
  Charge       = 0
  Multiplicity = 1
  Basis Set: AUG-CC-PVTZ
    Blend: AUG-CC-PVTZ
  Basis Set: (AUG-CC-PVTZ AUX)
    Blend: AUG-CC-PVTZ-JKFIT

    Orbital Energies [Eh]
    ---------------------

    Doubly Occupied:

       1A    -26.298611     2A    -20.615832     3A    -20.552395
       4A    -11.395424     5A    -11.340330     6A    -11.291466
       7A    -11.255076     8A    -11.253676     9A     -1.610664
      10A     -1.465084    11A     -1.363947    12A     -1.173272
      13A     -0.999229    14A     -0.893523    15A     -0.856887
      16A     -0.781496    17A     -0.758000    18A     -0.710493
      19A     -0.689301    20A     -0.669412    21A     -0.667774
      22A     -0.644387    23A     -0.630395    24A     -0.587678
      25A     -0.564985    26A     -0.539410    27A     -0.535512
      28A     -0.483983    29A     -0.472637    30A     -0.444538
      31A     -0.435504

  @DF-RHF Final Energy:  -442.71525558347776

   => Energetics <=

    Nuclear Repulsion Energy =            390.8705777146485048
    One-Electron Energy =               -1383.2098290799372080
    Two-Electron Energy =                 549.6239957818108905
    Total Energy =                       -442.7152555834777559
  Basis Set: (AUG-CC-PVTZ AUX)
    Blend: AUG-CC-PVTZ-RI
    Molecular point group: c1

    Geometry (in Angstrom), charge = 0, multiplicity = 1:

       Center              X                  Y                   Z               Mass
    ------------   -----------------  -----------------  -----------------  -----------------
         F            0.899782909029     1.599404591593     0.022752711084    18.998403162730
         O           -1.440737790971     0.606223291593    -0.004364888916    15.994914619570
         O           -0.708955790971    -1.551536708407    -0.004372888916    15.994914619570
         C            0.880467209029     0.224479291593    -0.004368888916    12.000000000000
         C            1.949747209029    -0.505872708407    -0.757521888916    12.000000000000
         C            1.949739209029    -0.505868708407     0.748805111084    12.000000000000
         C           -0.494127790971    -0.347989708407    -0.004369888916    12.000000000000
         C           -2.788418790971     0.086018291593    -0.004358888916    12.000000000000
         H            2.676981209029     0.124145291593    -1.257904888916     1.007825032230
         H            1.658450209029    -1.413824708407    -1.273615888916     1.007825032230
         H            1.658441209029    -1.413815708407     1.264907111084     1.007825032230
         H            2.676968209029     0.124151291593     1.249193111084     1.007825032230
         H           -3.426831790971     0.966637291593    -0.004352888916     1.007825032230
         H           -2.958941790971    -0.520825708407     0.885736111084     1.007825032230
         H           -2.958951790971    -0.520820708407    -0.894455888916     1.007825032230

  Basis Set: AUG-CC-PVTZ
    Blend: AUG-CC-PVTZ
  Basis Set: (AUG-CC-PVTZ AUX)
    Blend: AUG-CC-PVTZ-JKFIT
	 Reference Energy          =    -442.7152555834777559 [Eh]
	 Singles Energy            =      -0.0000000000000000 [Eh]
	 Same-Spin Energy          =      -0.4149841546324560 [Eh]
	 Opposite-Spin Energy      =      -1.2895156257544813 [Eh]
	 Correlation Energy        =      -1.7044997803869373 [Eh]
	 Total Energy              =    -444.4197553638646809 [Eh]

	 ================> DF-SCS-MP2 Energies <==================
	-----------------------------------------------------------
	 SCS Same-Spin Scale       =       0.3333333333333333 [-]
	 SCS Opposite-Spin Scale   =       1.2000000000000000 [-]
	 SCS Same-Spin Energy      =      -0.1383280515441520 [Eh]
	 SCS Opposite-Spin Energy  =      -1.5474187509053776 [Eh]
	 SCS Correlation Energy    =      -1.6857468024495297 [Eh]
	 SCS Total Energy          =    -444.4010023859273133 [Eh]
	-----------------------------------------------------------

  Dipole Moment: [D]
     X:    -0.1465      Y:    -0.1312      Z:    -0.0276     Total:     0.1986

*** Psi4 exiting successfully. Buy a developer a beer!
