                               Psi4 1.3.2 release

  ==> Input File <==

--------------------------------------------------------------------------
#psi4
#
memory 32 gb

molecule  {
0 1
  F        0.9463590     1.6328250    -0.0000060
  O       -1.5283178     0.5363280    -0.0000003
  O       -0.7019790    -1.5172570    -0.0000080
  C        0.8874440     0.2587590    -0.0000040
  C        1.9567240    -0.4715930    -0.7531570
  C        1.9567160    -0.4715890     0.7531700
  C       -0.4871510    -0.3137100    -0.0000050
  C       -2.7814420     0.1202980     0.0000060
  H        2.6839580     0.1584250    -1.2535400
  H        1.6654270    -1.3795450    -1.2692510
  H        1.6654180    -1.3795360     1.2692720
  H        2.6839450     0.1584310     1.2535580
  H       -3.4198550     1.0009170     0.0000120
  H       -2.9519650    -0.4865460     0.8901010
  H       -2.9519750    -0.4865410    -0.8900910
units angstrom
no_reorient  #important for SAPT in psi4, default
symmetry c1  #important for SAPT in psi4, default
}

set PROPERTIES_ORIGIN ["COM"]
properties('MP2/aug-cc-pvtz', properties = ['dipole'])
--------------------------------------------------------------------------

    Molecular point group: c1
  Charge       = 0
  Multiplicity = 1
  Basis Set: AUG-CC-PVTZ
    Blend: AUG-CC-PVTZ
  Basis Set: (AUG-CC-PVTZ AUX)
    Blend: AUG-CC-PVTZ-JKFIT

    Orbital Energies [Eh]
    ---------------------

    Doubly Occupied:

       1A    -26.304619     2A    -20.607541     3A    -20.551498
       4A    -11.401513     5A    -11.349543     6A    -11.277839
       7A    -11.259201     8A    -11.258524     9A     -1.616255
      10A     -1.489996    11A     -1.371760    12A     -1.178540
      13A     -1.015846    14A     -0.895893    15A     -0.861412
      16A     -0.786499    17A     -0.769685    18A     -0.714083
      19A     -0.700996    20A     -0.681642    21A     -0.676542
      22A     -0.661666    23A     -0.633398    24A     -0.604208
      25A     -0.564784    26A     -0.535763    27A     -0.518012
      28A     -0.481232    29A     -0.458090    30A     -0.451161
      31A     -0.439641

  @DF-RHF Final Energy:  -442.70591058820401

   => Energetics <=

    Nuclear Repulsion Energy =            391.7207447979578205
    One-Electron Energy =               -1384.6185427709049236
    Two-Electron Energy =                 550.1918873847430405
    Total Energy =                       -442.7059105882040058
  Basis Set: (AUG-CC-PVTZ AUX)
    Blend: AUG-CC-PVTZ-RI
    Molecular point group: c1

    Geometry (in Angstrom), charge = 0, multiplicity = 1:

       Center              X                  Y                   Z               Mass
    ------------   -----------------  -----------------  -----------------  -----------------
         F            0.945821425478     1.612799380777    -0.000005447058    18.998403162730
         O           -1.528855374522     0.516302380777     0.000000252942    15.994914619570
         O           -0.702516574522    -1.537282619223    -0.000007447058    15.994914619570
         C            0.886906425478     0.238733380777    -0.000003447058    12.000000000000
         C            1.956186425478    -0.491618619223    -0.753156447058    12.000000000000
         C            1.956178425478    -0.491614619223     0.753170552942    12.000000000000
         C           -0.487688574522    -0.333735619223    -0.000004447058    12.000000000000
         C           -2.781979574522     0.100272380777     0.000006552942    12.000000000000
         H            2.683420425478     0.138399380777    -1.253539447058     1.007825032230
         H            1.664889425478    -1.399570619223    -1.269250447058     1.007825032230
         H            1.664880425478    -1.399561619223     1.269272552942     1.007825032230
         H            2.683407425478     0.138405380777     1.253558552942     1.007825032230
         H           -3.420392574522     0.980891380777     0.000012552942     1.007825032230
         H           -2.952502574522    -0.506571619223     0.890101552942     1.007825032230
         H           -2.952512574522    -0.506566619223    -0.890090447058     1.007825032230

  Basis Set: AUG-CC-PVTZ
    Blend: AUG-CC-PVTZ
  Basis Set: (AUG-CC-PVTZ AUX)
    Blend: AUG-CC-PVTZ-JKFIT
	 Reference Energy          =    -442.7059105882040058 [Eh]
	 Singles Energy            =      -0.0000000000000000 [Eh]
	 Same-Spin Energy          =      -0.4142646489625719 [Eh]
	 Opposite-Spin Energy      =      -1.2863535103846062 [Eh]
	 Correlation Energy        =      -1.7006181593471781 [Eh]
	 Total Energy              =    -444.4065287475511923 [Eh]

	 ================> DF-SCS-MP2 Energies <==================
	-----------------------------------------------------------
	 SCS Same-Spin Scale       =       0.3333333333333333 [-]
	 SCS Opposite-Spin Scale   =       1.2000000000000000 [-]
	 SCS Same-Spin Energy      =      -0.1380882163208573 [Eh]
	 SCS Opposite-Spin Energy  =      -1.5436242124615274 [Eh]
	 SCS Correlation Energy    =      -1.6817124287823846 [Eh]
	 SCS Total Energy          =    -444.3876230169863675 [Eh]
	-----------------------------------------------------------

  Dipole Moment: [D]
     X:     0.3706      Y:     0.0431      Z:     0.0000     Total:     0.3731

*** Psi4 exiting successfully. Buy a developer a beer!
