                               Psi4 1.4a3.dev225

  ==> Input File <==

--------------------------------------------------------------------------
#psi4
#
memory 32 gb

molecule  {
0 1
  F        0.9463590     1.6328250    -0.0000060
  O       -1.4337610     0.6405030     0.0000000
  O       -0.7019790    -1.5172570    -0.0000080
  C        0.8883007     0.2787406    -0.0000040
  C        1.9567240    -0.4715930    -0.7531570
  C        1.9567160    -0.4715890     0.7531700
  C       -0.4871510    -0.3137100    -0.0000050
  C       -2.7814420     0.1202980     0.0000060
  H        2.6839580     0.1584250    -1.2535400
  H        1.6654270    -1.3795450    -1.2692510
  H        1.6654180    -1.3795360     1.2692720
  H        2.6839450     0.1584310     1.2535580
  H       -3.4198550     1.0009170     0.0000120
  H       -2.9519650    -0.4865460     0.8901010
  H       -2.9519750    -0.4865410    -0.8900910
units angstrom
no_reorient  #important for SAPT in psi4, default
symmetry c1  #important for SAPT in psi4, default
}

set PROPERTIES_ORIGIN ["COM"]
properties('MP2/aug-cc-pvtz', properties = ['dipole'])
--------------------------------------------------------------------------

    Molecular point group: c1
  Charge       = 0
  Multiplicity = 1
  Basis Set: AUG-CC-PVTZ
    Blend: AUG-CC-PVTZ
  Basis Set: (AUG-CC-PVTZ AUX)
    Blend: AUG-CC-PVTZ-JKFIT

    Orbital Energies [Eh]
    ---------------------

    Doubly Occupied:

       1A    -26.303619     2A    -20.615956     3A    -20.552779
       4A    -11.396256     5A    -11.340550     6A    -11.291549
       7A    -11.253561     8A    -11.252885     9A     -1.621617
      10A     -1.465311    11A     -1.363892    12A     -1.168357
      13A     -0.998812    14A     -0.892397    15A     -0.855229
      16A     -0.786957    17A     -0.759284    18A     -0.712066
      19A     -0.693560    20A     -0.670610    21A     -0.669211
      22A     -0.646608    23A     -0.631229    24A     -0.587377
      25A     -0.564348    26A     -0.539916    27A     -0.534574
      28A     -0.483913    29A     -0.472573    30A     -0.442472
      31A     -0.430884

  @DF-RHF Final Energy:  -442.71554304343857

   => Energetics <=

    Nuclear Repulsion Energy =            390.6147821308715606
    One-Electron Energy =               -1382.6639384808111117
    Two-Electron Energy =                 549.3336133065009790
    Total Energy =                       -442.7155430434385153
  Basis Set: (AUG-CC-PVTZ AUX)
    Blend: AUG-CC-PVTZ-RI
    Molecular point group: c1

    Geometry (in Angstrom), charge = 0, multiplicity = 1:

       Center              X                  Y                   Z               Mass
    ------------   -----------------  -----------------  -----------------  -----------------
         F            0.932921819026     1.596652304650    -0.000005487709    18.998403162730
         O           -1.447198180974     0.604330304650     0.000000512291    15.994914619570
         O           -0.715416180974    -1.553429695350    -0.000007487709    15.994914619570
         C            0.874863519026     0.242567904650    -0.000003487709    12.000000000000
         C            1.943286819026    -0.507765695350    -0.753156487709    12.000000000000
         C            1.943278819026    -0.507761695350     0.753170512291    12.000000000000
         C           -0.500588180974    -0.349882695350    -0.000004487709    12.000000000000
         C           -2.794879180974     0.084125304650     0.000006512291    12.000000000000
         H            2.670520819026     0.122252304650    -1.253539487709     1.007825032230
         H            1.651989819026    -1.415717695350    -1.269250487709     1.007825032230
         H            1.651980819026    -1.415708695350     1.269272512291     1.007825032230
         H            2.670507819026     0.122258304650     1.253558512291     1.007825032230
         H           -3.433292180974     0.964744304650     0.000012512291     1.007825032230
         H           -2.965402180974    -0.522718695350     0.890101512291     1.007825032230
         H           -2.965412180974    -0.522713695350    -0.890090487709     1.007825032230

  Basis Set: AUG-CC-PVTZ
    Blend: AUG-CC-PVTZ
  Basis Set: (AUG-CC-PVTZ AUX)
    Blend: AUG-CC-PVTZ-JKFIT
	 Reference Energy          =    -442.7155430434385721 [Eh]
	 Singles Energy            =      -0.0000000000000000 [Eh]
	 Same-Spin Energy          =      -0.4149433387197778 [Eh]
	 Opposite-Spin Energy      =      -1.2892196611080990 [Eh]
	 Correlation Energy        =      -1.7041629998278769 [Eh]
	 Total Energy              =    -444.4197060432664443 [Eh]

	 ================> DF-SCS-MP2 Energies <==================
	-----------------------------------------------------------
	 SCS Same-Spin Scale       =       0.3333333333333333 [-]
	 SCS Opposite-Spin Scale   =       1.2000000000000000 [-]
	 SCS Same-Spin Energy      =      -0.1383144462399259 [Eh]
	 SCS Opposite-Spin Energy  =      -1.5470635933297188 [Eh]
	 SCS Correlation Energy    =      -1.6853780395696447 [Eh]
	 SCS Total Energy          =    -444.4009210830081997 [Eh]
	-----------------------------------------------------------

  Dipole Moment: [D]
     X:    -0.2103      Y:    -0.0489      Z:     0.0000     Total:     0.2159

*** Psi4 exiting successfully. Buy a developer a beer!
