                               Psi4 1.3.2 release

  ==> Input File <==

--------------------------------------------------------------------------
#psi4
#
memory 32 gb

molecule  {
0 1
  F        1.0252941     1.6260872    -0.0542202
  O       -1.4337610     0.6405030     0.0000000
  O       -0.7019790    -1.5172570    -0.0000080
  C        0.8874440     0.2587590    -0.0000040
  C        1.9567240    -0.4715930    -0.7531570
  C        1.9567160    -0.4715890     0.7531700
  C       -0.4871510    -0.3137100    -0.0000050
  C       -2.7814420     0.1202980     0.0000060
  H        2.6839580     0.1584250    -1.2535400
  H        1.6654270    -1.3795450    -1.2692510
  H        1.6654180    -1.3795360     1.2692720
  H        2.6839450     0.1584310     1.2535580
  H       -3.4198550     1.0009170     0.0000120
  H       -2.9519650    -0.4865460     0.8901010
  H       -2.9519750    -0.4865410    -0.8900910
units angstrom
no_reorient  #important for SAPT in psi4, default
symmetry c1  #important for SAPT in psi4, default
}

set PROPERTIES_ORIGIN ["COM"]
properties('MP2/aug-cc-pvtz', properties = ['dipole'])
--------------------------------------------------------------------------

    Molecular point group: c1
  Charge       = 0
  Multiplicity = 1
  Basis Set: AUG-CC-PVTZ
    Blend: AUG-CC-PVTZ
  Basis Set: (AUG-CC-PVTZ AUX)
    Blend: AUG-CC-PVTZ-JKFIT

    Orbital Energies [Eh]
    ---------------------

    Doubly Occupied:

       1A    -26.299105     2A    -20.618030     3A    -20.554914
       4A    -11.399353     5A    -11.340007     6A    -11.292850
       7A    -11.253777     8A    -11.251259     9A     -1.611214
      10A     -1.467486    11A     -1.366172    12A     -1.171871
      13A     -1.000591    14A     -0.893360    15A     -0.856094
      16A     -0.784468    17A     -0.760066    18A     -0.707991
      19A     -0.689015    20A     -0.670345    21A     -0.669534
      22A     -0.649300    23A     -0.625647    24A     -0.590017
      25A     -0.566486    26A     -0.541504    27A     -0.534242
      28A     -0.484478    29A     -0.474260    30A     -0.444091
      31A     -0.434604

  @DF-RHF Final Energy:  -442.71444113593884

   => Energetics <=

    Nuclear Repulsion Energy =            390.2035803057243015
    One-Electron Energy =               -1381.8317839007283965
    Two-Electron Energy =                 548.9137624590653104
    Total Energy =                       -442.7144411359388414
  Basis Set: (AUG-CC-PVTZ AUX)
    Blend: AUG-CC-PVTZ-RI
    Molecular point group: c1

    Geometry (in Angstrom), charge = 0, multiplicity = 1:

       Center              X                  Y                   Z               Mass
    ------------   -----------------  -----------------  -----------------  -----------------
         F            0.999239818840     1.593030205005    -0.045494196471    18.998403162730
         O           -1.459815281160     0.607446005005     0.008726003529    15.994914619570
         O           -0.728033281160    -1.550313994995     0.008718003529    15.994914619570
         C            0.861389718840     0.225702005005     0.008722003529    12.000000000000
         C            1.930669718840    -0.504649994995    -0.744430996471    12.000000000000
         C            1.930661718840    -0.504645994995     0.761896003529    12.000000000000
         C           -0.513205281160    -0.346766994995     0.008721003529    12.000000000000
         C           -2.807496281160     0.087241005005     0.008732003529    12.000000000000
         H            2.657903718840     0.125368005005    -1.244813996471     1.007825032230
         H            1.639372718840    -1.412601994995    -1.260524996471     1.007825032230
         H            1.639363718840    -1.412592994995     1.277998003529     1.007825032230
         H            2.657890718840     0.125374005005     1.262284003529     1.007825032230
         H           -3.445909281160     0.967860005005     0.008738003529     1.007825032230
         H           -2.978019281160    -0.519602994995     0.898827003529     1.007825032230
         H           -2.978029281160    -0.519597994995    -0.881364996471     1.007825032230

  Basis Set: AUG-CC-PVTZ
    Blend: AUG-CC-PVTZ
  Basis Set: (AUG-CC-PVTZ AUX)
    Blend: AUG-CC-PVTZ-JKFIT
	 Reference Energy          =    -442.7144411359388414 [Eh]
	 Singles Energy            =      -0.0000000000000000 [Eh]
	 Same-Spin Energy          =      -0.4151208072372492 [Eh]
	 Opposite-Spin Energy      =      -1.2897938882145297 [Eh]
	 Correlation Energy        =      -1.7049146954517789 [Eh]
	 Total Energy              =    -444.4193558313906465 [Eh]

	 ================> DF-SCS-MP2 Energies <==================
	-----------------------------------------------------------
	 SCS Same-Spin Scale       =       0.3333333333333333 [-]
	 SCS Opposite-Spin Scale   =       1.2000000000000000 [-]
	 SCS Same-Spin Energy      =      -0.1383736024124164 [Eh]
	 SCS Opposite-Spin Energy  =      -1.5477526658574356 [Eh]
	 SCS Correlation Energy    =      -1.6861262682698521 [Eh]
	 SCS Total Energy          =    -444.4005674042086866 [Eh]
	-----------------------------------------------------------

  Dipole Moment: [D]
     X:    -0.3336      Y:    -0.1387      Z:     0.0551     Total:     0.3655

*** Psi4 exiting successfully. Buy a developer a beer!
