                               Psi4 1.3.2 release

  ==> Input File <==

--------------------------------------------------------------------------
#psi4
#
memory 32 gb

molecule  {
0 1
  F        1.0896653     1.6191394    -0.0000058
  O       -1.4337610     0.6405030     0.0000000
  O       -0.7019790    -1.5172570    -0.0000080
  C        0.8874440     0.2587590    -0.0000040
  C        1.9567240    -0.4715930    -0.7531570
  C        1.9567160    -0.4715890     0.7531700
  C       -0.4871510    -0.3137100    -0.0000050
  C       -2.7814420     0.1202980     0.0000060
  H        2.6839580     0.1584250    -1.2535400
  H        1.6654270    -1.3795450    -1.2692510
  H        1.6654180    -1.3795360     1.2692720
  H        2.6839450     0.1584310     1.2535580
  H       -3.4198550     1.0009170     0.0000120
  H       -2.9519650    -0.4865460     0.8901010
  H       -2.9519750    -0.4865410    -0.8900910
units angstrom
no_reorient  #important for SAPT in psi4, default
symmetry c1  #important for SAPT in psi4, default
}

set PROPERTIES_ORIGIN ["COM"]
properties('MP2/aug-cc-pvtz', properties = ['dipole'])
--------------------------------------------------------------------------

    Molecular point group: c1
  Charge       = 0
  Multiplicity = 1
  Basis Set: AUG-CC-PVTZ
    Blend: AUG-CC-PVTZ
  Basis Set: (AUG-CC-PVTZ AUX)
    Blend: AUG-CC-PVTZ-JKFIT

    Orbital Energies [Eh]
    ---------------------

    Doubly Occupied:

       1A    -26.299203     2A    -20.619116     3A    -20.556228
       4A    -11.401447     5A    -11.339845     6A    -11.293539
       7A    -11.251833     8A    -11.251154     9A     -1.611687
      10A     -1.468703    11A     -1.367324    12A     -1.171043
      13A     -1.001308    14A     -0.893314    15A     -0.855689
      16A     -0.785983    17A     -0.761212    18A     -0.706689
      19A     -0.688920    20A     -0.671600    21A     -0.669633
      22A     -0.651941    23A     -0.622462    24A     -0.591180
      25A     -0.567313    26A     -0.542521    27A     -0.533436
      28A     -0.484822    29A     -0.475129    30A     -0.443463
      31A     -0.434324

  @DF-RHF Final Energy:  -442.71288862815123

   => Energetics <=

    Nuclear Repulsion Energy =            389.9235024330634474
    One-Electron Energy =               -1381.2486639975354592
    Two-Electron Energy =                 548.6122729363206645
    Total Energy =                       -442.7128886281512905
  Basis Set: (AUG-CC-PVTZ AUX)
    Blend: AUG-CC-PVTZ-RI
    Molecular point group: c1

    Geometry (in Angstrom), charge = 0, multiplicity = 1:

       Center              X                  Y                   Z               Mass
    ------------   -----------------  -----------------  -----------------  -----------------
         F            1.053250811707     1.587200616987    -0.000005319898    18.998403162730
         O           -1.470175488293     0.608564216987     0.000000480102    15.994914619570
         O           -0.738393488293    -1.549195783013    -0.000007519898    15.994914619570
         C            0.851029511707     0.226820216987    -0.000003519898    12.000000000000
         C            1.920309511707    -0.503531783013    -0.753156519898    12.000000000000
         C            1.920301511707    -0.503527783013     0.753170480102    12.000000000000
         C           -0.523565488293    -0.345648783013    -0.000004519898    12.000000000000
         C           -2.817856488293     0.088359216987     0.000006480102    12.000000000000
         H            2.647543511707     0.126486216987    -1.253539519898     1.007825032230
         H            1.629012511707    -1.411483783013    -1.269250519898     1.007825032230
         H            1.629003511707    -1.411474783013     1.269272480102     1.007825032230
         H            2.647530511707     0.126492216987     1.253558480102     1.007825032230
         H           -3.456269488293     0.968978216987     0.000012480102     1.007825032230
         H           -2.988379488293    -0.518484783013     0.890101480102     1.007825032230
         H           -2.988389488293    -0.518479783013    -0.890090519898     1.007825032230

  Basis Set: AUG-CC-PVTZ
    Blend: AUG-CC-PVTZ
  Basis Set: (AUG-CC-PVTZ AUX)
    Blend: AUG-CC-PVTZ-JKFIT
	 Reference Energy          =    -442.7128886281512337 [Eh]
	 Singles Energy            =      -0.0000000000000000 [Eh]
	 Same-Spin Energy          =      -0.4152474723336216 [Eh]
	 Opposite-Spin Energy      =      -1.2900346753879466 [Eh]
	 Correlation Energy        =      -1.7052821477215683 [Eh]
	 Total Energy              =    -444.4181707758727953 [Eh]

	 ================> DF-SCS-MP2 Energies <==================
	-----------------------------------------------------------
	 SCS Same-Spin Scale       =       0.3333333333333333 [-]
	 SCS Opposite-Spin Scale   =       1.2000000000000000 [-]
	 SCS Same-Spin Energy      =      -0.1384158241112072 [Eh]
	 SCS Opposite-Spin Energy  =      -1.5480416104655359 [Eh]
	 SCS Correlation Energy    =      -1.6864574345767431 [Eh]
	 SCS Total Energy          =    -444.3993460627280001 [Eh]
	-----------------------------------------------------------

  Dipole Moment: [D]
     X:    -0.4345      Y:    -0.1360      Z:     0.0000     Total:     0.4552

*** Psi4 exiting successfully. Buy a developer a beer!
