                               Psi4 1.3.2 release

  ==> Input File <==

--------------------------------------------------------------------------
#psi4
#
memory 32 gb

molecule  {
0 1
  F        0.8024073     1.6314560    -0.0000062
  O       -1.4337610     0.6405030     0.0000000
  O       -0.7019790    -1.5172570    -0.0000080
  C        0.8874440     0.2587590    -0.0000040
  C        1.9567240    -0.4715930    -0.7531570
  C        1.9567160    -0.4715890     0.7531700
  C       -0.4871510    -0.3137100    -0.0000050
  C       -2.7814420     0.1202980     0.0000060
  H        2.6839580     0.1584250    -1.2535400
  H        1.6654270    -1.3795450    -1.2692510
  H        1.6654180    -1.3795360     1.2692720
  H        2.6839450     0.1584310     1.2535580
  H       -3.4198550     1.0009170     0.0000120
  H       -2.9519650    -0.4865460     0.8901010
  H       -2.9519750    -0.4865410    -0.8900910
units angstrom
no_reorient  #important for SAPT in psi4, default
symmetry c1  #important for SAPT in psi4, default
}

set PROPERTIES_ORIGIN ["COM"]
properties('MP2/aug-cc-pvtz', properties = ['dipole'])
--------------------------------------------------------------------------

    Molecular point group: c1
  Charge       = 0
  Multiplicity = 1
  Basis Set: AUG-CC-PVTZ
    Blend: AUG-CC-PVTZ
  Basis Set: (AUG-CC-PVTZ AUX)
    Blend: AUG-CC-PVTZ-JKFIT

    Orbital Energies [Eh]
    ---------------------

    Doubly Occupied:

       1A    -26.297725     2A    -20.613623     3A    -20.550040
       4A    -11.391844     5A    -11.340576     6A    -11.290081
       7A    -11.256330     8A    -11.255656     9A     -1.610582
      10A     -1.462745    11A     -1.361851    12A     -1.174359
      13A     -0.997973    14A     -0.893763    15A     -0.857655
      16A     -0.778612    17A     -0.756241    18A     -0.712697
      19A     -0.689721    20A     -0.669402    21A     -0.665245
      22A     -0.641794    23A     -0.631566    24A     -0.585398
      25A     -0.563638    26A     -0.537253    27A     -0.536311
      28A     -0.483872    29A     -0.471144    30A     -0.444278
      31A     -0.436056

  @DF-RHF Final Energy:  -442.71288998072566

   => Energetics <=

    Nuclear Repulsion Energy =            391.6545945854020374
    One-Electron Energy =               -1384.8189031313072519
    Two-Electron Energy =                 550.4514185651795515
    Total Energy =                       -442.7128899807256630
  Basis Set: (AUG-CC-PVTZ AUX)
    Blend: AUG-CC-PVTZ-RI
    Molecular point group: c1

    Geometry (in Angstrom), charge = 0, multiplicity = 1:

       Center              X                  Y                   Z               Mass
    ------------   -----------------  -----------------  -----------------  -----------------
         F            0.812225480676     1.597534924795    -0.000005655520    18.998403162730
         O           -1.423942819324     0.606581924795     0.000000544480    15.994914619570
         O           -0.692160819324    -1.551178075205    -0.000007455520    15.994914619570
         C            0.897262180676     0.224837924795    -0.000003455520    12.000000000000
         C            1.966542180676    -0.505514075205    -0.753156455520    12.000000000000
         C            1.966534180676    -0.505510075205     0.753170544480    12.000000000000
         C           -0.477332819324    -0.347631075205    -0.000004455520    12.000000000000
         C           -2.771623819324     0.086376924795     0.000006544480    12.000000000000
         H            2.693776180676     0.124503924795    -1.253539455520     1.007825032230
         H            1.675245180676    -1.413466075205    -1.269250455520     1.007825032230
         H            1.675236180676    -1.413457075205     1.269272544480     1.007825032230
         H            2.693763180676     0.124509924795     1.253558544480     1.007825032230
         H           -3.410036819324     0.966995924795     0.000012544480     1.007825032230
         H           -2.942146819324    -0.520467075205     0.890101544480     1.007825032230
         H           -2.942156819324    -0.520462075205    -0.890090455520     1.007825032230

  Basis Set: AUG-CC-PVTZ
    Blend: AUG-CC-PVTZ
  Basis Set: (AUG-CC-PVTZ AUX)
    Blend: AUG-CC-PVTZ-JKFIT
	 Reference Energy          =    -442.7128899807256630 [Eh]
	 Singles Energy            =      -0.0000000000000000 [Eh]
	 Same-Spin Energy          =      -0.4150000520911706 [Eh]
	 Opposite-Spin Energy      =      -1.2895199659738092 [Eh]
	 Correlation Energy        =      -1.7045200180649798 [Eh]
	 Total Energy              =    -444.4174099987906175 [Eh]

	 ================> DF-SCS-MP2 Energies <==================
	-----------------------------------------------------------
	 SCS Same-Spin Scale       =       0.3333333333333333 [-]
	 SCS Opposite-Spin Scale   =       1.2000000000000000 [-]
	 SCS Same-Spin Energy      =      -0.1383333506970569 [Eh]
	 SCS Opposite-Spin Energy  =      -1.5474239591685710 [Eh]
	 SCS Correlation Energy    =      -1.6857573098656280 [Eh]
	 SCS Total Energy          =    -444.3986472905912706 [Eh]
	-----------------------------------------------------------

  Dipole Moment: [D]
     X:     0.0210      Y:    -0.1080      Z:     0.0000     Total:     0.1100

*** Psi4 exiting successfully. Buy a developer a beer!
