                               Psi4 1.3.2 release

  ==> Input File <==

--------------------------------------------------------------------------
#psi4
#
memory 32 gb

molecule  {
0 1
  F        0.9463590     1.6328250    -0.0000060
  O       -1.4337610     0.6405030     0.0000000
  O       -0.7019790    -1.5172570    -0.0000080
  C        0.8874440     0.2587590    -0.0000040
  C        1.9739510    -0.4532692    -0.7460145
  C        1.9567160    -0.4715890     0.7531700
  C       -0.4871510    -0.3137100    -0.0000050
  C       -2.7814420     0.1202980     0.0000060
  H        2.6839580     0.1584250    -1.2535400
  H        1.6654270    -1.3795450    -1.2692510
  H        1.6654180    -1.3795360     1.2692720
  H        2.6839450     0.1584310     1.2535580
  H       -3.4198550     1.0009170     0.0000120
  H       -2.9519650    -0.4865460     0.8901010
  H       -2.9519750    -0.4865410    -0.8900910
units angstrom
no_reorient  #important for SAPT in psi4, default
symmetry c1  #important for SAPT in psi4, default
}

set PROPERTIES_ORIGIN ["COM"]
properties('MP2/aug-cc-pvtz', properties = ['dipole'])
--------------------------------------------------------------------------

    Molecular point group: c1
  Charge       = 0
  Multiplicity = 1
  Basis Set: AUG-CC-PVTZ
    Blend: AUG-CC-PVTZ
  Basis Set: (AUG-CC-PVTZ AUX)
    Blend: AUG-CC-PVTZ-JKFIT

    Orbital Energies [Eh]
    ---------------------

    Doubly Occupied:

       1A    -26.298040     2A    -20.616697     3A    -20.553398
       4A    -11.397025     5A    -11.339717     6A    -11.292018
       7A    -11.254020     8A    -11.253324     9A     -1.610312
      10A     -1.465984    11A     -1.364758    12A     -1.173729
      13A     -0.999962    14A     -0.893936    15A     -0.856156
      16A     -0.782017    17A     -0.758538    18A     -0.709782
      19A     -0.688870    20A     -0.670337    21A     -0.668395
      22A     -0.646512    23A     -0.627071    24A     -0.589505
      25A     -0.565784    26A     -0.540248    27A     -0.533696
      28A     -0.484939    29A     -0.472938    30A     -0.445909
      31A     -0.433990

  @DF-RHF Final Energy:  -442.71473071032727

   => Energetics <=

    Nuclear Repulsion Energy =            390.5962912992563929
    One-Electron Energy =               -1382.6468296055320479
    Two-Electron Energy =                 549.3358075959484950
    Total Energy =                       -442.7147307103272169
  Basis Set: (AUG-CC-PVTZ AUX)
    Blend: AUG-CC-PVTZ-RI
    Molecular point group: c1

    Geometry (in Angstrom), charge = 0, multiplicity = 1:

       Center              X                  Y                   Z               Mass
    ------------   -----------------  -----------------  -----------------  -----------------
         F            0.931257649298     1.596820833057    -0.000731579001    18.998403162730
         O           -1.448862350702     0.604498833057    -0.000725579001    15.994914619570
         O           -0.717080350702    -1.553261166943    -0.000733579001    15.994914619570
         C            0.872342649298     0.222754833057    -0.000729579001    12.000000000000
         C            1.958849649298    -0.489273366943    -0.746740079001    12.000000000000
         C            1.941614649298    -0.507593166943     0.752444420999    12.000000000000
         C           -0.502252350702    -0.349714166943    -0.000730579001    12.000000000000
         C           -2.796543350702     0.084293833057    -0.000719579001    12.000000000000
         H            2.668856649298     0.122420833057    -1.254265579001     1.007825032230
         H            1.650325649298    -1.415549166943    -1.269976579001     1.007825032230
         H            1.650316649298    -1.415540166943     1.268546420999     1.007825032230
         H            2.668843649298     0.122426833057     1.252832420999     1.007825032230
         H           -3.434956350702     0.964912833057    -0.000713579001     1.007825032230
         H           -2.967066350702    -0.522550166943     0.889375420999     1.007825032230
         H           -2.967076350702    -0.522545166943    -0.890816579001     1.007825032230

  Basis Set: AUG-CC-PVTZ
    Blend: AUG-CC-PVTZ
  Basis Set: (AUG-CC-PVTZ AUX)
    Blend: AUG-CC-PVTZ-JKFIT
	 Reference Energy          =    -442.7147307103272738 [Eh]
	 Singles Energy            =      -0.0000000000000000 [Eh]
	 Same-Spin Energy          =      -0.4150141191182669 [Eh]
	 Opposite-Spin Energy      =      -1.2895423763652811 [Eh]
	 Correlation Energy        =      -1.7045564954835479 [Eh]
	 Total Energy              =    -444.4192872058108037 [Eh]

	 ================> DF-SCS-MP2 Energies <==================
	-----------------------------------------------------------
	 SCS Same-Spin Scale       =       0.3333333333333333 [-]
	 SCS Opposite-Spin Scale   =       1.2000000000000000 [-]
	 SCS Same-Spin Energy      =      -0.1383380397060889 [Eh]
	 SCS Opposite-Spin Energy  =      -1.5474508516383374 [Eh]
	 SCS Correlation Energy    =      -1.6857888913444263 [Eh]
	 SCS Total Energy          =    -444.4005196016717036 [Eh]
	-----------------------------------------------------------

  Dipole Moment: [D]
     X:    -0.2073      Y:    -0.1328      Z:     0.0031     Total:     0.2462

*** Psi4 exiting successfully. Buy a developer a beer!
