                               Psi4 1.4a3.dev225

  ==> Input File <==

--------------------------------------------------------------------------
#psi4
#
memory 32 gb

molecule  {
0 1
  F        0.9463590     1.6328250    -0.0000060
  O       -1.4337610     0.6405030     0.0000000
  O       -0.7019790    -1.5172570    -0.0000080
  C        0.8874440     0.2587590    -0.0000040
  C        1.9567240    -0.4715930    -0.7531570
  C        1.9567160    -0.4715890     0.7531700
  C       -0.4686881    -0.3060209    -0.0000050
  C       -2.7814420     0.1202980     0.0000060
  H        2.6839580     0.1584250    -1.2535400
  H        1.6654270    -1.3795450    -1.2692510
  H        1.6654180    -1.3795360     1.2692720
  H        2.6839450     0.1584310     1.2535580
  H       -3.4198550     1.0009170     0.0000120
  H       -2.9519650    -0.4865460     0.8901010
  H       -2.9519750    -0.4865410    -0.8900910
units angstrom
no_reorient  #important for SAPT in psi4, default
symmetry c1  #important for SAPT in psi4, default
}

set PROPERTIES_ORIGIN ["COM"]
properties('MP2/aug-cc-pvtz', properties = ['dipole'])
--------------------------------------------------------------------------

    Molecular point group: c1
  Charge       = 0
  Multiplicity = 1
  Basis Set: AUG-CC-PVTZ
    Blend: AUG-CC-PVTZ
  Basis Set: (AUG-CC-PVTZ AUX)
    Blend: AUG-CC-PVTZ-JKFIT

    Orbital Energies [Eh]
    ---------------------

    Doubly Occupied:

       1A    -26.300390     2A    -20.614677     3A    -20.551853
       4A    -11.397654     5A    -11.341522     6A    -11.290840
       7A    -11.256242     8A    -11.255565     9A     -1.612495
      10A     -1.460451    11A     -1.357286    12A     -1.175859
      13A     -1.000454    14A     -0.898272    15A     -0.858587
      16A     -0.782815    17A     -0.757450    18A     -0.710752
      19A     -0.689510    20A     -0.666929    21A     -0.666644
      22A     -0.645636    23A     -0.630138    24A     -0.589812
      25A     -0.564332    26A     -0.537525    27A     -0.535658
      28A     -0.482393    29A     -0.470789    30A     -0.447189
      31A     -0.436197

  @DF-RHF Final Energy:  -442.71350684854536

   => Energetics <=

    Nuclear Repulsion Energy =            390.6266899581045209
    One-Electron Energy =               -1382.7085613367157748
    Two-Electron Energy =                 549.3683645300658327
    Total Energy =                       -442.7135068485454212
  Basis Set: (AUG-CC-PVTZ AUX)
    Blend: AUG-CC-PVTZ-RI
    Molecular point group: c1

    Geometry (in Angstrom), charge = 0, multiplicity = 1:

       Center              X                  Y                   Z               Mass
    ------------   -----------------  -----------------  -----------------  -----------------
         F            0.931132010344     1.597901933941    -0.000005487709    18.998403162730
         O           -1.448987989656     0.605579933941     0.000000512291    15.994914619570
         O           -0.717205989656    -1.552180066059    -0.000007487709    15.994914619570
         C            0.872217010344     0.223835933941    -0.000003487709    12.000000000000
         C            1.941497010344    -0.506516066059    -0.753156487709    12.000000000000
         C            1.941489010344    -0.506512066059     0.753170512291    12.000000000000
         C           -0.483915089656    -0.340943966059    -0.000004487709    12.000000000000
         C           -2.796668989656     0.085374933941     0.000006512291    12.000000000000
         H            2.668731010344     0.123501933941    -1.253539487709     1.007825032230
         H            1.650200010344    -1.414468066059    -1.269250487709     1.007825032230
         H            1.650191010344    -1.414459066059     1.269272512291     1.007825032230
         H            2.668718010344     0.123507933941     1.253558512291     1.007825032230
         H           -3.435081989656     0.965993933941     0.000012512291     1.007825032230
         H           -2.967191989656    -0.521469066059     0.890101512291     1.007825032230
         H           -2.967201989656    -0.521464066059    -0.890090487709     1.007825032230

  Basis Set: AUG-CC-PVTZ
    Blend: AUG-CC-PVTZ
  Basis Set: (AUG-CC-PVTZ AUX)
    Blend: AUG-CC-PVTZ-JKFIT
	 Reference Energy          =    -442.7135068485453644 [Eh]
	 Singles Energy            =      -0.0000000000000000 [Eh]
	 Same-Spin Energy          =      -0.4154121488513128 [Eh]
	 Opposite-Spin Energy      =      -1.2903154891642352 [Eh]
	 Correlation Energy        =      -1.7057276380155479 [Eh]
	 Total Energy              =    -444.4192344865609243 [Eh]

	 ================> DF-SCS-MP2 Energies <==================
	-----------------------------------------------------------
	 SCS Same-Spin Scale       =       0.3333333333333333 [-]
	 SCS Opposite-Spin Scale   =       1.2000000000000000 [-]
	 SCS Same-Spin Energy      =      -0.1384707162837709 [Eh]
	 SCS Opposite-Spin Energy  =      -1.5483785869970823 [Eh]
	 SCS Correlation Energy    =      -1.6868493032808531 [Eh]
	 SCS Total Energy          =    -444.4003561518262018 [Eh]
	-----------------------------------------------------------

  Dipole Moment: [D]
     X:    -0.0618      Y:    -0.1126      Z:     0.0000     Total:     0.1284

*** Psi4 exiting successfully. Buy a developer a beer!
