                               Psi4 1.3.2 release

  ==> Input File <==

--------------------------------------------------------------------------
#psi4
#
memory 32 gb

molecule  {
0 1
  F        0.9463590     1.6328250    -0.0000060
  O       -1.4337610     0.6405030     0.0000000
  O       -0.7019790    -1.5172570    -0.0000080
  C        0.8831603     0.1588508    -0.0000039
  C        1.9567240    -0.4715930    -0.7531570
  C        1.9567160    -0.4715890     0.7531700
  C       -0.4871510    -0.3137100    -0.0000050
  C       -2.7814420     0.1202980     0.0000060
  H        2.6839580     0.1584250    -1.2535400
  H        1.6654270    -1.3795450    -1.2692510
  H        1.6654180    -1.3795360     1.2692720
  H        2.6839450     0.1584310     1.2535580
  H       -3.4198550     1.0009170     0.0000120
  H       -2.9519650    -0.4865460     0.8901010
  H       -2.9519750    -0.4865410    -0.8900910
units angstrom
no_reorient  #important for SAPT in psi4, default
symmetry c1  #important for SAPT in psi4, default
}

set PROPERTIES_ORIGIN ["COM"]
properties('MP2/aug-cc-pvtz', properties = ['dipole'])
--------------------------------------------------------------------------

    Molecular point group: c1
  Charge       = 0
  Multiplicity = 1
  Basis Set: AUG-CC-PVTZ
    Blend: AUG-CC-PVTZ
  Basis Set: (AUG-CC-PVTZ AUX)
    Blend: AUG-CC-PVTZ-JKFIT

    Orbital Energies [Eh]
    ---------------------

    Doubly Occupied:

       1A    -26.274246     2A    -20.619863     3A    -20.556031
       4A    -11.399428     5A    -11.340768     6A    -11.293934
       7A    -11.256795     8A    -11.256118     9A     -1.562646
      10A     -1.468970    11A     -1.369329    12A     -1.194738
      13A     -1.004378    14A     -0.901826    15A     -0.864402
      16A     -0.773807    17A     -0.749429    18A     -0.703191
      19A     -0.683152    20A     -0.674419    21A     -0.645533
      22A     -0.635915    23A     -0.614480    24A     -0.589830
      25A     -0.572055    26A     -0.540872    27A     -0.538041
      28A     -0.484465    29A     -0.477211    30A     -0.453790
      31A     -0.452545

  @DF-RHF Final Energy:  -442.70295194265685

   => Energetics <=

    Nuclear Repulsion Energy =            390.7079000756080518
    One-Electron Energy =               -1382.9172861517422461
    Two-Electron Energy =                 549.5064341334773417
    Total Energy =                       -442.7029519426569095
  Basis Set: (AUG-CC-PVTZ AUX)
    Blend: AUG-CC-PVTZ-RI
    Molecular point group: c1

    Geometry (in Angstrom), charge = 0, multiplicity = 1:

       Center              X                  Y                   Z               Mass
    ------------   -----------------  -----------------  -----------------  -----------------
         F            0.933444381110     1.608840045617    -0.000005497874    18.998403162730
         O           -1.446675618890     0.616518045617     0.000000502126    15.994914619570
         O           -0.714893618890    -1.541241954383    -0.000007497874    15.994914619570
         C            0.870245681110     0.134865845617    -0.000003397874    12.000000000000
         C            1.943809381110    -0.495577954383    -0.753156497874    12.000000000000
         C            1.943801381110    -0.495573954383     0.753170502126    12.000000000000
         C           -0.500065618890    -0.337694954383    -0.000004497874    12.000000000000
         C           -2.794356618890     0.096313045617     0.000006502126    12.000000000000
         H            2.671043381110     0.134440045617    -1.253539497874     1.007825032230
         H            1.652512381110    -1.403529954383    -1.269250497874     1.007825032230
         H            1.652503381110    -1.403520954383     1.269272502126     1.007825032230
         H            2.671030381110     0.134446045617     1.253558502126     1.007825032230
         H           -3.432769618890     0.976932045617     0.000012502126     1.007825032230
         H           -2.964879618890    -0.510530954383     0.890101502126     1.007825032230
         H           -2.964889618890    -0.510525954383    -0.890090497874     1.007825032230

  Basis Set: AUG-CC-PVTZ
    Blend: AUG-CC-PVTZ
  Basis Set: (AUG-CC-PVTZ AUX)
    Blend: AUG-CC-PVTZ-JKFIT
	 Reference Energy          =    -442.7029519426568527 [Eh]
	 Singles Energy            =      -0.0000000000000000 [Eh]
	 Same-Spin Energy          =      -0.4157594059005065 [Eh]
	 Opposite-Spin Energy      =      -1.2919867825276794 [Eh]
	 Correlation Energy        =      -1.7077461884281859 [Eh]
	 Total Energy              =    -444.4106981310850415 [Eh]

	 ================> DF-SCS-MP2 Energies <==================
	-----------------------------------------------------------
	 SCS Same-Spin Scale       =       0.3333333333333333 [-]
	 SCS Opposite-Spin Scale   =       1.2000000000000000 [-]
	 SCS Same-Spin Energy      =      -0.1385864686335022 [Eh]
	 SCS Opposite-Spin Energy  =      -1.5503841390332151 [Eh]
	 SCS Correlation Energy    =      -1.6889706076667172 [Eh]
	 SCS Total Energy          =    -444.3919225503235566 [Eh]
	-----------------------------------------------------------

  Dipole Moment: [D]
     X:    -0.2163      Y:    -0.5595      Z:     0.0000     Total:     0.5999

*** Psi4 exiting successfully. Buy a developer a beer!
