                               Psi4 1.3.2 release

  ==> Input File <==

--------------------------------------------------------------------------
#psi4
#
memory 32 gb

molecule  {
0 1
  F        0.9265653     1.6334640     0.0135579
  O       -1.4337610     0.6405030     0.0000000
  O       -0.7019790    -1.5172570    -0.0000080
  C        0.8874440     0.2587590    -0.0000040
  C        1.9567240    -0.4715930    -0.7531570
  C        1.9567160    -0.4715890     0.7531700
  C       -0.4871510    -0.3137100    -0.0000050
  C       -2.7814420     0.1202980     0.0000060
  H        2.6839580     0.1584250    -1.2535400
  H        1.6654270    -1.3795450    -1.2692510
  H        1.6654180    -1.3795360     1.2692720
  H        2.6839450     0.1584310     1.2535580
  H       -3.4198550     1.0009170     0.0000120
  H       -2.9519650    -0.4865460     0.8901010
  H       -2.9519750    -0.4865410    -0.8900910
units angstrom
no_reorient  #important for SAPT in psi4, default
symmetry c1  #important for SAPT in psi4, default
}

set PROPERTIES_ORIGIN ["COM"]
properties('MP2/aug-cc-pvtz', properties = ['dipole'])
--------------------------------------------------------------------------

    Molecular point group: c1
  Charge       = 0
  Multiplicity = 1
  Basis Set: AUG-CC-PVTZ
    Blend: AUG-CC-PVTZ
  Basis Set: (AUG-CC-PVTZ AUX)
    Blend: AUG-CC-PVTZ-JKFIT

    Orbital Energies [Eh]
    ---------------------

    Doubly Occupied:

       1A    -26.298738     2A    -20.616222     3A    -20.552829
       4A    -11.396093     5A    -11.340284     6A    -11.291710
       7A    -11.254523     8A    -11.253611     9A     -1.610723
      10A     -1.465504    11A     -1.364332    12A     -1.173053
      13A     -0.999462    14A     -0.893488    15A     -0.856745
      16A     -0.782021    17A     -0.758347    18A     -0.710076
      19A     -0.689242    20A     -0.669434    21A     -0.668222
      22A     -0.645159    23A     -0.629750    24A     -0.588083
      25A     -0.565243    26A     -0.539781    27A     -0.535333
      28A     -0.484030    29A     -0.472920    30A     -0.444508
      31A     -0.435418

  @DF-RHF Final Energy:  -442.71543498548635

   => Energetics <=

    Nuclear Repulsion Energy =            390.7407495726563980
    One-Electron Energy =               -1382.9426005957404868
    Two-Electron Energy =                 549.4864160375977917
    Total Energy =                       -442.7154349854863540
  Basis Set: (AUG-CC-PVTZ AUX)
    Blend: AUG-CC-PVTZ-RI
    Molecular point group: c1

    Geometry (in Angstrom), charge = 0, multiplicity = 1:

       Center              X                  Y                   Z               Mass
    ------------   -----------------  -----------------  -----------------  -----------------
         F            0.916400901552     1.599219747723     0.011375373704    18.998403162730
         O           -1.443925398448     0.606258747723    -0.002182526296    15.994914619570
         O           -0.712143398448    -1.551501252277    -0.002190526296    15.994914619570
         C            0.877279601552     0.224514747723    -0.002186526296    12.000000000000
         C            1.946559601552    -0.505837252277    -0.755339526296    12.000000000000
         C            1.946551601552    -0.505833252277     0.750987473704    12.000000000000
         C           -0.497315398448    -0.347954252277    -0.002187526296    12.000000000000
         C           -2.791606398448     0.086053747723    -0.002176526296    12.000000000000
         H            2.673793601552     0.124180747723    -1.255722526296     1.007825032230
         H            1.655262601552    -1.413789252277    -1.271433526296     1.007825032230
         H            1.655253601552    -1.413780252277     1.267089473704     1.007825032230
         H            2.673780601552     0.124186747723     1.251375473704     1.007825032230
         H           -3.430019398448     0.966672747723    -0.002170526296     1.007825032230
         H           -2.962129398448    -0.520790252277     0.887918473704     1.007825032230
         H           -2.962139398448    -0.520785252277    -0.892273526296     1.007825032230

  Basis Set: AUG-CC-PVTZ
    Blend: AUG-CC-PVTZ
  Basis Set: (AUG-CC-PVTZ AUX)
    Blend: AUG-CC-PVTZ-JKFIT
	 Reference Energy          =    -442.7154349854863540 [Eh]
	 Singles Energy            =      -0.0000000000000000 [Eh]
	 Same-Spin Energy          =      -0.4149941887755697 [Eh]
	 Opposite-Spin Energy      =      -1.2895366428544635 [Eh]
	 Correlation Energy        =      -1.7045308316300332 [Eh]
	 Total Energy              =    -444.4199658171164060 [Eh]

	 ================> DF-SCS-MP2 Energies <==================
	-----------------------------------------------------------
	 SCS Same-Spin Scale       =       0.3333333333333333 [-]
	 SCS Opposite-Spin Scale   =       1.2000000000000000 [-]
	 SCS Same-Spin Energy      =      -0.1383313962585232 [Eh]
	 SCS Opposite-Spin Energy  =      -1.5474439714253561 [Eh]
	 SCS Correlation Energy    =      -1.6857753676838794 [Eh]
	 SCS Total Energy          =    -444.4012103531702564 [Eh]
	-----------------------------------------------------------

  Dipole Moment: [D]
     X:    -0.1781      Y:    -0.1341      Z:    -0.0138     Total:     0.2234

*** Psi4 exiting successfully. Buy a developer a beer!
