                               Psi4 1.3.2 release

  ==> Input File <==

--------------------------------------------------------------------------
#psi4
#
memory 32 gb

molecule  {
0 1
  F        0.9463590     1.6328250    -0.0000060
  O       -1.4337610     0.6405030     0.0000000
  O       -0.7019790    -1.5172570    -0.0000080
  C        0.8874440     0.2587590    -0.0000040
  C        1.9908470    -0.4347284    -0.7386447
  C        1.9567160    -0.4715890     0.7531700
  C       -0.4871510    -0.3137100    -0.0000050
  C       -2.7814420     0.1202980     0.0000060
  H        2.6839580     0.1584250    -1.2535400
  H        1.6654270    -1.3795450    -1.2692510
  H        1.6654180    -1.3795360     1.2692720
  H        2.6839450     0.1584310     1.2535580
  H       -3.4198550     1.0009170     0.0000120
  H       -2.9519650    -0.4865460     0.8901010
  H       -2.9519750    -0.4865410    -0.8900910
units angstrom
no_reorient  #important for SAPT in psi4, default
symmetry c1  #important for SAPT in psi4, default
}

set PROPERTIES_ORIGIN ["COM"]
properties('MP2/aug-cc-pvtz', properties = ['dipole'])
--------------------------------------------------------------------------

    Molecular point group: c1
  Charge       = 0
  Multiplicity = 1
  Basis Set: AUG-CC-PVTZ
    Blend: AUG-CC-PVTZ
  Basis Set: (AUG-CC-PVTZ AUX)
    Blend: AUG-CC-PVTZ-JKFIT

    Orbital Energies [Eh]
    ---------------------

    Doubly Occupied:

       1A    -26.297279     2A    -20.616815     3A    -20.553565
       4A    -11.397326     5A    -11.339314     6A    -11.292103
       7A    -11.254074     8A    -11.253350     9A     -1.609884
      10A     -1.466076    11A     -1.364833    12A     -1.174684
      13A     -1.000257    14A     -0.894492    15A     -0.856139
      16A     -0.781623    17A     -0.758326    18A     -0.710321
      19A     -0.688734    20A     -0.671534    21A     -0.668204
      22A     -0.646760    23A     -0.625226    24A     -0.590443
      25A     -0.565941    26A     -0.540381    27A     -0.532021
      28A     -0.485631    29A     -0.472679    30A     -0.447232
      31A     -0.432571

  @DF-RHF Final Energy:  -442.71235299928344

   => Energetics <=

    Nuclear Repulsion Energy =            390.5797207017112100
    One-Electron Energy =               -1382.6085147722965303
    Two-Electron Energy =                 549.3164410713018242
    Total Energy =                       -442.7123529992834392
  Basis Set: (AUG-CC-PVTZ AUX)
    Blend: AUG-CC-PVTZ-RI
    Molecular point group: c1

    Geometry (in Angstrom), charge = 0, multiplicity = 1:

       Center              X                  Y                   Z               Mass
    ------------   -----------------  -----------------  -----------------  -----------------
         F            0.929540038030     1.594936014934    -0.001480777126    18.998403162730
         O           -1.450579961970     0.602614014934    -0.001474777126    15.994914619570
         O           -0.718797961970    -1.555145985066    -0.001482777126    15.994914619570
         C            0.870625038030     0.220870014934    -0.001478777126    12.000000000000
         C            1.974028038030    -0.472617385066    -0.740119477126    12.000000000000
         C            1.939897038030    -0.509477985066     0.751695222874    12.000000000000
         C           -0.503969961970    -0.351598985066    -0.001479777126    12.000000000000
         C           -2.798260961970     0.082409014934    -0.001468777126    12.000000000000
         H            2.667139038030     0.120536014934    -1.255014777126     1.007825032230
         H            1.648608038030    -1.417433985066    -1.270725777126     1.007825032230
         H            1.648599038030    -1.417424985066     1.267797222874     1.007825032230
         H            2.667126038030     0.120542014934     1.252083222874     1.007825032230
         H           -3.436673961970     0.963028014934    -0.001462777126     1.007825032230
         H           -2.968783961970    -0.524434985066     0.888626222874     1.007825032230
         H           -2.968793961970    -0.524429985066    -0.891565777126     1.007825032230

  Basis Set: AUG-CC-PVTZ
    Blend: AUG-CC-PVTZ
  Basis Set: (AUG-CC-PVTZ AUX)
    Blend: AUG-CC-PVTZ-JKFIT
	 Reference Energy          =    -442.7123529992834392 [Eh]
	 Singles Energy            =      -0.0000000000000000 [Eh]
	 Same-Spin Energy          =      -0.4150458492661896 [Eh]
	 Opposite-Spin Energy      =      -1.2896078599201291 [Eh]
	 Correlation Energy        =      -1.7046537091863188 [Eh]
	 Total Energy              =    -444.4170067084697848 [Eh]

	 ================> DF-SCS-MP2 Energies <==================
	-----------------------------------------------------------
	 SCS Same-Spin Scale       =       0.3333333333333333 [-]
	 SCS Opposite-Spin Scale   =       1.2000000000000000 [-]
	 SCS Same-Spin Energy      =      -0.1383486164220632 [Eh]
	 SCS Opposite-Spin Energy  =      -1.5475294319041548 [Eh]
	 SCS Correlation Energy    =      -1.6858780483262179 [Eh]
	 SCS Total Energy          =    -444.3982310476096700 [Eh]
	-----------------------------------------------------------

  Dipole Moment: [D]
     X:    -0.2065      Y:    -0.1281      Z:     0.0090     Total:     0.2432

*** Psi4 exiting successfully. Buy a developer a beer!
