                               Psi4 1.3.2 release

  ==> Input File <==

--------------------------------------------------------------------------
#psi4
#
memory 32 gb

molecule  {
0 1
  F        0.9223693     1.6336439    -0.0000060
  O       -1.4337610     0.6405030     0.0000000
  O       -0.7019790    -1.5172570    -0.0000080
  C        0.8874440     0.2587590    -0.0000040
  C        1.9567240    -0.4715930    -0.7531570
  C        1.9567160    -0.4715890     0.7531700
  C       -0.4871510    -0.3137100    -0.0000050
  C       -2.7814420     0.1202980     0.0000060
  H        2.6839580     0.1584250    -1.2535400
  H        1.6654270    -1.3795450    -1.2692510
  H        1.6654180    -1.3795360     1.2692720
  H        2.6839450     0.1584310     1.2535580
  H       -3.4198550     1.0009170     0.0000120
  H       -2.9519650    -0.4865460     0.8901010
  H       -2.9519750    -0.4865410    -0.8900910
units angstrom
no_reorient  #important for SAPT in psi4, default
symmetry c1  #important for SAPT in psi4, default
}

set PROPERTIES_ORIGIN ["COM"]
properties('MP2/aug-cc-pvtz', properties = ['dipole'])
--------------------------------------------------------------------------

    Molecular point group: c1
  Charge       = 0
  Multiplicity = 1
  Basis Set: AUG-CC-PVTZ
    Blend: AUG-CC-PVTZ
  Basis Set: (AUG-CC-PVTZ AUX)
    Blend: AUG-CC-PVTZ-JKFIT

    Orbital Energies [Eh]
    ---------------------

    Doubly Occupied:

       1A    -26.298715     2A    -20.616140     3A    -20.552738
       4A    -11.395953     5A    -11.340295     6A    -11.291659
       7A    -11.254470     8A    -11.253795     9A     -1.610709
      10A     -1.465416    11A     -1.364251    12A     -1.173100
      13A     -0.999413    14A     -0.893495    15A     -0.856773
      16A     -0.781912    17A     -0.758275    18A     -0.710166
      19A     -0.689255    20A     -0.669430    21A     -0.668129
      22A     -0.644990    23A     -0.629894    24A     -0.587997
      25A     -0.565190    26A     -0.539703    27A     -0.535375
      28A     -0.484015    29A     -0.472863    30A     -0.444514
      31A     -0.435452

  @DF-RHF Final Energy:  -442.71542820170089

   => Energetics <=

    Nuclear Repulsion Energy =            390.7669139971316099
    One-Electron Energy =               -1382.9965194595058620
    Two-Electron Energy =                 549.5141772606733639
    Total Energy =                       -442.7154282017008882
  Basis Set: (AUG-CC-PVTZ AUX)
    Blend: AUG-CC-PVTZ-RI
    Molecular point group: c1

    Geometry (in Angstrom), charge = 0, multiplicity = 1:

       Center              X                  Y                   Z               Mass
    ------------   -----------------  -----------------  -----------------  -----------------
         F            0.912880225752     1.599370693761    -0.000005487709    18.998403162730
         O           -1.443250074248     0.606229793761     0.000000512291    15.994914619570
         O           -0.711468074248    -1.551530206239    -0.000007487709    15.994914619570
         C            0.877954925752     0.224485793761    -0.000003487709    12.000000000000
         C            1.947234925752    -0.505866206239    -0.753156487709    12.000000000000
         C            1.947226925752    -0.505862206239     0.753170512291    12.000000000000
         C           -0.496640074248    -0.347983206239    -0.000004487709    12.000000000000
         C           -2.790931074248     0.086024793761     0.000006512291    12.000000000000
         H            2.674468925752     0.124151793761    -1.253539487709     1.007825032230
         H            1.655937925752    -1.413818206239    -1.269250487709     1.007825032230
         H            1.655928925752    -1.413809206239     1.269272512291     1.007825032230
         H            2.674455925752     0.124157793761     1.253558512291     1.007825032230
         H           -3.429344074248     0.966643793761     0.000012512291     1.007825032230
         H           -2.961454074248    -0.520819206239     0.890101512291     1.007825032230
         H           -2.961464074248    -0.520814206239    -0.890090487709     1.007825032230

  Basis Set: AUG-CC-PVTZ
    Blend: AUG-CC-PVTZ
  Basis Set: (AUG-CC-PVTZ AUX)
    Blend: AUG-CC-PVTZ-JKFIT
	 Reference Energy          =    -442.7154282017008882 [Eh]
	 Singles Energy            =      -0.0000000000000000 [Eh]
	 Same-Spin Energy          =      -0.4149910541494453 [Eh]
	 Opposite-Spin Energy      =      -1.2895296813527350 [Eh]
	 Correlation Energy        =      -1.7045207355021803 [Eh]
	 Total Energy              =    -444.4199489372030598 [Eh]

	 ================> DF-SCS-MP2 Energies <==================
	-----------------------------------------------------------
	 SCS Same-Spin Scale       =       0.3333333333333333 [-]
	 SCS Opposite-Spin Scale   =       1.2000000000000000 [-]
	 SCS Same-Spin Energy      =      -0.1383303513831484 [Eh]
	 SCS Opposite-Spin Energy  =      -1.5474356176232820 [Eh]
	 SCS Correlation Energy    =      -1.6857659690064304 [Eh]
	 SCS Total Energy          =    -444.4011941707072992 [Eh]
	-----------------------------------------------------------

  Dipole Moment: [D]
     X:    -0.1714      Y:    -0.1337      Z:     0.0000     Total:     0.2174

*** Psi4 exiting successfully. Buy a developer a beer!
