                               Psi4 1.4a3.dev225

  ==> Input File <==

--------------------------------------------------------------------------
#psi4
#
memory 32 gb

molecule  {
0 1
  F        0.9463590     1.6328250    -0.0000060
  O       -1.4337610     0.6405030     0.0000000
  O       -0.7019790    -1.5172570    -0.0000080
  C        0.8853021     0.2088049    -0.0000039
  C        1.9567240    -0.4715930    -0.7531570
  C        1.9567160    -0.4715890     0.7531700
  C       -0.4871510    -0.3137100    -0.0000050
  C       -2.7814420     0.1202980     0.0000060
  H        2.6839580     0.1584250    -1.2535400
  H        1.6654270    -1.3795450    -1.2692510
  H        1.6654180    -1.3795360     1.2692720
  H        2.6839450     0.1584310     1.2535580
  H       -3.4198550     1.0009170     0.0000120
  H       -2.9519650    -0.4865460     0.8901010
  H       -2.9519750    -0.4865410    -0.8900910
units angstrom
no_reorient  #important for SAPT in psi4, default
symmetry c1  #important for SAPT in psi4, default
}

set PROPERTIES_ORIGIN ["COM"]
properties('MP2/aug-cc-pvtz', properties = ['dipole'])
--------------------------------------------------------------------------

    Molecular point group: c1
  Charge       = 0
  Multiplicity = 1
  Basis Set: AUG-CC-PVTZ
    Blend: AUG-CC-PVTZ
  Basis Set: (AUG-CC-PVTZ AUX)
    Blend: AUG-CC-PVTZ-JKFIT

    Orbital Energies [Eh]
    ---------------------

    Doubly Occupied:

       1A    -26.286774     2A    -20.618227     3A    -20.554551
       4A    -11.398041     5A    -11.340074     6A    -11.292945
       7A    -11.255419     8A    -11.254742     9A     -1.585608
      10A     -1.467441    11A     -1.366900    12A     -1.183888
      13A     -1.001983    14A     -0.897151    15A     -0.860323
      16A     -0.775540    17A     -0.755091    18A     -0.705371
      19A     -0.683886    20A     -0.671295    21A     -0.658923
      22A     -0.642054    23A     -0.622457    24A     -0.590167
      25A     -0.568603    26A     -0.540603    27A     -0.536560
      28A     -0.484400    29A     -0.474993    30A     -0.448856
      31A     -0.445369

  @DF-RHF Final Energy:  -442.71158309485912

   => Energetics <=

    Nuclear Repulsion Energy =            390.6504594976793214
    One-Electron Energy =               -1382.7876164624092326
    Two-Electron Energy =                 549.4255738698708456
    Total Energy =                       -442.7115830948590656
  Basis Set: (AUG-CC-PVTZ AUX)
    Blend: AUG-CC-PVTZ-RI
    Molecular point group: c1

    Geometry (in Angstrom), charge = 0, multiplicity = 1:

       Center              X                  Y                   Z               Mass
    ------------   -----------------  -----------------  -----------------  -----------------
         F            0.933226650297     1.603761818520    -0.000005497874    18.998403162730
         O           -1.446893349703     0.611439818520     0.000000502126    15.994914619570
         O           -0.715111349703    -1.546320181480    -0.000007497874    15.994914619570
         C            0.872169750297     0.179741718520    -0.000003397874    12.000000000000
         C            1.943591650297    -0.500656181480    -0.753156497874    12.000000000000
         C            1.943583650297    -0.500652181480     0.753170502126    12.000000000000
         C           -0.500283349703    -0.342773181480    -0.000004497874    12.000000000000
         C           -2.794574349703     0.091234818520     0.000006502126    12.000000000000
         H            2.670825650297     0.129361818520    -1.253539497874     1.007825032230
         H            1.652294650297    -1.408608181480    -1.269250497874     1.007825032230
         H            1.652285650297    -1.408599181480     1.269272502126     1.007825032230
         H            2.670812650297     0.129367818520     1.253558502126     1.007825032230
         H           -3.432987349703     0.971853818520     0.000012502126     1.007825032230
         H           -2.965097349703    -0.515609181480     0.890101502126     1.007825032230
         H           -2.965107349703    -0.515604181480    -0.890090497874     1.007825032230

  Basis Set: AUG-CC-PVTZ
    Blend: AUG-CC-PVTZ
  Basis Set: (AUG-CC-PVTZ AUX)
    Blend: AUG-CC-PVTZ-JKFIT
	 Reference Energy          =    -442.7115830948591224 [Eh]
	 Singles Energy            =      -0.0000000000000000 [Eh]
	 Same-Spin Energy          =      -0.4153009338635694 [Eh]
	 Opposite-Spin Energy      =      -1.2906510051637796 [Eh]
	 Correlation Energy        =      -1.7059519390273490 [Eh]
	 Total Energy              =    -444.4175350338864519 [Eh]

	 ================> DF-SCS-MP2 Energies <==================
	-----------------------------------------------------------
	 SCS Same-Spin Scale       =       0.3333333333333333 [-]
	 SCS Opposite-Spin Scale   =       1.2000000000000000 [-]
	 SCS Same-Spin Energy      =      -0.1384336446211898 [Eh]
	 SCS Opposite-Spin Energy  =      -1.5487812061965356 [Eh]
	 SCS Correlation Energy    =      -1.6872148508177254 [Eh]
	 SCS Total Energy          =    -444.3987979456768471 [Eh]
	-----------------------------------------------------------

  Dipole Moment: [D]
     X:    -0.2107      Y:    -0.3496      Z:     0.0000     Total:     0.4082

*** Psi4 exiting successfully. Buy a developer a beer!
