                               Psi4 1.3.2 release

  ==> Input File <==

--------------------------------------------------------------------------
#psi4
#
memory 32 gb

molecule  {
0 1
  F        0.9463590     1.6328250    -0.0000060
  O       -1.4337610     0.6405030     0.0000000
  O       -0.7019790    -1.5172570    -0.0000080
  C        0.8917277     0.3586672    -0.0000041
  C        1.9567240    -0.4715930    -0.7531570
  C        1.9567160    -0.4715890     0.7531700
  C       -0.4871510    -0.3137100    -0.0000050
  C       -2.7814420     0.1202980     0.0000060
  H        2.6839580     0.1584250    -1.2535400
  H        1.6654270    -1.3795450    -1.2692510
  H        1.6654180    -1.3795360     1.2692720
  H        2.6839450     0.1584310     1.2535580
  H       -3.4198550     1.0009170     0.0000120
  H       -2.9519650    -0.4865460     0.8901010
  H       -2.9519750    -0.4865410    -0.8900910
units angstrom
no_reorient  #important for SAPT in psi4, default
symmetry c1  #important for SAPT in psi4, default
}

set PROPERTIES_ORIGIN ["COM"]
properties('MP2/aug-cc-pvtz', properties = ['dipole'])
--------------------------------------------------------------------------

    Molecular point group: c1
  Charge       = 0
  Multiplicity = 1
  Basis Set: AUG-CC-PVTZ
    Blend: AUG-CC-PVTZ
  Basis Set: (AUG-CC-PVTZ AUX)
    Blend: AUG-CC-PVTZ-JKFIT

    Orbital Energies [Eh]
    ---------------------

    Doubly Occupied:

       1A    -26.323001     2A    -20.613394     3A    -20.551000
       4A    -11.394190     5A    -11.343368     6A    -11.289929
       7A    -11.251223     8A    -11.250549     9A     -1.670195
      10A     -1.462896    11A     -1.360856    12A     -1.150300
      13A     -0.995534    14A     -0.892413    15A     -0.850540
      16A     -0.809186    17A     -0.760183    18A     -0.725284
      19A     -0.719387    20A     -0.672187    21A     -0.669828
      22A     -0.645771    23A     -0.636737    24A     -0.581169
      25A     -0.560177    26A     -0.538797    27A     -0.532166
      28A     -0.482918    29A     -0.470426    30A     -0.433042
      31A     -0.411251

  @DF-RHF Final Energy:  -442.70556786737046

   => Energetics <=

    Nuclear Repulsion Energy =            390.6689281352548733
    One-Electron Energy =               -1382.6531973631340406
    Two-Electron Energy =                 549.2787013605087623
    Total Energy =                       -442.7055678673704051
  Basis Set: (AUG-CC-PVTZ AUX)
    Blend: AUG-CC-PVTZ-RI
    Molecular point group: c1

    Geometry (in Angstrom), charge = 0, multiplicity = 1:

       Center              X                  Y                   Z               Mass
    ------------   -----------------  -----------------  -----------------  -----------------
         F            0.932573437527     1.588527137228    -0.000005477543    18.998403162730
         O           -1.447546562473     0.596205137228     0.000000522457    15.994914619570
         O           -0.715764562473    -1.561554862772    -0.000007477543    15.994914619570
         C            0.877942137527     0.314369337228    -0.000003577543    12.000000000000
         C            1.942938437527    -0.515890862772    -0.753156477543    12.000000000000
         C            1.942930437527    -0.515886862772     0.753170522457    12.000000000000
         C           -0.500936562473    -0.358007862772    -0.000004477543    12.000000000000
         C           -2.795227562473     0.076000137228     0.000006522457    12.000000000000
         H            2.670172437527     0.114127137228    -1.253539477543     1.007825032230
         H            1.651641437527    -1.423842862772    -1.269250477543     1.007825032230
         H            1.651632437527    -1.423833862772     1.269272522457     1.007825032230
         H            2.670159437527     0.114133137228     1.253558522457     1.007825032230
         H           -3.433640562473     0.956619137228     0.000012522457     1.007825032230
         H           -2.965750562473    -0.530843862772     0.890101522457     1.007825032230
         H           -2.965760562473    -0.530838862772    -0.890090477543     1.007825032230

  Basis Set: AUG-CC-PVTZ
    Blend: AUG-CC-PVTZ
  Basis Set: (AUG-CC-PVTZ AUX)
    Blend: AUG-CC-PVTZ-JKFIT
	 Reference Energy          =    -442.7055678673704620 [Eh]
	 Singles Energy            =      -0.0000000000000000 [Eh]
	 Same-Spin Energy          =      -0.4149886558350352 [Eh]
	 Opposite-Spin Energy      =      -1.2883999139317028 [Eh]
	 Correlation Energy        =      -1.7033885697667381 [Eh]
	 Total Energy              =    -444.4089564371371921 [Eh]

	 ================> DF-SCS-MP2 Energies <==================
	-----------------------------------------------------------
	 SCS Same-Spin Scale       =       0.3333333333333333 [-]
	 SCS Opposite-Spin Scale   =       1.2000000000000000 [-]
	 SCS Same-Spin Energy      =      -0.1383295519450117 [Eh]
	 SCS Opposite-Spin Energy  =      -1.5460798967180434 [Eh]
	 SCS Correlation Energy    =      -1.6844094486630552 [Eh]
	 SCS Total Energy          =    -444.3899773160335371 [Eh]
	-----------------------------------------------------------

  Dipole Moment: [D]
     X:    -0.2219      Y:     0.3233      Z:     0.0000     Total:     0.3922

*** Psi4 exiting successfully. Buy a developer a beer!
