                               Psi4 1.3.2 release

  ==> Input File <==

--------------------------------------------------------------------------
#psi4
#
memory 32 gb

molecule  {
0 1
  F        0.9463590     1.6328250    -0.0000060
  O       -1.4337610     0.6405030     0.0000000
  O       -0.7019790    -1.5172570    -0.0000080
  C        0.8788766     0.0589426    -0.0000037
  C        1.9567240    -0.4715930    -0.7531570
  C        1.9567160    -0.4715890     0.7531700
  C       -0.4871510    -0.3137100    -0.0000050
  C       -2.7814420     0.1202980     0.0000060
  H        2.6839580     0.1584250    -1.2535400
  H        1.6654270    -1.3795450    -1.2692510
  H        1.6654180    -1.3795360     1.2692720
  H        2.6839450     0.1584310     1.2535580
  H       -3.4198550     1.0009170     0.0000120
  H       -2.9519650    -0.4865460     0.8901010
  H       -2.9519750    -0.4865410    -0.8900910
units angstrom
no_reorient  #important for SAPT in psi4, default
symmetry c1  #important for SAPT in psi4, default
}

set PROPERTIES_ORIGIN ["COM"]
properties('MP2/aug-cc-pvtz', properties = ['dipole'])
--------------------------------------------------------------------------

    Molecular point group: c1
  Charge       = 0
  Multiplicity = 1
  Basis Set: AUG-CC-PVTZ
    Blend: AUG-CC-PVTZ
  Basis Set: (AUG-CC-PVTZ AUX)
    Blend: AUG-CC-PVTZ-JKFIT

    Orbital Energies [Eh]
    ---------------------

    Doubly Occupied:

       1A    -26.246879     2A    -20.623162     3A    -20.559773
       4A    -11.402764     5A    -11.344541     6A    -11.295897
       7A    -11.260008     8A    -11.259331     9A     -1.521771
      10A     -1.471756    11A     -1.375062    12A     -1.215619
      13A     -1.009363    14A     -0.912555    15A     -0.873572
      16A     -0.776046    17A     -0.742226    18A     -0.702780
      19A     -0.684930    20A     -0.681535    21A     -0.625880
      22A     -0.618257    23A     -0.593510    24A     -0.581430
      25A     -0.579453    26A     -0.541451    27A     -0.540445
      28A     -0.483422    29A     -0.482787    30A     -0.465219
      31A     -0.458111

  @DF-RHF Final Energy:  -442.67434977849001

   => Energetics <=

    Nuclear Repulsion Energy =            390.8637889518913084
    One-Electron Energy =               -1383.2172085449442420
    Two-Electron Energy =                 549.6790698145628085
    Total Energy =                       -442.6743497784900683
  Basis Set: (AUG-CC-PVTZ AUX)
    Blend: AUG-CC-PVTZ-RI
    Molecular point group: c1

    Geometry (in Angstrom), charge = 0, multiplicity = 1:

       Center              X                  Y                   Z               Mass
    ------------   -----------------  -----------------  -----------------  -----------------
         F            0.933879852901     1.618996499812    -0.000005518206    18.998403162730
         O           -1.446240147099     0.626674499812     0.000000481794    15.994914619570
         O           -0.714458147099    -1.531085500188    -0.000007518206    15.994914619570
         C            0.866397452901     0.045114099812    -0.000003218206    12.000000000000
         C            1.944244852901    -0.485421500188    -0.753156518206    12.000000000000
         C            1.944236852901    -0.485417500188     0.753170481794    12.000000000000
         C           -0.499630147099    -0.327538500188    -0.000004518206    12.000000000000
         C           -2.793921147099     0.106469499812     0.000006481794    12.000000000000
         H            2.671478852901     0.144596499812    -1.253539518206     1.007825032230
         H            1.652947852901    -1.393373500188    -1.269250518206     1.007825032230
         H            1.652938852901    -1.393364500188     1.269272481794     1.007825032230
         H            2.671465852901     0.144602499812     1.253558481794     1.007825032230
         H           -3.432334147099     0.987088499812     0.000012481794     1.007825032230
         H           -2.964444147099    -0.500374500188     0.890101481794     1.007825032230
         H           -2.964454147099    -0.500369500188    -0.890090518206     1.007825032230

  Basis Set: AUG-CC-PVTZ
    Blend: AUG-CC-PVTZ
  Basis Set: (AUG-CC-PVTZ AUX)
    Blend: AUG-CC-PVTZ-JKFIT
	 Reference Energy          =    -442.6743497784900114 [Eh]
	 Singles Energy            =      -0.0000000000000000 [Eh]
	 Same-Spin Energy          =      -0.4170907004209199 [Eh]
	 Opposite-Spin Energy      =      -1.2951176671098525 [Eh]
	 Correlation Energy        =      -1.7122083675307724 [Eh]
	 Total Energy              =    -444.3865581460207750 [Eh]

	 ================> DF-SCS-MP2 Energies <==================
	-----------------------------------------------------------
	 SCS Same-Spin Scale       =       0.3333333333333333 [-]
	 SCS Opposite-Spin Scale   =       1.2000000000000000 [-]
	 SCS Same-Spin Energy      =      -0.1390302334736400 [Eh]
	 SCS Opposite-Spin Energy  =      -1.5541412005318229 [Eh]
	 SCS Correlation Energy    =      -1.6931714340054629 [Eh]
	 SCS Total Energy          =    -444.3675212124954896 [Eh]
	-----------------------------------------------------------

  Dipole Moment: [D]
     X:    -0.2414      Y:    -0.9900      Z:     0.0000     Total:     1.0190

*** Psi4 exiting successfully. Buy a developer a beer!
