                               Psi4 1.3.2 release

  ==> Input File <==

--------------------------------------------------------------------------
#psi4
#
memory 32 gb

molecule  {
0 1
  F        0.9463590     1.6328250    -0.0000060
  O       -1.4337610     0.6405030     0.0000000
  O       -0.6809415    -1.5208230    -0.0000080
  C        0.8874440     0.2587590    -0.0000040
  C        1.9567240    -0.4715930    -0.7531570
  C        1.9567160    -0.4715890     0.7531700
  C       -0.4871510    -0.3137100    -0.0000050
  C       -2.7814420     0.1202980     0.0000060
  H        2.6839580     0.1584250    -1.2535400
  H        1.6654270    -1.3795450    -1.2692510
  H        1.6654180    -1.3795360     1.2692720
  H        2.6839450     0.1584310     1.2535580
  H       -3.4198550     1.0009170     0.0000120
  H       -2.9519650    -0.4865460     0.8901010
  H       -2.9519750    -0.4865410    -0.8900910
units angstrom
no_reorient  #important for SAPT in psi4, default
symmetry c1  #important for SAPT in psi4, default
}

set PROPERTIES_ORIGIN ["COM"]
properties('MP2/aug-cc-pvtz', properties = ['dipole'])
--------------------------------------------------------------------------

    Molecular point group: c1
  Charge       = 0
  Multiplicity = 1
  Basis Set: AUG-CC-PVTZ
    Blend: AUG-CC-PVTZ
  Basis Set: (AUG-CC-PVTZ AUX)
    Blend: AUG-CC-PVTZ-JKFIT

    Orbital Energies [Eh]
    ---------------------

    Doubly Occupied:

       1A    -26.298030     2A    -20.618006     3A    -20.553605
       4A    -11.396940     5A    -11.339101     6A    -11.292835
       7A    -11.253331     8A    -11.252654     9A     -1.610088
      10A     -1.465980    11A     -1.366255    12A     -1.171862
      13A     -1.000093    14A     -0.893256    15A     -0.855909
      16A     -0.782439    17A     -0.758877    18A     -0.709330
      19A     -0.688987    20A     -0.669517    21A     -0.668799
      22A     -0.645765    23A     -0.628523    24A     -0.588421
      25A     -0.566113    26A     -0.541145    27A     -0.534625
      28A     -0.483994    29A     -0.473976    30A     -0.443906
      31A     -0.434504

  @DF-RHF Final Energy:  -442.71533082663217

   => Energetics <=

    Nuclear Repulsion Energy =            390.6596831300071244
    One-Electron Energy =               -1382.7762961963776434
    Two-Electron Energy =                 549.4012822397384070
    Total Energy =                       -442.7153308266321119
  Basis Set: (AUG-CC-PVTZ AUX)
    Blend: AUG-CC-PVTZ-RI
    Molecular point group: c1

    Geometry (in Angstrom), charge = 0, multiplicity = 1:

       Center              X                  Y                   Z               Mass
    ------------   -----------------  -----------------  -----------------  -----------------
         F            0.930158312548     1.599166787053    -0.000005487709    18.998403162730
         O           -1.449961687452     0.606844787053     0.000000512291    15.994914619570
         O           -0.697142187452    -1.554481212947    -0.000007487709    15.994914619570
         C            0.871243312548     0.225100787053    -0.000003487709    12.000000000000
         C            1.940523312548    -0.505251212947    -0.753156487709    12.000000000000
         C            1.940515312548    -0.505247212947     0.753170512291    12.000000000000
         C           -0.503351687452    -0.347368212947    -0.000004487709    12.000000000000
         C           -2.797642687452     0.086639787053     0.000006512291    12.000000000000
         H            2.667757312548     0.124766787053    -1.253539487709     1.007825032230
         H            1.649226312548    -1.413203212947    -1.269250487709     1.007825032230
         H            1.649217312548    -1.413194212947     1.269272512291     1.007825032230
         H            2.667744312548     0.124772787053     1.253558512291     1.007825032230
         H           -3.436055687452     0.967258787053     0.000012512291     1.007825032230
         H           -2.968165687452    -0.520204212947     0.890101512291     1.007825032230
         H           -2.968175687452    -0.520199212947    -0.890090487709     1.007825032230

  Basis Set: AUG-CC-PVTZ
    Blend: AUG-CC-PVTZ
  Basis Set: (AUG-CC-PVTZ AUX)
    Blend: AUG-CC-PVTZ-JKFIT
	 Reference Energy          =    -442.7153308266321687 [Eh]
	 Singles Energy            =      -0.0000000000000000 [Eh]
	 Same-Spin Energy          =      -0.4150234398945667 [Eh]
	 Opposite-Spin Energy      =      -1.2896183792591678 [Eh]
	 Correlation Energy        =      -1.7046418191537345 [Eh]
	 Total Energy              =    -444.4199726457858901 [Eh]

	 ================> DF-SCS-MP2 Energies <==================
	-----------------------------------------------------------
	 SCS Same-Spin Scale       =       0.3333333333333333 [-]
	 SCS Opposite-Spin Scale   =       1.2000000000000000 [-]
	 SCS Same-Spin Energy      =      -0.1383411466315222 [Eh]
	 SCS Opposite-Spin Energy  =      -1.5475420551110013 [Eh]
	 SCS Correlation Energy    =      -1.6858832017425236 [Eh]
	 SCS Total Energy          =    -444.4012140283746817 [Eh]
	-----------------------------------------------------------

  Dipole Moment: [D]
     X:    -0.2821      Y:    -0.1330      Z:     0.0000     Total:     0.3118

*** Psi4 exiting successfully. Buy a developer a beer!
