                               Psi4 1.3.2 release

  ==> Input File <==

--------------------------------------------------------------------------
#psi4
#
memory 32 gb

molecule  {
0 1
  F        1.0645338     1.6202169    -0.0812447
  O       -1.4337610     0.6405030     0.0000000
  O       -0.7019790    -1.5172570    -0.0000080
  C        0.8874440     0.2587590    -0.0000040
  C        1.9567240    -0.4715930    -0.7531570
  C        1.9567160    -0.4715890     0.7531700
  C       -0.4871510    -0.3137100    -0.0000050
  C       -2.7814420     0.1202980     0.0000060
  H        2.6839580     0.1584250    -1.2535400
  H        1.6654270    -1.3795450    -1.2692510
  H        1.6654180    -1.3795360     1.2692720
  H        2.6839450     0.1584310     1.2535580
  H       -3.4198550     1.0009170     0.0000120
  H       -2.9519650    -0.4865460     0.8901010
  H       -2.9519750    -0.4865410    -0.8900910
units angstrom
no_reorient  #important for SAPT in psi4, default
symmetry c1  #important for SAPT in psi4, default
}

set PROPERTIES_ORIGIN ["COM"]
properties('MP2/aug-cc-pvtz', properties = ['dipole'])
--------------------------------------------------------------------------

    Molecular point group: c1
  Charge       = 0
  Multiplicity = 1
  Basis Set: AUG-CC-PVTZ
    Blend: AUG-CC-PVTZ
  Basis Set: (AUG-CC-PVTZ AUX)
    Blend: AUG-CC-PVTZ-JKFIT

    Orbital Energies [Eh]
    ---------------------

    Doubly Occupied:

       1A    -26.299130     2A    -20.618689     3A    -20.555706
       4A    -11.400611     5A    -11.339874     6A    -11.293269
       7A    -11.253740     8A    -11.250056     9A     -1.611505
      10A     -1.468223    11A     -1.366866    12A     -1.171358
      13A     -1.001024    14A     -0.893332    15A     -0.855874
      16A     -0.785361    17A     -0.760739    18A     -0.707169
      19A     -0.688947    20A     -0.671137    21A     -0.669554
      22A     -0.650968    23A     -0.623737    24A     -0.590747
      25A     -0.566958    26A     -0.542132    27A     -0.533713
      28A     -0.484745    29A     -0.474757    30A     -0.443851
      31A     -0.434052

  @DF-RHF Final Energy:  -442.71315579624292

   => Energetics <=

    Nuclear Repulsion Energy =            390.0408256923931845
    One-Electron Energy =               -1381.4923165626669288
    Two-Electron Energy =                 548.7383350740309425
    Total Energy =                       -442.7131557962428587
  Basis Set: (AUG-CC-PVTZ AUX)
    Blend: AUG-CC-PVTZ-RI
    Molecular point group: c1

    Geometry (in Angstrom), charge = 0, multiplicity = 1:

       Center              X                  Y                   Z               Mass
    ------------   -----------------  -----------------  -----------------  -----------------
         F            1.032164094864     1.588104699012    -0.068169244889    18.998403162730
         O           -1.466130705136     0.608390799012     0.013075455111    15.994914619570
         O           -0.734348705136    -1.549369200988     0.013067455111    15.994914619570
         C            0.855074294864     0.226646799012     0.013071455111    12.000000000000
         C            1.924354294864    -0.503705200988    -0.740081544889    12.000000000000
         C            1.924346294864    -0.503701200988     0.766245455111    12.000000000000
         C           -0.519520705136    -0.345822200988     0.013070455111    12.000000000000
         C           -2.813811705136     0.088185799012     0.013081455111    12.000000000000
         H            2.651588294864     0.126312799012    -1.240464544889     1.007825032230
         H            1.633057294864    -1.411657200988    -1.256175544889     1.007825032230
         H            1.633048294864    -1.411648200988     1.282347455111     1.007825032230
         H            2.651575294864     0.126318799012     1.266633455111     1.007825032230
         H           -3.452224705136     0.968804799012     0.013087455111     1.007825032230
         H           -2.984334705136    -0.518658200988     0.903176455111     1.007825032230
         H           -2.984344705136    -0.518653200988    -0.877015544889     1.007825032230

  Basis Set: AUG-CC-PVTZ
    Blend: AUG-CC-PVTZ
  Basis Set: (AUG-CC-PVTZ AUX)
    Blend: AUG-CC-PVTZ-JKFIT
	 Reference Energy          =    -442.7131557962429156 [Eh]
	 Singles Energy            =      -0.0000000000000000 [Eh]
	 Same-Spin Energy          =      -0.4152069058290718 [Eh]
	 Opposite-Spin Energy      =      -1.2899660199061731 [Eh]
	 Correlation Energy        =      -1.7051729257352448 [Eh]
	 Total Energy              =    -444.4183287219781846 [Eh]

	 ================> DF-SCS-MP2 Energies <==================
	-----------------------------------------------------------
	 SCS Same-Spin Scale       =       0.3333333333333333 [-]
	 SCS Opposite-Spin Scale   =       1.2000000000000000 [-]
	 SCS Same-Spin Energy      =      -0.1384023019430239 [Eh]
	 SCS Opposite-Spin Energy  =      -1.5479592238874076 [Eh]
	 SCS Correlation Energy    =      -1.6863615258304314 [Eh]
	 SCS Total Energy          =    -444.3995173220733363 [Eh]
	-----------------------------------------------------------

  Dipole Moment: [D]
     X:    -0.3946      Y:    -0.1357      Z:     0.0824     Total:     0.4253

*** Psi4 exiting successfully. Buy a developer a beer!
