                               Psi4 1.3.2 release

  ==> Input File <==

--------------------------------------------------------------------------
#psi4
#
memory 32 gb

molecule  {
0 1
  F        0.9463590     1.6328250    -0.0000060
  O       -1.4337610     0.6405030     0.0000000
  O       -0.7019790    -1.5172570    -0.0000080
  C        0.8874440     0.2587590    -0.0000040
  C        2.0550202    -0.3585105    -0.7069392
  C        1.9567160    -0.4715890     0.7531700
  C       -0.4871510    -0.3137100    -0.0000050
  C       -2.7814420     0.1202980     0.0000060
  H        2.6839580     0.1584250    -1.2535400
  H        1.6654270    -1.3795450    -1.2692510
  H        1.6654180    -1.3795360     1.2692720
  H        2.6839450     0.1584310     1.2535580
  H       -3.4198550     1.0009170     0.0000120
  H       -2.9519650    -0.4865460     0.8901010
  H       -2.9519750    -0.4865410    -0.8900910
units angstrom
no_reorient  #important for SAPT in psi4, default
symmetry c1  #important for SAPT in psi4, default
}

set PROPERTIES_ORIGIN ["COM"]
properties('MP2/aug-cc-pvtz', properties = ['dipole'])
--------------------------------------------------------------------------

    Molecular point group: c1
  Charge       = 0
  Multiplicity = 1
  Basis Set: AUG-CC-PVTZ
    Blend: AUG-CC-PVTZ
  Basis Set: (AUG-CC-PVTZ AUX)
    Blend: AUG-CC-PVTZ-JKFIT

    Orbital Energies [Eh]
    ---------------------

    Doubly Occupied:

       1A    -26.294702     2A    -20.617511     3A    -20.554458
       4A    -11.398840     5A    -11.338819     6A    -11.292578
       7A    -11.255767     8A    -11.254648     9A     -1.608743
      10A     -1.466685    11A     -1.365384    12A     -1.179009
      13A     -1.001683    14A     -0.897449    15A     -0.859838
      16A     -0.781547    17A     -0.757058    18A     -0.716202
      19A     -0.689663    20A     -0.676692    21A     -0.668032
      22A     -0.646266    23A     -0.621633    24A     -0.592022
      25A     -0.565869    26A     -0.541047    27A     -0.525158
      28A     -0.485479    29A     -0.471289    30A     -0.451224
      31A     -0.425753

  @DF-RHF Final Energy:  -442.68783620782801

   => Energetics <=

    Nuclear Repulsion Energy =            390.5627559964451621
    One-Electron Energy =               -1382.4990904945764214
    Two-Electron Energy =                 549.2484982903032460
    Total Energy =                       -442.6878362078280134
  Basis Set: (AUG-CC-PVTZ AUX)
    Blend: AUG-CC-PVTZ-RI
    Molecular point group: c1

    Geometry (in Angstrom), charge = 0, multiplicity = 1:

       Center              X                  Y                   Z               Mass
    ------------   -----------------  -----------------  -----------------  -----------------
         F            0.923016327600     1.587187866032    -0.004703890529    18.998403162730
         O           -1.457103672400     0.594865866032    -0.004697890529    15.994914619570
         O           -0.725321672400    -1.562894133968    -0.004705890529    15.994914619570
         C            0.864101327600     0.213121866032    -0.004701890529    12.000000000000
         C            2.031677527600    -0.404147633968    -0.711637090529    12.000000000000
         C            1.933373327600    -0.517226133968     0.748472109471    12.000000000000
         C           -0.510493672400    -0.359347133968    -0.004702890529    12.000000000000
         C           -2.804784672400     0.074660866032    -0.004691890529    12.000000000000
         H            2.660615327600     0.112787866032    -1.258237890529     1.007825032230
         H            1.642084327600    -1.425182133968    -1.273948890529     1.007825032230
         H            1.642075327600    -1.425173133968     1.264574109471     1.007825032230
         H            2.660602327600     0.112793866032     1.248860109471     1.007825032230
         H           -3.443197672400     0.955279866032    -0.004685890529     1.007825032230
         H           -2.975307672400    -0.532183133968     0.885403109471     1.007825032230
         H           -2.975317672400    -0.532178133968    -0.894788890529     1.007825032230

  Basis Set: AUG-CC-PVTZ
    Blend: AUG-CC-PVTZ
  Basis Set: (AUG-CC-PVTZ AUX)
    Blend: AUG-CC-PVTZ-JKFIT
	 Reference Energy          =    -442.6878362078280134 [Eh]
	 Singles Energy            =      -0.0000000000000000 [Eh]
	 Same-Spin Energy          =      -0.4154354032593739 [Eh]
	 Opposite-Spin Energy      =      -1.2907241195284032 [Eh]
	 Correlation Energy        =      -1.7061595227877770 [Eh]
	 Total Energy              =    -444.3939957306158135 [Eh]

	 ================> DF-SCS-MP2 Energies <==================
	-----------------------------------------------------------
	 SCS Same-Spin Scale       =       0.3333333333333333 [-]
	 SCS Opposite-Spin Scale   =       1.2000000000000000 [-]
	 SCS Same-Spin Energy      =      -0.1384784677531246 [Eh]
	 SCS Opposite-Spin Energy  =      -1.5488689434340837 [Eh]
	 SCS Correlation Energy    =      -1.6873474111872082 [Eh]
	 SCS Total Energy          =    -444.3751836190152176 [Eh]
	-----------------------------------------------------------

  Dipole Moment: [D]
     X:    -0.2158      Y:    -0.0967      Z:     0.0590     Total:     0.2437

*** Psi4 exiting successfully. Buy a developer a beer!
