                               Psi4 1.3.2 release

  ==> Input File <==

--------------------------------------------------------------------------
#psi4
#
memory 32 gb

molecule  {
0 1
  F        0.9463590     1.6328250    -0.0000060
  O       -1.4169635     0.6568783     0.0000001
  O       -0.7019790    -1.5172570    -0.0000080
  C        0.8874440     0.2587590    -0.0000040
  C        1.9567240    -0.4715930    -0.7531570
  C        1.9567160    -0.4715890     0.7531700
  C       -0.4871510    -0.3137100    -0.0000050
  C       -2.7814420     0.1202980     0.0000060
  H        2.6839580     0.1584250    -1.2535400
  H        1.6654270    -1.3795450    -1.2692510
  H        1.6654180    -1.3795360     1.2692720
  H        2.6839450     0.1584310     1.2535580
  H       -3.4198550     1.0009170     0.0000120
  H       -2.9519650    -0.4865460     0.8901010
  H       -2.9519750    -0.4865410    -0.8900910
units angstrom
no_reorient  #important for SAPT in psi4, default
symmetry c1  #important for SAPT in psi4, default
}

set PROPERTIES_ORIGIN ["COM"]
properties('MP2/aug-cc-pvtz', properties = ['dipole'])
--------------------------------------------------------------------------

    Molecular point group: c1
  Charge       = 0
  Multiplicity = 1
  Basis Set: AUG-CC-PVTZ
    Blend: AUG-CC-PVTZ
  Basis Set: (AUG-CC-PVTZ AUX)
    Blend: AUG-CC-PVTZ-JKFIT

    Orbital Energies [Eh]
    ---------------------

    Doubly Occupied:

       1A    -26.297882     2A    -20.617763     3A    -20.553555
       4A    -11.396188     5A    -11.338705     6A    -11.294495
       7A    -11.253246     8A    -11.252569     9A     -1.609918
      10A     -1.462712    11A     -1.363745    12A     -1.171866
      13A     -0.997410    14A     -0.893459    15A     -0.855810
      16A     -0.781685    17A     -0.756816    18A     -0.709010
      19A     -0.687880    20A     -0.668688    21A     -0.666426
      22A     -0.643447    23A     -0.628349    24A     -0.585487
      25A     -0.566064    26A     -0.543467    27A     -0.535015
      28A     -0.484157    29A     -0.474992    30A     -0.443126
      31A     -0.434545

  @DF-RHF Final Energy:  -442.71390671038392

   => Energetics <=

    Nuclear Repulsion Energy =            390.4778758079521594
    One-Electron Energy =               -1382.4466118726975310
    Two-Electron Energy =                 549.2548293543613909
    Total Energy =                       -442.7139067103839807
  Basis Set: (AUG-CC-PVTZ AUX)
    Blend: AUG-CC-PVTZ-RI
    Molecular point group: c1

    Geometry (in Angstrom), charge = 0, multiplicity = 1:

       Center              X                  Y                   Z               Mass
    ------------   -----------------  -----------------  -----------------  -----------------
         F            0.930732835676     1.596464726192    -0.000005501259    18.998403162730
         O           -1.432589664324     0.620518026192     0.000000598741    15.994914619570
         O           -0.717605164324    -1.553617273808    -0.000007501259    15.994914619570
         C            0.871817835676     0.222398726192    -0.000003501259    12.000000000000
         C            1.941097835676    -0.507953273808    -0.753156501259    12.000000000000
         C            1.941089835676    -0.507949273808     0.753170498741    12.000000000000
         C           -0.502777164324    -0.350070273808    -0.000004501259    12.000000000000
         C           -2.797068164324     0.083937726192     0.000006498741    12.000000000000
         H            2.668331835676     0.122064726192    -1.253539501259     1.007825032230
         H            1.649800835676    -1.415905273808    -1.269250501259     1.007825032230
         H            1.649791835676    -1.415896273808     1.269272498741     1.007825032230
         H            2.668318835676     0.122070726192     1.253558498741     1.007825032230
         H           -3.435481164324     0.964556726192     0.000012498741     1.007825032230
         H           -2.967591164324    -0.522906273808     0.890101498741     1.007825032230
         H           -2.967601164324    -0.522901273808    -0.890090501259     1.007825032230

  Basis Set: AUG-CC-PVTZ
    Blend: AUG-CC-PVTZ
  Basis Set: (AUG-CC-PVTZ AUX)
    Blend: AUG-CC-PVTZ-JKFIT
	 Reference Energy          =    -442.7139067103839238 [Eh]
	 Singles Energy            =      -0.0000000000000000 [Eh]
	 Same-Spin Energy          =      -0.4152434620021047 [Eh]
	 Opposite-Spin Energy      =      -1.2903146975148510 [Eh]
	 Correlation Energy        =      -1.7055581595169556 [Eh]
	 Total Energy              =    -444.4194648699008781 [Eh]

	 ================> DF-SCS-MP2 Energies <==================
	-----------------------------------------------------------
	 SCS Same-Spin Scale       =       0.3333333333333333 [-]
	 SCS Opposite-Spin Scale   =       1.2000000000000000 [-]
	 SCS Same-Spin Energy      =      -0.1384144873340349 [Eh]
	 SCS Opposite-Spin Energy  =      -1.5483776370178211 [Eh]
	 SCS Correlation Energy    =      -1.6867921243518560 [Eh]
	 SCS Total Energy          =    -444.4006988347358060 [Eh]
	-----------------------------------------------------------

  Dipole Moment: [D]
     X:    -0.2991      Y:    -0.1611      Z:     0.0000     Total:     0.3398

*** Psi4 exiting successfully. Buy a developer a beer!
