                               Psi4 1.3.2 release

  ==> Input File <==

--------------------------------------------------------------------------
#psi4
#
memory 32 gb

molecule  {
0 1
  F        0.9703308     1.6315875    -0.0000060
  O       -1.4337610     0.6405030     0.0000000
  O       -0.7019790    -1.5172570    -0.0000080
  C        0.8874440     0.2587590    -0.0000040
  C        1.9567240    -0.4715930    -0.7531570
  C        1.9567160    -0.4715890     0.7531700
  C       -0.4871510    -0.3137100    -0.0000050
  C       -2.7814420     0.1202980     0.0000060
  H        2.6839580     0.1584250    -1.2535400
  H        1.6654270    -1.3795450    -1.2692510
  H        1.6654180    -1.3795360     1.2692720
  H        2.6839450     0.1584310     1.2535580
  H       -3.4198550     1.0009170     0.0000120
  H       -2.9519650    -0.4865460     0.8901010
  H       -2.9519750    -0.4865410    -0.8900910
units angstrom
no_reorient  #important for SAPT in psi4, default
symmetry c1  #important for SAPT in psi4, default
}

set PROPERTIES_ORIGIN ["COM"]
properties('MP2/aug-cc-pvtz', properties = ['dipole'])
--------------------------------------------------------------------------

    Molecular point group: c1
  Charge       = 0
  Multiplicity = 1
  Basis Set: AUG-CC-PVTZ
    Blend: AUG-CC-PVTZ
  Basis Set: (AUG-CC-PVTZ AUX)
    Blend: AUG-CC-PVTZ-JKFIT

    Orbital Energies [Eh]
    ---------------------

    Doubly Occupied:

       1A    -26.298957     2A    -20.617051     3A    -20.553770
       4A    -11.397556     5A    -11.340172     6A    -11.292232
       7A    -11.253721     8A    -11.253044     9A     -1.610899
      10A     -1.466407    11A     -1.365164    12A     -1.172548
      13A     -0.999970    14A     -0.893421    15A     -0.856441
      16A     -0.783142    17A     -0.759113    18A     -0.709153
      19A     -0.689130    20A     -0.669491    21A     -0.669181
      22A     -0.646961    23A     -0.628081    24A     -0.588957
      25A     -0.565805    26A     -0.540570    27A     -0.534893
      28A     -0.484183    29A     -0.473531    30A     -0.444367
      31A     -0.435160

  @DF-RHF Final Energy:  -442.71540500165816

   => Energetics <=

    Nuclear Repulsion Energy =            390.4793516102238300
    One-Electron Energy =               -1382.4033713544754391
    Two-Electron Energy =                 549.2086147425934541
    Total Energy =                       -442.7154050016581550
  Basis Set: (AUG-CC-PVTZ AUX)
    Blend: AUG-CC-PVTZ-RI
    Molecular point group: c1

    Geometry (in Angstrom), charge = 0, multiplicity = 1:

       Center              X                  Y                   Z               Mass
    ------------   -----------------  -----------------  -----------------  -----------------
         F            0.953122573796     1.597645260559    -0.000005487709    18.998403162730
         O           -1.450969226204     0.606560760559     0.000000512291    15.994914619570
         O           -0.719187226204    -1.551199239441    -0.000007487709    15.994914619570
         C            0.870235773796     0.224816760559    -0.000003487709    12.000000000000
         C            1.939515773796    -0.505535239441    -0.753156487709    12.000000000000
         C            1.939507773796    -0.505531239441     0.753170512291    12.000000000000
         C           -0.504359226204    -0.347652239441    -0.000004487709    12.000000000000
         C           -2.798650226204     0.086355760559     0.000006512291    12.000000000000
         H            2.666749773796     0.124482760559    -1.253539487709     1.007825032230
         H            1.648218773796    -1.413487239441    -1.269250487709     1.007825032230
         H            1.648209773796    -1.413478239441     1.269272512291     1.007825032230
         H            2.666736773796     0.124488760559     1.253558512291     1.007825032230
         H           -3.437063226204     0.966974760559     0.000012512291     1.007825032230
         H           -2.969173226204    -0.520488239441     0.890101512291     1.007825032230
         H           -2.969183226204    -0.520483239441    -0.890090487709     1.007825032230

  Basis Set: AUG-CC-PVTZ
    Blend: AUG-CC-PVTZ
  Basis Set: (AUG-CC-PVTZ AUX)
    Blend: AUG-CC-PVTZ-JKFIT
	 Reference Energy          =    -442.7154050016581550 [Eh]
	 Singles Energy            =      -0.0000000000000000 [Eh]
	 Same-Spin Energy          =      -0.4150339686554883 [Eh]
	 Opposite-Spin Energy      =      -1.2896178852951508 [Eh]
	 Correlation Energy        =      -1.7046518539506390 [Eh]
	 Total Energy              =    -444.4200568556087774 [Eh]

	 ================> DF-SCS-MP2 Energies <==================
	-----------------------------------------------------------
	 SCS Same-Spin Scale       =       0.3333333333333333 [-]
	 SCS Opposite-Spin Scale   =       1.2000000000000000 [-]
	 SCS Same-Spin Energy      =      -0.1383446562184961 [Eh]
	 SCS Opposite-Spin Energy  =      -1.5475414623541808 [Eh]
	 SCS Correlation Energy    =      -1.6858861185726768 [Eh]
	 SCS Total Energy          =    -444.4012911202308374 [Eh]
	-----------------------------------------------------------

  Dipole Moment: [D]
     X:    -0.2474      Y:    -0.1383      Z:     0.0000     Total:     0.2835

*** Psi4 exiting successfully. Buy a developer a beer!
