                               Psi4 1.4a3.dev225

  ==> Input File <==

--------------------------------------------------------------------------
#psi4
#
memory 32 gb

molecule  {
0 1
  F        0.9463590     1.6328250    -0.0000060
  O       -1.4337610     0.6405030     0.0000000
  O       -0.7019790    -1.5172570    -0.0000080
  C        0.8874440     0.2587590    -0.0000040
  C        1.9567240    -0.4715930    -0.7531570
  C        1.9567160    -0.4715890     0.7531700
  C       -0.5333082    -0.3329328    -0.0000050
  C       -2.7814420     0.1202980     0.0000060
  H        2.6839580     0.1584250    -1.2535400
  H        1.6654270    -1.3795450    -1.2692510
  H        1.6654180    -1.3795360     1.2692720
  H        2.6839450     0.1584310     1.2535580
  H       -3.4198550     1.0009170     0.0000120
  H       -2.9519650    -0.4865460     0.8901010
  H       -2.9519750    -0.4865410    -0.8900910
units angstrom
no_reorient  #important for SAPT in psi4, default
symmetry c1  #important for SAPT in psi4, default
}

set PROPERTIES_ORIGIN ["COM"]
properties('MP2/aug-cc-pvtz', properties = ['dipole'])
--------------------------------------------------------------------------

    Molecular point group: c1
  Charge       = 0
  Multiplicity = 1
  Basis Set: AUG-CC-PVTZ
    Blend: AUG-CC-PVTZ
  Basis Set: (AUG-CC-PVTZ AUX)
    Blend: AUG-CC-PVTZ-JKFIT

    Orbital Energies [Eh]
    ---------------------

    Doubly Occupied:

       1A    -26.294841     2A    -20.621456     3A    -20.556842
       4A    -11.394851     5A    -11.336300     6A    -11.294772
       7A    -11.248919     8A    -11.248245     9A     -1.606449
      10A     -1.479432    11A     -1.383456    12A     -1.165565
      13A     -0.999057    14A     -0.881127    15A     -0.851772
      16A     -0.783998    17A     -0.759704    18A     -0.707919
      19A     -0.690960    20A     -0.675681    21A     -0.670598
      22A     -0.646927    23A     -0.626061    24A     -0.585368
      25A     -0.569804    26A     -0.546510    27A     -0.533137
      28A     -0.487819    29A     -0.479851    30A     -0.436070
      31A     -0.432020

  @DF-RHF Final Energy:  -442.71539764361535

   => Energetics <=

    Nuclear Repulsion Energy =            390.6163057670579519
    One-Electron Energy =               -1382.6723869995130372
    Two-Electron Energy =                 549.3406835888397381
    Total Energy =                       -442.7153976436153471
  Basis Set: (AUG-CC-PVTZ AUX)
    Blend: AUG-CC-PVTZ-RI
    Molecular point group: c1

    Geometry (in Angstrom), charge = 0, multiplicity = 1:

       Center              X                  Y                   Z               Mass
    ------------   -----------------  -----------------  -----------------  -----------------
         F            0.937701151673     1.600637740208    -0.000005487709    18.998403162730
         O           -1.442418848327     0.608315740208     0.000000512291    15.994914619570
         O           -0.710636848327    -1.549444259792    -0.000007487709    15.994914619570
         C            0.878786151673     0.226571740208    -0.000003487709    12.000000000000
         C            1.948066151673    -0.503780259792    -0.753156487709    12.000000000000
         C            1.948058151673    -0.503776259792     0.753170512291    12.000000000000
         C           -0.541966048327    -0.365120059792    -0.000004487709    12.000000000000
         C           -2.790099848327     0.088110740208     0.000006512291    12.000000000000
         H            2.675300151673     0.126237740208    -1.253539487709     1.007825032230
         H            1.656769151673    -1.411732259792    -1.269250487709     1.007825032230
         H            1.656760151673    -1.411723259792     1.269272512291     1.007825032230
         H            2.675287151673     0.126243740208     1.253558512291     1.007825032230
         H           -3.428512848327     0.968729740208     0.000012512291     1.007825032230
         H           -2.960622848327    -0.518733259792     0.890101512291     1.007825032230
         H           -2.960632848327    -0.518728259792    -0.890090487709     1.007825032230

  Basis Set: AUG-CC-PVTZ
    Blend: AUG-CC-PVTZ
  Basis Set: (AUG-CC-PVTZ AUX)
    Blend: AUG-CC-PVTZ-JKFIT
	 Reference Energy          =    -442.7153976436153471 [Eh]
	 Singles Energy            =      -0.0000000000000000 [Eh]
	 Same-Spin Energy          =      -0.4142196640819249 [Eh]
	 Opposite-Spin Energy      =      -1.2881008952704853 [Eh]
	 Correlation Energy        =      -1.7023205593524102 [Eh]
	 Total Energy              =    -444.4177182029677624 [Eh]

	 ================> DF-SCS-MP2 Energies <==================
	-----------------------------------------------------------
	 SCS Same-Spin Scale       =       0.3333333333333333 [-]
	 SCS Opposite-Spin Scale   =       1.2000000000000000 [-]
	 SCS Same-Spin Energy      =      -0.1380732213606416 [Eh]
	 SCS Opposite-Spin Energy  =      -1.5457210743245824 [Eh]
	 SCS Correlation Energy    =      -1.6837942956852241 [Eh]
	 SCS Total Energy          =    -444.3991919393005787 [Eh]
	-----------------------------------------------------------

  Dipole Moment: [D]
     X:    -0.5803      Y:    -0.2020      Z:     0.0000     Total:     0.6144

*** Psi4 exiting successfully. Buy a developer a beer!
