                               Psi4 1.3.2 release

  ==> Input File <==

--------------------------------------------------------------------------
#psi4
#
memory 32 gb

molecule  {
0 1
  F        0.9463590     1.6328250    -0.0000060
  O       -1.4337610     0.6405030     0.0000000
  O       -0.7019790    -1.5172570    -0.0000080
  C        0.8874440     0.2587590    -0.0000040
  C        2.0236258    -0.3970190    -0.7232325
  C        1.9567160    -0.4715890     0.7531700
  C       -0.4871510    -0.3137100    -0.0000050
  C       -2.7814420     0.1202980     0.0000060
  H        2.6839580     0.1584250    -1.2535400
  H        1.6654270    -1.3795450    -1.2692510
  H        1.6654180    -1.3795360     1.2692720
  H        2.6839450     0.1584310     1.2535580
  H       -3.4198550     1.0009170     0.0000120
  H       -2.9519650    -0.4865460     0.8901010
  H       -2.9519750    -0.4865410    -0.8900910
units angstrom
no_reorient  #important for SAPT in psi4, default
symmetry c1  #important for SAPT in psi4, default
}

set PROPERTIES_ORIGIN ["COM"]
properties('MP2/aug-cc-pvtz', properties = ['dipole'])
--------------------------------------------------------------------------

    Molecular point group: c1
  Charge       = 0
  Multiplicity = 1
  Basis Set: AUG-CC-PVTZ
    Blend: AUG-CC-PVTZ
  Basis Set: (AUG-CC-PVTZ AUX)
    Blend: AUG-CC-PVTZ-JKFIT

    Orbital Energies [Eh]
    ---------------------

    Doubly Occupied:

       1A    -26.295896     2A    -20.617121     3A    -20.553968
       4A    -11.398025     5A    -11.338848     6A    -11.292314
       7A    -11.254602     8A    -11.253768     9A     -1.609197
      10A     -1.466335    11A     -1.365061    12A     -1.176746
      13A     -1.000923    14A     -0.895825    15A     -0.857294
      16A     -0.781269    17A     -0.757748    18A     -0.712582
      19A     -0.688957    20A     -0.674270    21A     -0.668021
      22A     -0.646666    23A     -0.622478    24A     -0.591742
      25A     -0.565993    26A     -0.540693    27A     -0.528390
      28A     -0.486263    29A     -0.472101    30A     -0.449493
      31A     -0.429415

  @DF-RHF Final Energy:  -442.70296293578679

   => Energetics <=

    Nuclear Repulsion Energy =            390.5620384860782224
    One-Electron Energy =               -1382.5459904217136682
    Two-Electron Energy =                 549.2809889998486597
    Total Energy =                       -442.7029629357867861
  Basis Set: (AUG-CC-PVTZ AUX)
    Blend: AUG-CC-PVTZ-RI
    Molecular point group: c1

    Geometry (in Angstrom), charge = 0, multiplicity = 1:

       Center              X                  Y                   Z               Mass
    ------------   -----------------  -----------------  -----------------  -----------------
         F            0.926207815241     1.591102557882    -0.003047548456    18.998403162730
         O           -1.453912184759     0.598780557882    -0.003041548456    15.994914619570
         O           -0.722130184759    -1.558979442118    -0.003049548456    15.994914619570
         C            0.867292815241     0.217036557882    -0.003045548456    12.000000000000
         C            2.003474615241    -0.438741442118    -0.726274048456    12.000000000000
         C            1.936564815241    -0.513311442118     0.750128451544    12.000000000000
         C           -0.507302184759    -0.355432442118    -0.003046548456    12.000000000000
         C           -2.801593184759     0.078575557882    -0.003035548456    12.000000000000
         H            2.663806815241     0.116702557882    -1.256581548456     1.007825032230
         H            1.645275815241    -1.421267442118    -1.272292548456     1.007825032230
         H            1.645266815241    -1.421258442118     1.266230451544     1.007825032230
         H            2.663793815241     0.116708557882     1.250516451544     1.007825032230
         H           -3.440006184759     0.959194557882    -0.003029548456     1.007825032230
         H           -2.972116184759    -0.528268442118     0.887059451544     1.007825032230
         H           -2.972126184759    -0.528263442118    -0.893132548456     1.007825032230

  Basis Set: AUG-CC-PVTZ
    Blend: AUG-CC-PVTZ
  Basis Set: (AUG-CC-PVTZ AUX)
    Blend: AUG-CC-PVTZ-JKFIT
	 Reference Energy          =    -442.7029629357867861 [Eh]
	 Singles Energy            =      -0.0000000000000000 [Eh]
	 Same-Spin Energy          =      -0.4151887649802030 [Eh]
	 Opposite-Spin Energy      =      -1.2900015637482061 [Eh]
	 Correlation Energy        =      -1.7051903287284089 [Eh]
	 Total Energy              =    -444.4081532645151924 [Eh]

	 ================> DF-SCS-MP2 Energies <==================
	-----------------------------------------------------------
	 SCS Same-Spin Scale       =       0.3333333333333333 [-]
	 SCS Opposite-Spin Scale   =       1.2000000000000000 [-]
	 SCS Same-Spin Energy      =      -0.1383962549934010 [Eh]
	 SCS Opposite-Spin Energy  =      -1.5480018764978472 [Eh]
	 SCS Correlation Energy    =      -1.6863981314912482 [Eh]
	 SCS Total Energy          =    -444.3893610672780596 [Eh]
	-----------------------------------------------------------

  Dipole Moment: [D]
     X:    -0.2089      Y:    -0.1149      Z:     0.0289     Total:     0.2402

*** Psi4 exiting successfully. Buy a developer a beer!
