                               Psi4 1.3.2 release

  ==> Input File <==

--------------------------------------------------------------------------
#psi4
#
memory 32 gb

molecule  {
0 1
  F        0.9463590     1.6328250    -0.0000060
  O       -1.3648926     0.7042108     0.0000002
  O       -0.7019790    -1.5172570    -0.0000080
  C        0.8874440     0.2587590    -0.0000040
  C        1.9567240    -0.4715930    -0.7531570
  C        1.9567160    -0.4715890     0.7531700
  C       -0.4871510    -0.3137100    -0.0000050
  C       -2.7814420     0.1202980     0.0000060
  H        2.6839580     0.1584250    -1.2535400
  H        1.6654270    -1.3795450    -1.2692510
  H        1.6654180    -1.3795360     1.2692720
  H        2.6839450     0.1584310     1.2535580
  H       -3.4198550     1.0009170     0.0000120
  H       -2.9519650    -0.4865460     0.8901010
  H       -2.9519750    -0.4865410    -0.8900910
units angstrom
no_reorient  #important for SAPT in psi4, default
symmetry c1  #important for SAPT in psi4, default
}

set PROPERTIES_ORIGIN ["COM"]
properties('MP2/aug-cc-pvtz', properties = ['dipole'])
--------------------------------------------------------------------------

    Molecular point group: c1
  Charge       = 0
  Multiplicity = 1
  Basis Set: AUG-CC-PVTZ
    Blend: AUG-CC-PVTZ
  Basis Set: (AUG-CC-PVTZ AUX)
    Blend: AUG-CC-PVTZ-JKFIT

    Orbital Energies [Eh]
    ---------------------

    Doubly Occupied:

       1A    -26.294948     2A    -20.620550     3A    -20.554427
       4A    -11.394760     5A    -11.334145     6A    -11.302330
       7A    -11.250679     8A    -11.250003     9A     -1.607332
      10A     -1.454260    11A     -1.361192    12A     -1.168946
      13A     -0.991457    14A     -0.893859    15A     -0.853417
      16A     -0.778953    17A     -0.751267    18A     -0.707146
      19A     -0.684504    20A     -0.666568    21A     -0.660077
      22A     -0.636649    23A     -0.626394    24A     -0.577265
      25A     -0.568567    26A     -0.550982    27A     -0.534403
      28A     -0.484000    29A     -0.479181    30A     -0.438830
      31A     -0.432195

  @DF-RHF Final Energy:  -442.70483240133501

   => Energetics <=

    Nuclear Repulsion Energy =            390.1351350577101584
    One-Electron Energy =               -1381.8613595614065161
    Two-Electron Energy =                 549.0213921023613466
    Total Energy =                       -442.7048324013350111
  Basis Set: (AUG-CC-PVTZ AUX)
    Blend: AUG-CC-PVTZ-RI
    Molecular point group: c1

    Geometry (in Angstrom), charge = 0, multiplicity = 1:

       Center              X                  Y                   Z               Mass
    ------------   -----------------  -----------------  -----------------  -----------------
         F            0.923677190311     1.590051137522    -0.000005514809    18.998403162730
         O           -1.387574409689     0.661436937522     0.000000685191    15.994914619570
         O           -0.724660809689    -1.560030862478    -0.000007514809    15.994914619570
         C            0.864762190311     0.215985137522    -0.000003514809    12.000000000000
         C            1.934042190311    -0.514366862478    -0.753156514809    12.000000000000
         C            1.934034190311    -0.514362862478     0.753170485191    12.000000000000
         C           -0.509832809689    -0.356483862478    -0.000004514809    12.000000000000
         C           -2.804123809689     0.077524137522     0.000006485191    12.000000000000
         H            2.661276190311     0.115651137522    -1.253539514809     1.007825032230
         H            1.642745190311    -1.422318862478    -1.269250514809     1.007825032230
         H            1.642736190311    -1.422309862478     1.269272485191     1.007825032230
         H            2.661263190311     0.115657137522     1.253558485191     1.007825032230
         H           -3.442536809689     0.958143137522     0.000012485191     1.007825032230
         H           -2.974646809689    -0.529319862478     0.890101485191     1.007825032230
         H           -2.974656809689    -0.529314862478    -0.890090514809     1.007825032230

  Basis Set: AUG-CC-PVTZ
    Blend: AUG-CC-PVTZ
  Basis Set: (AUG-CC-PVTZ AUX)
    Blend: AUG-CC-PVTZ-JKFIT
	 Reference Energy          =    -442.7048324013350111 [Eh]
	 Singles Energy            =      -0.0000000000000000 [Eh]
	 Same-Spin Energy          =      -0.4161165568667208 [Eh]
	 Opposite-Spin Energy      =      -1.2928711655069174 [Eh]
	 Correlation Energy        =      -1.7089877223736383 [Eh]
	 Total Energy              =    -444.4138201237086605 [Eh]

	 ================> DF-SCS-MP2 Energies <==================
	-----------------------------------------------------------
	 SCS Same-Spin Scale       =       0.3333333333333333 [-]
	 SCS Opposite-Spin Scale   =       1.2000000000000000 [-]
	 SCS Same-Spin Energy      =      -0.1387055189555736 [Eh]
	 SCS Opposite-Spin Energy  =      -1.5514453986083008 [Eh]
	 SCS Correlation Energy    =      -1.6901509175638743 [Eh]
	 SCS Total Energy          =    -444.3949833188988805 [Eh]
	-----------------------------------------------------------

  Dipole Moment: [D]
     X:    -0.5566      Y:    -0.2264      Z:     0.0000     Total:     0.6009

*** Psi4 exiting successfully. Buy a developer a beer!
