                               Psi4 1.3.2 release

  ==> Input File <==

--------------------------------------------------------------------------
#psi4
#
memory 32 gb

molecule  {
0 1
  F        0.9463590     1.6328250    -0.0000060
  O       -1.3288330     0.7342234     0.0000003
  O       -0.7019790    -1.5172570    -0.0000080
  C        0.8874440     0.2587590    -0.0000040
  C        1.9567240    -0.4715930    -0.7531570
  C        1.9567160    -0.4715890     0.7531700
  C       -0.4871510    -0.3137100    -0.0000050
  C       -2.7814420     0.1202980     0.0000060
  H        2.6839580     0.1584250    -1.2535400
  H        1.6654270    -1.3795450    -1.2692510
  H        1.6654180    -1.3795360     1.2692720
  H        2.6839450     0.1584310     1.2535580
  H       -3.4198550     1.0009170     0.0000120
  H       -2.9519650    -0.4865460     0.8901010
  H       -2.9519750    -0.4865410    -0.8900910
units angstrom
no_reorient  #important for SAPT in psi4, default
symmetry c1  #important for SAPT in psi4, default
}

set PROPERTIES_ORIGIN ["COM"]
properties('MP2/aug-cc-pvtz', properties = ['dipole'])
--------------------------------------------------------------------------

    Molecular point group: c1
  Charge       = 0
  Multiplicity = 1
  Basis Set: AUG-CC-PVTZ
    Blend: AUG-CC-PVTZ
  Basis Set: (AUG-CC-PVTZ AUX)
    Blend: AUG-CC-PVTZ-JKFIT

    Orbital Energies [Eh]
    ---------------------

    Doubly Occupied:

       1A    -26.292946     2A    -20.621819     3A    -20.554983
       4A    -11.394001     5A    -11.331130     6A    -11.307660
       7A    -11.248949     8A    -11.248273     9A     -1.605646
      10A     -1.449480    11A     -1.359765    12A     -1.166968
      13A     -0.988306    14A     -0.894273    15A     -0.851812
      16A     -0.777031    17A     -0.747737    18A     -0.705936
      19A     -0.682566    20A     -0.665254    21A     -0.656254
      22A     -0.632777    23A     -0.625180    24A     -0.574818
      25A     -0.570835    26A     -0.551578    27A     -0.533754
      28A     -0.483675    29A     -0.481089    30A     -0.435704
      31A     -0.430581

  @DF-RHF Final Energy:  -442.69566079848357

   => Energetics <=

    Nuclear Repulsion Energy =            389.9739671492353636
    One-Electron Energy =               -1381.5976942997954211
    Two-Electron Energy =                 548.9280663520764847
    Total Energy =                       -442.6956607984835728
  Basis Set: (AUG-CC-PVTZ AUX)
    Blend: AUG-CC-PVTZ-RI
    Molecular point group: c1

    Geometry (in Angstrom), charge = 0, multiplicity = 1:

       Center              X                  Y                   Z               Mass
    ------------   -----------------  -----------------  -----------------  -----------------
         F            0.918791087908     1.585984408080    -0.000005528359    18.998403162730
         O           -1.356400912092     0.687382808080     0.000000771641    15.994914619570
         O           -0.729546912092    -1.564097591920    -0.000007528359    15.994914619570
         C            0.859876087908     0.211918408080    -0.000003528359    12.000000000000
         C            1.929156087908    -0.518433591920    -0.753156528359    12.000000000000
         C            1.929148087908    -0.518429591920     0.753170471641    12.000000000000
         C           -0.514718912092    -0.360550591920    -0.000004528359    12.000000000000
         C           -2.809009912092     0.073457408080     0.000006471641    12.000000000000
         H            2.656390087908     0.111584408080    -1.253539528359     1.007825032230
         H            1.637859087908    -1.426385591920    -1.269250528359     1.007825032230
         H            1.637850087908    -1.426376591920     1.269272471641     1.007825032230
         H            2.656377087908     0.111590408080     1.253558471641     1.007825032230
         H           -3.447422912092     0.954076408080     0.000012471641     1.007825032230
         H           -2.979532912092    -0.533386591920     0.890101471641     1.007825032230
         H           -2.979542912092    -0.533381591920    -0.890090528359     1.007825032230

  Basis Set: AUG-CC-PVTZ
    Blend: AUG-CC-PVTZ
  Basis Set: (AUG-CC-PVTZ AUX)
    Blend: AUG-CC-PVTZ-JKFIT
	 Reference Energy          =    -442.6956607984835728 [Eh]
	 Singles Energy            =      -0.0000000000000000 [Eh]
	 Same-Spin Energy          =      -0.4168313030408948 [Eh]
	 Opposite-Spin Energy      =      -1.2948158728312973 [Eh]
	 Correlation Energy        =      -1.7116471758721921 [Eh]
	 Total Energy              =    -444.4073079743557741 [Eh]

	 ================> DF-SCS-MP2 Energies <==================
	-----------------------------------------------------------
	 SCS Same-Spin Scale       =       0.3333333333333333 [-]
	 SCS Opposite-Spin Scale   =       1.2000000000000000 [-]
	 SCS Same-Spin Energy      =      -0.1389437676802983 [Eh]
	 SCS Opposite-Spin Energy  =      -1.5537790473975568 [Eh]
	 SCS Correlation Energy    =      -1.6927228150778550 [Eh]
	 SCS Total Energy          =    -444.3883836135614160 [Eh]
	-----------------------------------------------------------

  Dipole Moment: [D]
     X:    -0.7181      Y:    -0.2626      Z:     0.0000     Total:     0.7646

*** Psi4 exiting successfully. Buy a developer a beer!
