                               Psi4 1.3.2 release

  ==> Input File <==

--------------------------------------------------------------------------
#psi4
#
memory 32 gb

molecule  {
0 1
  F        0.9858865     1.6302916    -0.0271296
  O       -1.4337610     0.6405030     0.0000000
  O       -0.7019790    -1.5172570    -0.0000080
  C        0.8874440     0.2587590    -0.0000040
  C        1.9567240    -0.4715930    -0.7531570
  C        1.9567160    -0.4715890     0.7531700
  C       -0.4871510    -0.3137100    -0.0000050
  C       -2.7814420     0.1202980     0.0000060
  H        2.6839580     0.1584250    -1.2535400
  H        1.6654270    -1.3795450    -1.2692510
  H        1.6654180    -1.3795360     1.2692720
  H        2.6839450     0.1584310     1.2535580
  H       -3.4198550     1.0009170     0.0000120
  H       -2.9519650    -0.4865460     0.8901010
  H       -2.9519750    -0.4865410    -0.8900910
units angstrom
no_reorient  #important for SAPT in psi4, default
symmetry c1  #important for SAPT in psi4, default
}

set PROPERTIES_ORIGIN ["COM"]
properties('MP2/aug-cc-pvtz', properties = ['dipole'])
--------------------------------------------------------------------------

    Molecular point group: c1
  Charge       = 0
  Multiplicity = 1
  Basis Set: AUG-CC-PVTZ
    Blend: AUG-CC-PVTZ
  Basis Set: (AUG-CC-PVTZ AUX)
    Blend: AUG-CC-PVTZ-JKFIT

    Orbital Energies [Eh]
    ---------------------

    Doubly Occupied:

       1A    -26.299011     2A    -20.617334     3A    -20.554097
       4A    -11.398068     5A    -11.340127     6A    -11.292411
       7A    -11.253835     8A    -11.252442     9A     -1.610978
      10A     -1.466718    11A     -1.365453    12A     -1.172361
      13A     -1.000147    14A     -0.893401    15A     -0.856340
      16A     -0.783525    17A     -0.759383    18A     -0.708823
      19A     -0.689094    20A     -0.669563    21A     -0.669458
      22A     -0.647622    23A     -0.627424    24A     -0.589262
      25A     -0.565999    26A     -0.540841    27A     -0.534718
      28A     -0.484259    29A     -0.473740    30A     -0.444301
      31A     -0.435015

  @DF-RHF Final Energy:  -442.71521683673183

   => Energetics <=

    Nuclear Repulsion Energy =            390.3960940001837230
    One-Electron Energy =               -1382.2311245940700246
    Two-Electron Energy =                 549.1198137571545885
    Total Energy =                       -442.7152168367317699
  Basis Set: (AUG-CC-PVTZ AUX)
    Blend: AUG-CC-PVTZ-RI
    Molecular point group: c1

    Geometry (in Angstrom), charge = 0, multiplicity = 1:

       Center              X                  Y                   Z               Mass
    ------------   -----------------  -----------------  -----------------  -----------------
         F            0.966174665441     1.596557928870    -0.022763686501    18.998403162730
         O           -1.453472834559     0.606769328870     0.004365913499    15.994914619570
         O           -0.721690834559    -1.550990671130     0.004357913499    15.994914619570
         C            0.867732165441     0.225025328870     0.004361913499    12.000000000000
         C            1.937012165441    -0.505326671130    -0.748791086501    12.000000000000
         C            1.937004165441    -0.505322671130     0.757535913499    12.000000000000
         C           -0.506862834559    -0.347443671130     0.004360913499    12.000000000000
         C           -2.801153834559     0.086564328870     0.004371913499    12.000000000000
         H            2.664246165441     0.124691328870    -1.249174086501     1.007825032230
         H            1.645715165441    -1.413278671130    -1.264885086501     1.007825032230
         H            1.645706165441    -1.413269671130     1.273637913499     1.007825032230
         H            2.664233165441     0.124697328870     1.257923913499     1.007825032230
         H           -3.439566834559     0.967183328870     0.004377913499     1.007825032230
         H           -2.971676834559    -0.520279671130     0.894466913499     1.007825032230
         H           -2.971686834559    -0.520274671130    -0.885725086501     1.007825032230

  Basis Set: AUG-CC-PVTZ
    Blend: AUG-CC-PVTZ
  Basis Set: (AUG-CC-PVTZ AUX)
    Blend: AUG-CC-PVTZ-JKFIT
	 Reference Energy          =    -442.7152168367318268 [Eh]
	 Singles Energy            =      -0.0000000000000000 [Eh]
	 Same-Spin Energy          =      -0.4150549617275352 [Eh]
	 Opposite-Spin Energy      =      -1.2896609826604077 [Eh]
	 Correlation Energy        =      -1.7047159443879429 [Eh]
	 Total Energy              =    -444.4199327811197691 [Eh]

	 ================> DF-SCS-MP2 Energies <==================
	-----------------------------------------------------------
	 SCS Same-Spin Scale       =       0.3333333333333333 [-]
	 SCS Opposite-Spin Scale   =       1.2000000000000000 [-]
	 SCS Same-Spin Energy      =      -0.1383516539091784 [Eh]
	 SCS Opposite-Spin Energy  =      -1.5475931791924893 [Eh]
	 SCS Correlation Energy    =      -1.6859448331016678 [Eh]
	 SCS Total Energy          =    -444.4011616698334706 [Eh]
	-----------------------------------------------------------

  Dipole Moment: [D]
     X:    -0.2719      Y:    -0.1389      Z:     0.0276     Total:     0.3066

*** Psi4 exiting successfully. Buy a developer a beer!
