                               Psi4 1.4a3.dev225

  ==> Input File <==

--------------------------------------------------------------------------
#psi4
#
memory 32 gb

molecule  {
0 1
  F        0.9463590     1.6328250    -0.0000060
  O       -1.4337610     0.6405030     0.0000000
  O       -0.7019790    -1.5172570    -0.0000080
  C        0.8874440     0.2587590    -0.0000040
  C        1.9567240    -0.4715930    -0.7531570
  C        1.9567160    -0.4715890     0.7531700
  C       -0.4409938    -0.2944872    -0.0000050
  C       -2.7814420     0.1202980     0.0000060
  H        2.6839580     0.1584250    -1.2535400
  H        1.6654270    -1.3795450    -1.2692510
  H        1.6654180    -1.3795360     1.2692720
  H        2.6839450     0.1584310     1.2535580
  H       -3.4198550     1.0009170     0.0000120
  H       -2.9519650    -0.4865460     0.8901010
  H       -2.9519750    -0.4865410    -0.8900910
units angstrom
no_reorient  #important for SAPT in psi4, default
symmetry c1  #important for SAPT in psi4, default
}

set PROPERTIES_ORIGIN ["COM"]
properties('MP2/aug-cc-pvtz', properties = ['dipole'])
--------------------------------------------------------------------------

    Molecular point group: c1
  Charge       = 0
  Multiplicity = 1
  Basis Set: AUG-CC-PVTZ
    Blend: AUG-CC-PVTZ
  Basis Set: (AUG-CC-PVTZ AUX)
    Blend: AUG-CC-PVTZ-JKFIT

    Orbital Energies [Eh]
    ---------------------

    Doubly Occupied:

       1A    -26.302661     2A    -20.611777     3A    -20.549715
       4A    -11.399046     5A    -11.343176     6A    -11.289177
       7A    -11.259573     8A    -11.258894     9A     -1.615023
      10A     -1.452183    11A     -1.346243    12A     -1.180563
      13A     -1.002317    14A     -0.905121    15A     -0.861633
      16A     -0.783970    17A     -0.754872    18A     -0.712645
      19A     -0.690709    20A     -0.663697    21A     -0.662401
      22A     -0.645206    23A     -0.631613    24A     -0.591704
      25A     -0.563284    26A     -0.536080    27A     -0.533475
      28A     -0.479984    29A     -0.467578    30A     -0.450414
      31A     -0.436903

  @DF-RHF Final Energy:  -442.70827824365381

   => Energetics <=

    Nuclear Repulsion Energy =            390.6489435817979938
    One-Electron Energy =               -1382.7511703021259564
    Two-Electron Energy =                 549.3939484766741543
    Total Energy =                       -442.7082782436538082
  Basis Set: (AUG-CC-PVTZ AUX)
    Blend: AUG-CC-PVTZ-RI
    Molecular point group: c1

    Geometry (in Angstrom), charge = 0, multiplicity = 1:

       Center              X                  Y                   Z               Mass
    ------------   -----------------  -----------------  -----------------  -----------------
         F            0.928316666964     1.596729442637    -0.000005487709    18.998403162730
         O           -1.451803333036     0.604407442637     0.000000512291    15.994914619570
         O           -0.720021333036    -1.553352557363    -0.000007487709    15.994914619570
         C            0.869401666964     0.222663442637    -0.000003487709    12.000000000000
         C            1.938681666964    -0.507688557363    -0.753156487709    12.000000000000
         C            1.938673666964    -0.507684557363     0.753170512291    12.000000000000
         C           -0.459036133036    -0.330582757363    -0.000004487709    12.000000000000
         C           -2.799484333036     0.084202442637     0.000006512291    12.000000000000
         H            2.665915666964     0.122329442637    -1.253539487709     1.007825032230
         H            1.647384666964    -1.415640557363    -1.269250487709     1.007825032230
         H            1.647375666964    -1.415631557363     1.269272512291     1.007825032230
         H            2.665902666964     0.122335442637     1.253558512291     1.007825032230
         H           -3.437897333036     0.964821442637     0.000012512291     1.007825032230
         H           -2.970007333036    -0.522641557363     0.890101512291     1.007825032230
         H           -2.970017333036    -0.522636557363    -0.890090487709     1.007825032230

  Basis Set: AUG-CC-PVTZ
    Blend: AUG-CC-PVTZ
  Basis Set: (AUG-CC-PVTZ AUX)
    Blend: AUG-CC-PVTZ-JKFIT
	 Reference Energy          =    -442.7082782436538082 [Eh]
	 Singles Energy            =      -0.0000000000000000 [Eh]
	 Same-Spin Energy          =      -0.4161060468624772 [Eh]
	 Opposite-Spin Energy      =      -1.2916043040958425 [Eh]
	 Correlation Energy        =      -1.7077103509583196 [Eh]
	 Total Energy              =    -444.4159885946121449 [Eh]

	 ================> DF-SCS-MP2 Energies <==================
	-----------------------------------------------------------
	 SCS Same-Spin Scale       =       0.3333333333333333 [-]
	 SCS Opposite-Spin Scale   =       1.2000000000000000 [-]
	 SCS Same-Spin Energy      =      -0.1387020156208257 [Eh]
	 SCS Opposite-Spin Energy  =      -1.5499251649150110 [Eh]
	 SCS Correlation Energy    =      -1.6886271805358366 [Eh]
	 SCS Total Energy          =    -444.3969054241896401 [Eh]
	-----------------------------------------------------------

  Dipole Moment: [D]
     X:     0.1606      Y:    -0.0790      Z:     0.0000     Total:     0.1790

*** Psi4 exiting successfully. Buy a developer a beer!
