                               Psi4 1.3.2 release

  ==> Input File <==

--------------------------------------------------------------------------
#psi4
#
memory 32 gb

molecule  {
0 1
  F        0.9463590     1.6328250    -0.0000060
  O       -1.4337610     0.6405030     0.0000000
  O       -0.8266071    -1.4882082    -0.0000079
  C        0.8874440     0.2587590    -0.0000040
  C        1.9567240    -0.4715930    -0.7531570
  C        1.9567160    -0.4715890     0.7531700
  C       -0.4871510    -0.3137100    -0.0000050
  C       -2.7814420     0.1202980     0.0000060
  H        2.6839580     0.1584250    -1.2535400
  H        1.6654270    -1.3795450    -1.2692510
  H        1.6654180    -1.3795360     1.2692720
  H        2.6839450     0.1584310     1.2535580
  H       -3.4198550     1.0009170     0.0000120
  H       -2.9519650    -0.4865460     0.8901010
  H       -2.9519750    -0.4865410    -0.8900910
units angstrom
no_reorient  #important for SAPT in psi4, default
symmetry c1  #important for SAPT in psi4, default
}

set PROPERTIES_ORIGIN ["COM"]
properties('MP2/aug-cc-pvtz', properties = ['dipole'])
--------------------------------------------------------------------------

    Molecular point group: c1
  Charge       = 0
  Multiplicity = 1
  Basis Set: AUG-CC-PVTZ
    Blend: AUG-CC-PVTZ
  Basis Set: (AUG-CC-PVTZ AUX)
    Blend: AUG-CC-PVTZ-JKFIT

    Orbital Energies [Eh]
    ---------------------

    Doubly Occupied:

       1A    -26.303476     2A    -20.607915     3A    -20.550742
       4A    -11.395791     5A    -11.346918     6A    -11.286464
       7A    -11.258537     8A    -11.257861     9A     -1.614811
      10A     -1.466295    11A     -1.354885    12A     -1.178388
      13A     -0.997512    14A     -0.894325    15A     -0.860695
      16A     -0.783582    17A     -0.756776    18A     -0.711819
      19A     -0.691053    20A     -0.669213    21A     -0.667177
      22A     -0.647326    23A     -0.632046    24A     -0.588610
      25A     -0.562102    26A     -0.537746    27A     -0.533570
      28A     -0.483660    29A     -0.468311    30A     -0.446909
      31A     -0.439864

  @DF-RHF Final Energy:  -442.71237840552442

   => Energetics <=

    Nuclear Repulsion Energy =            390.5453884970050353
    One-Electron Energy =               -1382.5267807976561016
    Two-Electron Energy =                 549.2690138951267045
    Total Energy =                       -442.7123784055244187
  Basis Set: (AUG-CC-PVTZ AUX)
    Blend: AUG-CC-PVTZ-RI
    Molecular point group: c1

    Geometry (in Angstrom), charge = 0, multiplicity = 1:

       Center              X                  Y                   Z               Mass
    ------------   -----------------  -----------------  -----------------  -----------------
         F            0.949896108813     1.594747457592    -0.000005501259    18.998403162730
         O           -1.430223891187     0.602425457592     0.000000498741    15.994914619570
         O           -0.823069991187    -1.526285742408    -0.000007401259    15.994914619570
         C            0.890981108813     0.220681457592    -0.000003501259    12.000000000000
         C            1.960261108813    -0.509670542408    -0.753156501259    12.000000000000
         C            1.960253108813    -0.509666542408     0.753170498741    12.000000000000
         C           -0.483613891187    -0.351787542408    -0.000004501259    12.000000000000
         C           -2.777904891187     0.082220457592     0.000006498741    12.000000000000
         H            2.687495108813     0.120347457592    -1.253539501259     1.007825032230
         H            1.668964108813    -1.417622542408    -1.269250501259     1.007825032230
         H            1.668955108813    -1.417613542408     1.269272498741     1.007825032230
         H            2.687482108813     0.120353457592     1.253558498741     1.007825032230
         H           -3.416317891187     0.962839457592     0.000012498741     1.007825032230
         H           -2.948427891187    -0.524623542408     0.890101498741     1.007825032230
         H           -2.948437891187    -0.524618542408    -0.890090501259     1.007825032230

  Basis Set: AUG-CC-PVTZ
    Blend: AUG-CC-PVTZ
  Basis Set: (AUG-CC-PVTZ AUX)
    Blend: AUG-CC-PVTZ-JKFIT
	 Reference Energy          =    -442.7123784055244187 [Eh]
	 Singles Energy            =      -0.0000000000000000 [Eh]
	 Same-Spin Energy          =      -0.4151219927697160 [Eh]
	 Opposite-Spin Energy      =      -1.2896061938593726 [Eh]
	 Correlation Energy        =      -1.7047281866290884 [Eh]
	 Total Energy              =    -444.4171065921535160 [Eh]

	 ================> DF-SCS-MP2 Energies <==================
	-----------------------------------------------------------
	 SCS Same-Spin Scale       =       0.3333333333333333 [-]
	 SCS Opposite-Spin Scale   =       1.2000000000000000 [-]
	 SCS Same-Spin Energy      =      -0.1383739975899053 [Eh]
	 SCS Opposite-Spin Energy  =      -1.5475274326312471 [Eh]
	 SCS Correlation Energy    =      -1.6859014302211524 [Eh]
	 SCS Total Energy          =    -444.3982798357455977 [Eh]
	-----------------------------------------------------------

  Dipole Moment: [D]
     X:     0.2211      Y:    -0.1795      Z:     0.0000     Total:     0.2848

*** Psi4 exiting successfully. Buy a developer a beer!
