                               Psi4 1.3.2 release

  ==> Input File <==

--------------------------------------------------------------------------
#psi4
#
memory 32 gb

molecule  {
0 1
  F        0.8671368     1.6328685     0.0542082
  O       -1.4337610     0.6405030     0.0000000
  O       -0.7019790    -1.5172570    -0.0000080
  C        0.8874440     0.2587590    -0.0000040
  C        1.9567240    -0.4715930    -0.7531570
  C        1.9567160    -0.4715890     0.7531700
  C       -0.4871510    -0.3137100    -0.0000050
  C       -2.7814420     0.1202980     0.0000060
  H        2.6839580     0.1584250    -1.2535400
  H        1.6654270    -1.3795450    -1.2692510
  H        1.6654180    -1.3795360     1.2692720
  H        2.6839450     0.1584310     1.2535580
  H       -3.4198550     1.0009170     0.0000120
  H       -2.9519650    -0.4865460     0.8901010
  H       -2.9519750    -0.4865410    -0.8900910
units angstrom
no_reorient  #important for SAPT in psi4, default
symmetry c1  #important for SAPT in psi4, default
}

set PROPERTIES_ORIGIN ["COM"]
properties('MP2/aug-cc-pvtz', properties = ['dipole'])
--------------------------------------------------------------------------

    Molecular point group: c1
  Charge       = 0
  Multiplicity = 1
  Basis Set: AUG-CC-PVTZ
    Blend: AUG-CC-PVTZ
  Basis Set: (AUG-CC-PVTZ AUX)
    Blend: AUG-CC-PVTZ-JKFIT

    Orbital Energies [Eh]
    ---------------------

    Doubly Occupied:

       1A    -26.298303     2A    -20.615021     3A    -20.551512
       4A    -11.394068     5A    -11.340416     6A    -11.290958
       7A    -11.256267     8A    -11.253717     9A     -1.610588
      10A     -1.464217    11A     -1.363161    12A     -1.173694
      13A     -0.998756    14A     -0.893605    15A     -0.857182
      16A     -0.780415    17A     -0.757306    18A     -0.711322
      19A     -0.689434    20A     -0.669379    21A     -0.666848
      22A     -0.643023    23A     -0.631377    24A     -0.586846
      25A     -0.564459    26A     -0.538645    27A     -0.535822
      28A     -0.483936    29A     -0.472055    30A     -0.444527
      31A     -0.435615

  @DF-RHF Final Energy:  -442.71451512622480

   => Energetics <=

    Nuclear Repulsion Energy =            391.1527429667504521
    One-Electron Energy =               -1383.7895657669632783
    Two-Electron Energy =                 549.9223076739880298
    Total Energy =                       -442.7145151262247964
  Basis Set: (AUG-CC-PVTZ AUX)
    Blend: AUG-CC-PVTZ-RI
    Molecular point group: c1

    Geometry (in Angstrom), charge = 0, multiplicity = 1:

       Center              X                  Y                   Z               Mass
    ------------   -----------------  -----------------  -----------------  -----------------
         F            0.866537107036     1.598720090326     0.045483221053    18.998403162730
         O           -1.434360692964     0.606354590326    -0.008724978947    15.994914619570
         O           -0.702578692964    -1.551405409674    -0.008732978947    15.994914619570
         C            0.886844307036     0.224610590326    -0.008728978947    12.000000000000
         C            1.956124307036    -0.505741409674    -0.761881978947    12.000000000000
         C            1.956116307036    -0.505737409674     0.744445021053    12.000000000000
         C           -0.487750692964    -0.347858409674    -0.008729978947    12.000000000000
         C           -2.782041692964     0.086149590326    -0.008718978947    12.000000000000
         H            2.683358307036     0.124276590326    -1.262264978947     1.007825032230
         H            1.664827307036    -1.413693409674    -1.277975978947     1.007825032230
         H            1.664818307036    -1.413684409674     1.260547021053     1.007825032230
         H            2.683345307036     0.124282590326     1.244833021053     1.007825032230
         H           -3.420454692964     0.966768590326    -0.008712978947     1.007825032230
         H           -2.952564692964    -0.520694409674     0.881376021053     1.007825032230
         H           -2.952574692964    -0.520689409674    -0.898815978947     1.007825032230

  Basis Set: AUG-CC-PVTZ
    Blend: AUG-CC-PVTZ
  Basis Set: (AUG-CC-PVTZ AUX)
    Blend: AUG-CC-PVTZ-JKFIT
	 Reference Energy          =    -442.7145151262247964 [Eh]
	 Singles Energy            =      -0.0000000000000000 [Eh]
	 Same-Spin Energy          =      -0.4149796775412471 [Eh]
	 Opposite-Spin Energy      =      -1.2895048974143599 [Eh]
	 Correlation Energy        =      -1.7044845749556070 [Eh]
	 Total Energy              =    -444.4189997011803825 [Eh]

	 ================> DF-SCS-MP2 Energies <==================
	-----------------------------------------------------------
	 SCS Same-Spin Scale       =       0.3333333333333333 [-]
	 SCS Opposite-Spin Scale   =       1.2000000000000000 [-]
	 SCS Same-Spin Energy      =      -0.1383265591804157 [Eh]
	 SCS Opposite-Spin Energy  =      -1.5474058768972319 [Eh]
	 SCS Correlation Energy    =      -1.6857324360776476 [Eh]
	 SCS Total Energy          =    -444.4002475623024679 [Eh]
	-----------------------------------------------------------

  Dipole Moment: [D]
     X:    -0.0830      Y:    -0.1233      Z:    -0.0551     Total:     0.1586

*** Psi4 exiting successfully. Buy a developer a beer!
