                               Psi4 1.4a3.dev225

  ==> Input File <==

--------------------------------------------------------------------------
#psi4
#
memory 32 gb

molecule  {
0 1
  F        0.9463590     1.6328250    -0.0000060
  O       -1.4337610     0.6405030     0.0000000
  O       -0.7019790    -1.5172570    -0.0000080
  C        0.8895859     0.3087131    -0.0000041
  C        1.9567240    -0.4715930    -0.7531570
  C        1.9567160    -0.4715890     0.7531700
  C       -0.4871510    -0.3137100    -0.0000050
  C       -2.7814420     0.1202980     0.0000060
  H        2.6839580     0.1584250    -1.2535400
  H        1.6654270    -1.3795450    -1.2692510
  H        1.6654180    -1.3795360     1.2692720
  H        2.6839450     0.1584310     1.2535580
  H       -3.4198550     1.0009170     0.0000120
  H       -2.9519650    -0.4865460     0.8901010
  H       -2.9519750    -0.4865410    -0.8900910
units angstrom
no_reorient  #important for SAPT in psi4, default
symmetry c1  #important for SAPT in psi4, default
}

set PROPERTIES_ORIGIN ["COM"]
properties('MP2/aug-cc-pvtz', properties = ['dipole'])
--------------------------------------------------------------------------

    Molecular point group: c1
  Charge       = 0
  Multiplicity = 1
  Basis Set: AUG-CC-PVTZ
    Blend: AUG-CC-PVTZ
  Basis Set: (AUG-CC-PVTZ AUX)
    Blend: AUG-CC-PVTZ-JKFIT

    Orbital Energies [Eh]
    ---------------------

    Doubly Occupied:

       1A    -26.310791     2A    -20.614991     3A    -20.552093
       4A    -11.395502     5A    -11.341306     6A    -11.290945
       7A    -11.252733     8A    -11.252057     9A     -1.638777
      10A     -1.464404    11A     -1.362714    12A     -1.161611
      13A     -0.997533    14A     -0.891455    15A     -0.853299
      16A     -0.794763    17A     -0.759666    18A     -0.716427
      19A     -0.702087    20A     -0.671940    21A     -0.669263
      22A     -0.646713    23A     -0.633985    24A     -0.585349
      25A     -0.562711    26A     -0.539535    27A     -0.533704
      28A     -0.483592    29A     -0.471711    30A     -0.439229
      31A     -0.423864

  @DF-RHF Final Energy:  -442.71382347312863

   => Energetics <=

    Nuclear Repulsion Energy =            390.6211835783601600
    One-Electron Energy =               -1382.6405147692030368
    Two-Electron Energy =                 549.3055077177142493
    Total Energy =                       -442.7138234731286275
  Basis Set: (AUG-CC-PVTZ AUX)
    Blend: AUG-CC-PVTZ-RI
    Molecular point group: c1

    Geometry (in Angstrom), charge = 0, multiplicity = 1:

       Center              X                  Y                   Z               Mass
    ------------   -----------------  -----------------  -----------------  -----------------
         F            0.932791168340     1.593605364325    -0.000005477543    18.998403162730
         O           -1.447328831660     0.601283364325     0.000000522457    15.994914619570
         O           -0.715546831660    -1.556476635675    -0.000007477543    15.994914619570
         C            0.876018068340     0.269493464325    -0.000003577543    12.000000000000
         C            1.943156168340    -0.510812635675    -0.753156477543    12.000000000000
         C            1.943148168340    -0.510808635675     0.753170522457    12.000000000000
         C           -0.500718831660    -0.352929635675    -0.000004477543    12.000000000000
         C           -2.795009831660     0.081078364325     0.000006522457    12.000000000000
         H            2.670390168340     0.119205364325    -1.253539477543     1.007825032230
         H            1.651859168340    -1.418764635675    -1.269250477543     1.007825032230
         H            1.651850168340    -1.418755635675     1.269272522457     1.007825032230
         H            2.670377168340     0.119211364325     1.253558522457     1.007825032230
         H           -3.433422831660     0.961697364325     0.000012522457     1.007825032230
         H           -2.965532831660    -0.525765635675     0.890101522457     1.007825032230
         H           -2.965542831660    -0.525760635675    -0.890090477543     1.007825032230

  Basis Set: AUG-CC-PVTZ
    Blend: AUG-CC-PVTZ
  Basis Set: (AUG-CC-PVTZ AUX)
    Blend: AUG-CC-PVTZ-JKFIT
	 Reference Energy          =    -442.7138234731286275 [Eh]
	 Singles Energy            =      -0.0000000000000000 [Eh]
	 Same-Spin Energy          =      -0.4149013172332557 [Eh]
	 Opposite-Spin Energy      =      -1.2887995694003334 [Eh]
	 Correlation Energy        =      -1.7037008866335892 [Eh]
	 Total Energy              =    -444.4175243597622398 [Eh]

	 ================> DF-SCS-MP2 Energies <==================
	-----------------------------------------------------------
	 SCS Same-Spin Scale       =       0.3333333333333333 [-]
	 SCS Opposite-Spin Scale   =       1.2000000000000000 [-]
	 SCS Same-Spin Energy      =      -0.1383004390777519 [Eh]
	 SCS Opposite-Spin Energy  =      -1.5465594832803999 [Eh]
	 SCS Correlation Energy    =      -1.6848599223581517 [Eh]
	 SCS Total Energy          =    -444.3986833954867848 [Eh]
	-----------------------------------------------------------

  Dipole Moment: [D]
     X:    -0.2130      Y:     0.0858      Z:     0.0000     Total:     0.2297

*** Psi4 exiting successfully. Buy a developer a beer!
