                               Psi4 1.4a3.dev225

  ==> Input File <==

--------------------------------------------------------------------------
#psi4
#
memory 32 gb

molecule  {
0 1
  F        0.9463590     1.6328250    -0.0000060
  O       -1.4337610     0.6405030     0.0000000
  O       -0.7019790    -1.5172570    -0.0000080
  C        0.8865873     0.2387774    -0.0000040
  C        1.9567240    -0.4715930    -0.7531570
  C        1.9567160    -0.4715890     0.7531700
  C       -0.4871510    -0.3137100    -0.0000050
  C       -2.7814420     0.1202980     0.0000060
  H        2.6839580     0.1584250    -1.2535400
  H        1.6654270    -1.3795450    -1.2692510
  H        1.6654180    -1.3795360     1.2692720
  H        2.6839450     0.1584310     1.2535580
  H       -3.4198550     1.0009170     0.0000120
  H       -2.9519650    -0.4865460     0.8901010
  H       -2.9519750    -0.4865410    -0.8900910
units angstrom
no_reorient  #important for SAPT in psi4, default
symmetry c1  #important for SAPT in psi4, default
}

set PROPERTIES_ORIGIN ["COM"]
properties('MP2/aug-cc-pvtz', properties = ['dipole'])
--------------------------------------------------------------------------

    Molecular point group: c1
  Charge       = 0
  Multiplicity = 1
  Basis Set: AUG-CC-PVTZ
    Blend: AUG-CC-PVTZ
  Basis Set: (AUG-CC-PVTZ AUX)
    Blend: AUG-CC-PVTZ-JKFIT

    Orbital Energies [Eh]
    ---------------------

    Doubly Occupied:

       1A    -26.294053     2A    -20.617251     3A    -20.553756
       4A    -11.397263     5A    -11.340065     6A    -11.292349
       7A    -11.254624     8A    -11.253948     9A     -1.600418
      10A     -1.466525    11A     -1.365561    12A     -1.177274
      13A     -1.000595    14A     -0.894779    15A     -0.858047
      16A     -0.778983    17A     -0.757650    18A     -0.707656
      19A     -0.686173    20A     -0.669989    21A     -0.665538
      22A     -0.644779    23A     -0.626577    24A     -0.589358
      25A     -0.566699    26A     -0.540347    27A     -0.535706
      28A     -0.484240    29A     -0.473873    30A     -0.446309
      31A     -0.439513

  @DF-RHF Final Energy:  -442.71454402600011

   => Energetics <=

    Nuclear Repulsion Energy =            390.6275858617732979
    One-Electron Energy =               -1382.7244641461822994
    Two-Electron Energy =                 549.3823342584089460
    Total Energy =                       -442.7145440260001124
  Basis Set: (AUG-CC-PVTZ AUX)
    Blend: AUG-CC-PVTZ-RI
    Molecular point group: c1

    Geometry (in Angstrom), charge = 0, multiplicity = 1:

       Center              X                  Y                   Z               Mass
    ------------   -----------------  -----------------  -----------------  -----------------
         F            0.933095999610     1.600714878195    -0.000005487709    18.998403162730
         O           -1.447024000390     0.608392878195     0.000000512291    15.994914619570
         O           -0.715242000390    -1.549367121805    -0.000007487709    15.994914619570
         C            0.873324299610     0.206667278195    -0.000003487709    12.000000000000
         C            1.943460999610    -0.503703121805    -0.753156487709    12.000000000000
         C            1.943452999610    -0.503699121805     0.753170512291    12.000000000000
         C           -0.500414000390    -0.345820121805    -0.000004487709    12.000000000000
         C           -2.794705000390     0.088187878195     0.000006512291    12.000000000000
         H            2.670694999610     0.126314878195    -1.253539487709     1.007825032230
         H            1.652163999610    -1.411655121805    -1.269250487709     1.007825032230
         H            1.652154999610    -1.411646121805     1.269272512291     1.007825032230
         H            2.670681999610     0.126320878195     1.253558512291     1.007825032230
         H           -3.433118000390     0.968806878195     0.000012512291     1.007825032230
         H           -2.965228000390    -0.518656121805     0.890101512291     1.007825032230
         H           -2.965238000390    -0.518651121805    -0.890090487709     1.007825032230

  Basis Set: AUG-CC-PVTZ
    Blend: AUG-CC-PVTZ
  Basis Set: (AUG-CC-PVTZ AUX)
    Blend: AUG-CC-PVTZ-JKFIT
	 Reference Energy          =    -442.7145440260001124 [Eh]
	 Singles Energy            =      -0.0000000000000000 [Eh]
	 Same-Spin Energy          =      -0.4151047944207835 [Eh]
	 Opposite-Spin Energy      =      -1.2899666723356775 [Eh]
	 Correlation Energy        =      -1.7050714667564610 [Eh]
	 Total Energy              =    -444.4196154927565772 [Eh]

	 ================> DF-SCS-MP2 Energies <==================
	-----------------------------------------------------------
	 SCS Same-Spin Scale       =       0.3333333333333333 [-]
	 SCS Opposite-Spin Scale   =       1.2000000000000000 [-]
	 SCS Same-Spin Energy      =      -0.1383682648069278 [Eh]
	 SCS Opposite-Spin Energy  =      -1.5479600068028130 [Eh]
	 SCS Correlation Energy    =      -1.6863282716097407 [Eh]
	 SCS Total Energy          =    -444.4008722976098511 [Eh]
	-----------------------------------------------------------

  Dipole Moment: [D]
     X:    -0.2094      Y:    -0.2224      Z:     0.0000     Total:     0.3055

*** Psi4 exiting successfully. Buy a developer a beer!
