                               Psi4 1.3.2 release

  ==> Input File <==

--------------------------------------------------------------------------
#psi4
#
memory 32 gb

molecule  {
0 1
  F        0.9463590     1.6328250    -0.0000060
  O       -1.4337610     0.6405030     0.0000000
  O       -0.7019790    -1.5172570    -0.0000080
  C        0.8874440     0.2587590    -0.0000040
  C        1.9567240    -0.4715930    -0.7531570
  C        1.9567160    -0.4715890     0.7531700
  C       -0.4871510    -0.3137100    -0.0000050
  C       -2.7814420     0.1202980     0.0000060
  H        2.6839580     0.1584250    -1.2535400
  H        1.6654270    -1.3795450    -1.2692510
  H        1.6654180    -1.3795360     1.2692720
  H        2.6839450     0.1584310     1.2535580
  H       -3.4198550     1.0009170     0.0000120
  H       -2.9519650    -0.4865460     0.8901010
  H       -2.9519750    -0.4865410    -0.8900910
units angstrom
no_reorient  #important for SAPT in psi4, default
symmetry c1  #important for SAPT in psi4, default
}

set PROPERTIES_ORIGIN ["COM"]
properties('MP2/aug-cc-pvtz', properties = ['dipole'])
--------------------------------------------------------------------------

    Molecular point group: c1
  Charge       = 0
  Multiplicity = 1
  Basis Set: AUG-CC-PVTZ
    Blend: AUG-CC-PVTZ
  Basis Set: (AUG-CC-PVTZ AUX)
    Blend: AUG-CC-PVTZ-JKFIT

    Orbital Energies [Eh]
    ---------------------

    Doubly Occupied:

       1A    -26.298847     2A    -20.616602     3A    -20.553257
       4A    -11.396758     5A    -11.340235     6A    -11.291949
       7A    -11.254096     8A    -11.253420     9A     -1.610795
      10A     -1.465917    11A     -1.364711    12A     -1.172828
      13A     -0.999693    14A     -0.893455    15A     -0.856605
      16A     -0.782534    17A     -0.758693    18A     -0.709658
      19A     -0.689189    20A     -0.669459    21A     -0.668662
      22A     -0.645963    23A     -0.629031    24A     -0.588482
      25A     -0.565498    26A     -0.540143    27A     -0.535141
      28A     -0.484092    29A     -0.473199    30A     -0.444457
      31A     -0.435309

  @DF-RHF Final Energy:  -442.71548812702184

   => Energetics <=

    Nuclear Repulsion Energy =            390.6184002453466633
    One-Electron Energy =               -1382.6904208324499450
    Two-Electron Energy =                 549.3565324600813256
    Total Energy =                       -442.7154881270218993
  Basis Set: (AUG-CC-PVTZ AUX)
    Blend: AUG-CC-PVTZ-RI
    Molecular point group: c1

    Geometry (in Angstrom), charge = 0, multiplicity = 1:

       Center              X                  Y                   Z               Mass
    ------------   -----------------  -----------------  -----------------  -----------------
         F            0.933008909318     1.598683591422    -0.000005487709    18.998403162730
         O           -1.447111090682     0.606361591422     0.000000512291    15.994914619570
         O           -0.715329090682    -1.551398408578    -0.000007487709    15.994914619570
         C            0.874093909318     0.224617591422    -0.000003487709    12.000000000000
         C            1.943373909318    -0.505734408578    -0.753156487709    12.000000000000
         C            1.943365909318    -0.505730408578     0.753170512291    12.000000000000
         C           -0.500501090682    -0.347851408578    -0.000004487709    12.000000000000
         C           -2.794792090682     0.086156591422     0.000006512291    12.000000000000
         H            2.670607909318     0.124283591422    -1.253539487709     1.007825032230
         H            1.652076909318    -1.413686408578    -1.269250487709     1.007825032230
         H            1.652067909318    -1.413677408578     1.269272512291     1.007825032230
         H            2.670594909318     0.124289591422     1.253558512291     1.007825032230
         H           -3.433205090682     0.966775591422     0.000012512291     1.007825032230
         H           -2.965315090682    -0.520687408578     0.890101512291     1.007825032230
         H           -2.965325090682    -0.520682408578    -0.890090487709     1.007825032230

  Basis Set: AUG-CC-PVTZ
    Blend: AUG-CC-PVTZ
  Basis Set: (AUG-CC-PVTZ AUX)
    Blend: AUG-CC-PVTZ-JKFIT
	 Reference Energy          =    -442.7154881270218425 [Eh]
	 Singles Energy            =      -0.0000000000000000 [Eh]
	 Same-Spin Energy          =      -0.4150093568876991 [Eh]
	 Opposite-Spin Energy      =      -1.2895679499451855 [Eh]
	 Correlation Energy        =      -1.7045773068328847 [Eh]
	 Total Energy              =    -444.4200654338547452 [Eh]

	 ================> DF-SCS-MP2 Energies <==================
	-----------------------------------------------------------
	 SCS Same-Spin Scale       =       0.3333333333333333 [-]
	 SCS Opposite-Spin Scale   =       1.2000000000000000 [-]
	 SCS Same-Spin Energy      =      -0.1383364522958997 [Eh]
	 SCS Opposite-Spin Energy  =      -1.5474815399342225 [Eh]
	 SCS Correlation Energy    =      -1.6858179922301222 [Eh]
	 SCS Total Energy          =    -444.4013061192519558 [Eh]
	-----------------------------------------------------------

  Dipole Moment: [D]
     X:    -0.2095      Y:    -0.1364      Z:     0.0000     Total:     0.2500

*** Psi4 exiting successfully. Buy a developer a beer!
