                               Psi4 1.3.2 release

  ==> Input File <==

--------------------------------------------------------------------------
#psi4
#
memory 32 gb

molecule  {
0 1
  F        0.9463590     1.6328250    -0.0000060
  O       -1.3998828     0.6729579     0.0000001
  O       -0.7019790    -1.5172570    -0.0000080
  C        0.8874440     0.2587590    -0.0000040
  C        1.9567240    -0.4715930    -0.7531570
  C        1.9567160    -0.4715890     0.7531700
  C       -0.4871510    -0.3137100    -0.0000050
  C       -2.7814420     0.1202980     0.0000060
  H        2.6839580     0.1584250    -1.2535400
  H        1.6654270    -1.3795450    -1.2692510
  H        1.6654180    -1.3795360     1.2692720
  H        2.6839450     0.1584310     1.2535580
  H       -3.4198550     1.0009170     0.0000120
  H       -2.9519650    -0.4865460     0.8901010
  H       -2.9519750    -0.4865410    -0.8900910
units angstrom
no_reorient  #important for SAPT in psi4, default
symmetry c1  #important for SAPT in psi4, default
}

set PROPERTIES_ORIGIN ["COM"]
properties('MP2/aug-cc-pvtz', properties = ['dipole'])
--------------------------------------------------------------------------

    Molecular point group: c1
  Charge       = 0
  Multiplicity = 1
  Basis Set: AUG-CC-PVTZ
    Blend: AUG-CC-PVTZ
  Basis Set: (AUG-CC-PVTZ AUX)
    Blend: AUG-CC-PVTZ-JKFIT

    Orbital Energies [Eh]
    ---------------------

    Doubly Occupied:

       1A    -26.296912     2A    -20.618810     3A    -20.553850
       4A    -11.395668     5A    -11.337180     6A    -11.297078
       7A    -11.252393     8A    -11.251717     9A     -1.609049
      10A     -1.459709    11A     -1.362837    12A     -1.170899
      13A     -0.995270    14A     -0.893539    15A     -0.855014
      16A     -0.780802    17A     -0.754946    18A     -0.708378
      19A     -0.686675    20A     -0.667955    21A     -0.664240
      22A     -0.641051    23A     -0.627682    24A     -0.582514
      25A     -0.566767    26A     -0.546488    27A     -0.534854
      28A     -0.484158    29A     -0.476581    30A     -0.441745
      31A     -0.433771

  @DF-RHF Final Energy:  -442.71156915539461

   => Energetics <=

    Nuclear Repulsion Energy =            390.3503692130357194
    One-Electron Energy =               -1382.2268178512808845
    Two-Electron Energy =                 549.1648794828505515
    Total Energy =                       -442.7115691553946135
  Basis Set: (AUG-CC-PVTZ AUX)
    Blend: AUG-CC-PVTZ-RI
    Molecular point group: c1

    Geometry (in Angstrom), charge = 0, multiplicity = 1:

       Center              X                  Y                   Z               Mass
    ------------   -----------------  -----------------  -----------------  -----------------
         F            0.928418388225     1.594285928529    -0.000005501259    18.998403162730
         O           -1.417823411775     0.634418828529     0.000000598741    15.994914619570
         O           -0.719919611775    -1.555796071471    -0.000007501259    15.994914619570
         C            0.869503388225     0.220219928529    -0.000003501259    12.000000000000
         C            1.938783388225    -0.510132071471    -0.753156501259    12.000000000000
         C            1.938775388225    -0.510128071471     0.753170498741    12.000000000000
         C           -0.505091611775    -0.352249071471    -0.000004501259    12.000000000000
         C           -2.799382611775     0.081758928529     0.000006498741    12.000000000000
         H            2.666017388225     0.119885928529    -1.253539501259     1.007825032230
         H            1.647486388225    -1.418084071471    -1.269250501259     1.007825032230
         H            1.647477388225    -1.418075071471     1.269272498741     1.007825032230
         H            2.666004388225     0.119891928529     1.253558498741     1.007825032230
         H           -3.437795611775     0.962377928529     0.000012498741     1.007825032230
         H           -2.969905611775    -0.525085071471     0.890101498741     1.007825032230
         H           -2.969915611775    -0.525080071471    -0.890090501259     1.007825032230

  Basis Set: AUG-CC-PVTZ
    Blend: AUG-CC-PVTZ
  Basis Set: (AUG-CC-PVTZ AUX)
    Blend: AUG-CC-PVTZ-JKFIT
	 Reference Energy          =    -442.7115691553946135 [Eh]
	 Singles Energy            =      -0.0000000000000000 [Eh]
	 Same-Spin Energy          =      -0.4155066811816219 [Eh]
	 Opposite-Spin Energy      =      -1.2911157162912561 [Eh]
	 Correlation Energy        =      -1.7066223974728780 [Eh]
	 Total Energy              =    -444.4181915528674836 [Eh]

	 ================> DF-SCS-MP2 Energies <==================
	-----------------------------------------------------------
	 SCS Same-Spin Scale       =       0.3333333333333333 [-]
	 SCS Opposite-Spin Scale   =       1.2000000000000000 [-]
	 SCS Same-Spin Energy      =      -0.1385022270605406 [Eh]
	 SCS Opposite-Spin Energy  =      -1.5493388595495072 [Eh]
	 SCS Correlation Energy    =      -1.6878410866100479 [Eh]
	 SCS Total Energy          =    -444.3994102420046488 [Eh]
	-----------------------------------------------------------

  Dipole Moment: [D]
     X:    -0.3869      Y:    -0.1844      Z:     0.0000     Total:     0.4286

*** Psi4 exiting successfully. Buy a developer a beer!
