                               Psi4 1.3.2 release

  ==> Input File <==

--------------------------------------------------------------------------
#psi4
#
memory 32 gb

molecule  {
0 1
  F        0.9463590     1.6328250    -0.0000060
  O       -1.4337610     0.6405030     0.0000000
  O       -0.7019790    -1.5172570    -0.0000080
  C        0.8874440     0.2587590    -0.0000040
  C        1.9212982    -0.5075677    -0.7667517
  C        1.9567160    -0.4715890     0.7531700
  C       -0.4871510    -0.3137100    -0.0000050
  C       -2.7814420     0.1202980     0.0000060
  H        2.6839580     0.1584250    -1.2535400
  H        1.6654270    -1.3795450    -1.2692510
  H        1.6654180    -1.3795360     1.2692720
  H        2.6839450     0.1584310     1.2535580
  H       -3.4198550     1.0009170     0.0000120
  H       -2.9519650    -0.4865460     0.8901010
  H       -2.9519750    -0.4865410    -0.8900910
units angstrom
no_reorient  #important for SAPT in psi4, default
symmetry c1  #important for SAPT in psi4, default
}

set PROPERTIES_ORIGIN ["COM"]
properties('MP2/aug-cc-pvtz', properties = ['dipole'])
--------------------------------------------------------------------------

    Molecular point group: c1
  Charge       = 0
  Multiplicity = 1
  Basis Set: AUG-CC-PVTZ
    Blend: AUG-CC-PVTZ
  Basis Set: (AUG-CC-PVTZ AUX)
    Blend: AUG-CC-PVTZ-JKFIT

    Orbital Energies [Eh]
    ---------------------

    Doubly Occupied:

       1A    -26.300592     2A    -20.616488     3A    -20.553055
       4A    -11.396332     5A    -11.341623     6A    -11.291859
       7A    -11.254614     8A    -11.253976     9A     -1.611921
      10A     -1.465866    11A     -1.364708    12A     -1.171186
      13A     -0.999240    14A     -0.892729    15A     -0.858883
      16A     -0.783846    17A     -0.758841    18A     -0.710729
      19A     -0.690377    20A     -0.669844    21A     -0.668538
      22A     -0.643976    23A     -0.632648    24A     -0.586552
      25A     -0.564449    26A     -0.540153    27A     -0.536944
      28A     -0.482181    29A     -0.473760    30A     -0.441150
      31A     -0.437634

  @DF-RHF Final Energy:  -442.71195029027524

   => Energetics <=

    Nuclear Repulsion Energy =            390.6801664784881041
    One-Electron Energy =               -1382.7948468511831379
    Two-Electron Energy =                 549.4027300824197937
    Total Energy =                       -442.7119502902752401
  Basis Set: (AUG-CC-PVTZ AUX)
    Blend: AUG-CC-PVTZ-RI
    Molecular point group: c1

    Geometry (in Angstrom), charge = 0, multiplicity = 1:

       Center              X                  Y                   Z               Mass
    ------------   -----------------  -----------------  -----------------  -----------------
         F            0.936610220472     1.602340702578     0.001376520453    18.998403162730
         O           -1.443509779528     0.610018702578     0.001382520453    15.994914619570
         O           -0.711727779528    -1.547741297422     0.001374520453    15.994914619570
         C            0.877695220472     0.228274702578     0.001378520453    12.000000000000
         C            1.911549420472    -0.538051997422    -0.765369179547    12.000000000000
         C            1.946967220472    -0.502073297422     0.754552520453    12.000000000000
         C           -0.496899779528    -0.344194297422     0.001377520453    12.000000000000
         C           -2.791190779528     0.089813702578     0.001388520453    12.000000000000
         H            2.674209220472     0.127940702578    -1.252157479547     1.007825032230
         H            1.655678220472    -1.410029297422    -1.267868479547     1.007825032230
         H            1.655669220472    -1.410020297422     1.270654520453     1.007825032230
         H            2.674196220472     0.127946702578     1.254940520453     1.007825032230
         H           -3.429603779528     0.970432702578     0.001394520453     1.007825032230
         H           -2.961713779528    -0.517030297422     0.891483520453     1.007825032230
         H           -2.961723779528    -0.517025297422    -0.888708479547     1.007825032230

  Basis Set: AUG-CC-PVTZ
    Blend: AUG-CC-PVTZ
  Basis Set: (AUG-CC-PVTZ AUX)
    Blend: AUG-CC-PVTZ-JKFIT
	 Reference Energy          =    -442.7119502902752401 [Eh]
	 Singles Energy            =      -0.0000000000000000 [Eh]
	 Same-Spin Energy          =      -0.4150820237862632 [Eh]
	 Opposite-Spin Energy      =      -1.2898975836037696 [Eh]
	 Correlation Energy        =      -1.7049796073900327 [Eh]
	 Total Energy              =    -444.4169298976652840 [Eh]

	 ================> DF-SCS-MP2 Energies <==================
	-----------------------------------------------------------
	 SCS Same-Spin Scale       =       0.3333333333333333 [-]
	 SCS Opposite-Spin Scale   =       1.2000000000000000 [-]
	 SCS Same-Spin Energy      =      -0.1383606745954211 [Eh]
	 SCS Opposite-Spin Energy  =      -1.5478771003245235 [Eh]
	 SCS Correlation Energy    =      -1.6862377749199446 [Eh]
	 SCS Total Energy          =    -444.3981880651951997 [Eh]
	-----------------------------------------------------------

  Dipole Moment: [D]
     X:    -0.2186      Y:    -0.1401      Z:     0.0022     Total:     0.2597

*** Psi4 exiting successfully. Buy a developer a beer!
