                               Psi4 1.3.2 release

  ==> Input File <==

--------------------------------------------------------------------------
#psi4
#
memory 32 gb

molecule  {
0 1
  F        0.9463590     1.6328250    -0.0000060
  O       -1.4337610     0.6405030     0.0000000
  O       -0.7019790    -1.5172570    -0.0000080
  C        0.8874440     0.2587590    -0.0000040
  C        1.9567240    -0.4715930    -0.7531570
  C        1.9567160    -0.4715890     0.7531700
  C       -0.6717797    -0.3906012    -0.0000051
  C       -2.7814420     0.1202980     0.0000060
  H        2.6839580     0.1584250    -1.2535400
  H        1.6654270    -1.3795450    -1.2692510
  H        1.6654180    -1.3795360     1.2692720
  H        2.6839450     0.1584310     1.2535580
  H       -3.4198550     1.0009170     0.0000120
  H       -2.9519650    -0.4865460     0.8901010
  H       -2.9519750    -0.4865410    -0.8900910
units angstrom
no_reorient  #important for SAPT in psi4, default
symmetry c1  #important for SAPT in psi4, default
}

set PROPERTIES_ORIGIN ["COM"]
properties('MP2/aug-cc-pvtz', properties = ['dipole'])
--------------------------------------------------------------------------

    Molecular point group: c1
  Charge       = 0
  Multiplicity = 1
  Basis Set: AUG-CC-PVTZ
    Blend: AUG-CC-PVTZ
  Basis Set: (AUG-CC-PVTZ AUX)
    Blend: AUG-CC-PVTZ-JKFIT

    Orbital Energies [Eh]
    ---------------------

    Doubly Occupied:

       1A    -26.280689     2A    -20.637800     3A    -20.571034
       4A    -11.395793     5A    -11.316953     6A    -11.304666
       7A    -11.233709     8A    -11.233042     9A     -1.591794
      10A     -1.519367    11A     -1.440626    12A     -1.145074
      13A     -1.003260    14A     -0.848652    15A     -0.837279
      16A     -0.800048    17A     -0.752790    18A     -0.719039
      19A     -0.712867    20A     -0.677976    21A     -0.661099
      22A     -0.649509    23A     -0.617254    24A     -0.590543
      25A     -0.583410    26A     -0.566157    27A     -0.523734
      28A     -0.502038    29A     -0.487642    30A     -0.416585
      31A     -0.399385

  @DF-RHF Final Energy:  -442.67646707713430

   => Energetics <=

    Nuclear Repulsion Energy =            390.6872859996550460
    One-Electron Energy =               -1382.6878822194605618
    Two-Electron Energy =                 549.3241291426711541
    Total Energy =                       -442.6764670771343617
  Basis Set: (AUG-CC-PVTZ AUX)
    Blend: AUG-CC-PVTZ-RI
    Molecular point group: c1

    Geometry (in Angstrom), charge = 0, multiplicity = 1:

       Center              X                  Y                   Z               Mass
    ------------   -----------------  -----------------  -----------------  -----------------
         F            0.951777868569     1.606500186565    -0.000005477543    18.998403162730
         O           -1.428342131431     0.614178186565     0.000000522457    15.994914619570
         O           -0.696560131431    -1.543581813435    -0.000007477543    15.994914619570
         C            0.892862868569     0.232434186565    -0.000003477543    12.000000000000
         C            1.962142868569    -0.497917813435    -0.753156477543    12.000000000000
         C            1.962134868569    -0.497913813435     0.753170522457    12.000000000000
         C           -0.666360831431    -0.416926013435    -0.000004577543    12.000000000000
         C           -2.776023131431     0.093973186565     0.000006522457    12.000000000000
         H            2.689376868569     0.132100186565    -1.253539477543     1.007825032230
         H            1.670845868569    -1.405869813435    -1.269250477543     1.007825032230
         H            1.670836868569    -1.405860813435     1.269272522457     1.007825032230
         H            2.689363868569     0.132106186565     1.253558522457     1.007825032230
         H           -3.414436131431     0.974592186565     0.000012522457     1.007825032230
         H           -2.946546131431    -0.512870813435     0.890101522457     1.007825032230
         H           -2.946556131431    -0.512865813435    -0.890090477543     1.007825032230

  Basis Set: AUG-CC-PVTZ
    Blend: AUG-CC-PVTZ
  Basis Set: (AUG-CC-PVTZ AUX)
    Blend: AUG-CC-PVTZ-JKFIT
	 Reference Energy          =    -442.6764670771343049 [Eh]
	 Singles Energy            =      -0.0000000000000000 [Eh]
	 Same-Spin Energy          =      -0.4137163216867595 [Eh]
	 Opposite-Spin Energy      =      -1.2870513585659591 [Eh]
	 Correlation Energy        =      -1.7007676802527185 [Eh]
	 Total Energy              =    -444.3772347573870434 [Eh]

	 ================> DF-SCS-MP2 Energies <==================
	-----------------------------------------------------------
	 SCS Same-Spin Scale       =       0.3333333333333333 [-]
	 SCS Opposite-Spin Scale   =       1.2000000000000000 [-]
	 SCS Same-Spin Energy      =      -0.1379054405622532 [Eh]
	 SCS Opposite-Spin Energy  =      -1.5444616302791510 [Eh]
	 SCS Correlation Energy    =      -1.6823670708414040 [Eh]
	 SCS Total Energy          =    -444.3588341479756991 [Eh]
	-----------------------------------------------------------

  Dipole Moment: [D]
     X:    -1.7740      Y:    -0.4650      Z:     0.0000     Total:     1.8340

*** Psi4 exiting successfully. Buy a developer a beer!
