                               Psi4 1.3.2 release

  ==> Input File <==

--------------------------------------------------------------------------
#psi4
#
memory 32 gb

molecule  {
0 1
  F        0.8503655     1.6335875    -0.0000061
  O       -1.4337610     0.6405030     0.0000000
  O       -0.7019790    -1.5172570    -0.0000080
  C        0.8874440     0.2587590    -0.0000040
  C        1.9567240    -0.4715930    -0.7531570
  C        1.9567160    -0.4715890     0.7531700
  C       -0.4871510    -0.3137100    -0.0000050
  C       -2.7814420     0.1202980     0.0000060
  H        2.6839580     0.1584250    -1.2535400
  H        1.6654270    -1.3795450    -1.2692510
  H        1.6654180    -1.3795360     1.2692720
  H        2.6839450     0.1584310     1.2535580
  H       -3.4198550     1.0009170     0.0000120
  H       -2.9519650    -0.4865460     0.8901010
  H       -2.9519750    -0.4865410    -0.8900910
units angstrom
no_reorient  #important for SAPT in psi4, default
symmetry c1  #important for SAPT in psi4, default
}

set PROPERTIES_ORIGIN ["COM"]
properties('MP2/aug-cc-pvtz', properties = ['dipole'])
--------------------------------------------------------------------------

    Molecular point group: c1
  Charge       = 0
  Multiplicity = 1
  Basis Set: AUG-CC-PVTZ
    Blend: AUG-CC-PVTZ
  Basis Set: (AUG-CC-PVTZ AUX)
    Blend: AUG-CC-PVTZ-JKFIT

    Orbital Energies [Eh]
    ---------------------

    Doubly Occupied:

       1A    -26.298189     2A    -20.614674     3A    -20.551139
       4A    -11.393504     5A    -11.340469     6A    -11.290740
       7A    -11.255589     8A    -11.254914     9A     -1.610569
      10A     -1.463849    11A     -1.362831    12A     -1.173876
      13A     -0.998557    14A     -0.893640    15A     -0.857296
      16A     -0.779969    17A     -0.757038    18A     -0.711690
      19A     -0.689503    20A     -0.669379    21A     -0.666445
      22A     -0.642539    23A     -0.631634    24A     -0.586474
      25A     -0.564260    26A     -0.538286    27A     -0.535984
      28A     -0.483879    29A     -0.471838    30A     -0.444480
      31A     -0.435838

  @DF-RHF Final Energy:  -442.71436605881701

   => Energetics <=

    Nuclear Repulsion Energy =            391.2701096919458905
    One-Electron Energy =               -1384.0308126643499236
    Two-Electron Energy =                 550.0463369135870835
    Total Energy =                       -442.7143660588169496
  Basis Set: (AUG-CC-PVTZ AUX)
    Blend: AUG-CC-PVTZ-RI
    Molecular point group: c1

    Geometry (in Angstrom), charge = 0, multiplicity = 1:

       Center              X                  Y                   Z               Mass
    ------------   -----------------  -----------------  -----------------  -----------------
         F            0.852465059837     1.599323371045    -0.000005571614    18.998403162730
         O           -1.431661440163     0.606238871045     0.000000528386    15.994914619570
         O           -0.699879440163    -1.551521128955    -0.000007471614    15.994914619570
         C            0.889543559837     0.224494871045    -0.000003471614    12.000000000000
         C            1.958823559837    -0.505857128955    -0.753156471614    12.000000000000
         C            1.958815559837    -0.505853128955     0.753170528386    12.000000000000
         C           -0.485051440163    -0.347974128955    -0.000004471614    12.000000000000
         C           -2.779342440163     0.086033871045     0.000006528386    12.000000000000
         H            2.686057559837     0.124160871045    -1.253539471614     1.007825032230
         H            1.667526559837    -1.413809128955    -1.269250471614     1.007825032230
         H            1.667517559837    -1.413800128955     1.269272528386     1.007825032230
         H            2.686044559837     0.124166871045     1.253558528386     1.007825032230
         H           -3.417755440163     0.966652871045     0.000012528386     1.007825032230
         H           -2.949865440163    -0.520810128955     0.890101528386     1.007825032230
         H           -2.949875440163    -0.520805128955    -0.890090471614     1.007825032230

  Basis Set: AUG-CC-PVTZ
    Blend: AUG-CC-PVTZ
  Basis Set: (AUG-CC-PVTZ AUX)
    Blend: AUG-CC-PVTZ-JKFIT
	 Reference Energy          =    -442.7143660588170064 [Eh]
	 Singles Energy            =      -0.0000000000000000 [Eh]
	 Same-Spin Energy          =      -0.4149756012334470 [Eh]
	 Opposite-Spin Energy      =      -1.2894868064089196 [Eh]
	 Correlation Energy        =      -1.7044624076423665 [Eh]
	 Total Energy              =    -444.4188284664593880 [Eh]

	 ================> DF-SCS-MP2 Energies <==================
	-----------------------------------------------------------
	 SCS Same-Spin Scale       =       0.3333333333333333 [-]
	 SCS Opposite-Spin Scale   =       1.2000000000000000 [-]
	 SCS Same-Spin Energy      =      -0.1383252004111490 [Eh]
	 SCS Opposite-Spin Energy  =      -1.5473841676907034 [Eh]
	 SCS Correlation Energy    =      -1.6857093681018525 [Eh]
	 SCS Total Energy          =    -444.4000754269188747 [Eh]
	-----------------------------------------------------------

  Dipole Moment: [D]
     X:    -0.0563      Y:    -0.1206      Z:     0.0000     Total:     0.1332

*** Psi4 exiting successfully. Buy a developer a beer!
