                               Psi4 1.3.2 release

  ==> Input File <==

--------------------------------------------------------------------------
#psi4
#
memory 32 gb

molecule  {
0 1
  F        0.9463590     1.6328250    -0.0000060
  O       -1.4337610     0.6405030     0.0000000
  O       -0.7438513    -1.5090264    -0.0000080
  C        0.8874440     0.2587590    -0.0000040
  C        1.9567240    -0.4715930    -0.7531570
  C        1.9567160    -0.4715890     0.7531700
  C       -0.4871510    -0.3137100    -0.0000050
  C       -2.7814420     0.1202980     0.0000060
  H        2.6839580     0.1584250    -1.2535400
  H        1.6654270    -1.3795450    -1.2692510
  H        1.6654180    -1.3795360     1.2692720
  H        2.6839450     0.1584310     1.2535580
  H       -3.4198550     1.0009170     0.0000120
  H       -2.9519650    -0.4865460     0.8901010
  H       -2.9519750    -0.4865410    -0.8900910
units angstrom
no_reorient  #important for SAPT in psi4, default
symmetry c1  #important for SAPT in psi4, default
}

set PROPERTIES_ORIGIN ["COM"]
properties('MP2/aug-cc-pvtz', properties = ['dipole'])
--------------------------------------------------------------------------

    Molecular point group: c1
  Charge       = 0
  Multiplicity = 1
  Basis Set: AUG-CC-PVTZ
    Blend: AUG-CC-PVTZ
  Basis Set: (AUG-CC-PVTZ AUX)
    Blend: AUG-CC-PVTZ-JKFIT

    Orbital Energies [Eh]
    ---------------------

    Doubly Occupied:

       1A    -26.300440     2A    -20.613757     3A    -20.552501
       4A    -11.396411     5A    -11.342486     6A    -11.290152
       7A    -11.255606     8A    -11.254929     9A     -1.612176
      10A     -1.465893    11A     -1.361550    12A     -1.174725
      13A     -0.998921    14A     -0.893809    15A     -0.857986
      16A     -0.782797    17A     -0.758205    18A     -0.710346
      19A     -0.689700    20A     -0.669348    21A     -0.668273
      22A     -0.646389    23A     -0.630043    24A     -0.588561
      25A     -0.564302    26A     -0.538062    27A     -0.536118
      28A     -0.484136    29A     -0.471609    30A     -0.445449
      31A     -0.436881

  @DF-RHF Final Energy:  -442.71523255698321

   => Energetics <=

    Nuclear Repulsion Energy =            390.5607493490670095
    One-Electron Energy =               -1382.5688401296308712
    Two-Electron Energy =                 549.2928582235806516
    Total Energy =                       -442.7152325569832101
  Basis Set: (AUG-CC-PVTZ AUX)
    Blend: AUG-CC-PVTZ-RI
    Molecular point group: c1

    Geometry (in Angstrom), charge = 0, multiplicity = 1:

       Center              X                  Y                   Z               Mass
    ------------   -----------------  -----------------  -----------------  -----------------
         F            0.938682636860     1.597568339050    -0.000005487709    18.998403162730
         O           -1.441437363140     0.605246339050     0.000000512291    15.994914619570
         O           -0.751527663140    -1.544283060950    -0.000007487709    15.994914619570
         C            0.879767636860     0.223502339050    -0.000003487709    12.000000000000
         C            1.949047636860    -0.506849660950    -0.753156487709    12.000000000000
         C            1.949039636860    -0.506845660950     0.753170512291    12.000000000000
         C           -0.494827363140    -0.348966660950    -0.000004487709    12.000000000000
         C           -2.789118363140     0.085041339050     0.000006512291    12.000000000000
         H            2.676281636860     0.123168339050    -1.253539487709     1.007825032230
         H            1.657750636860    -1.414801660950    -1.269250487709     1.007825032230
         H            1.657741636860    -1.414792660950     1.269272512291     1.007825032230
         H            2.676268636860     0.123174339050     1.253558512291     1.007825032230
         H           -3.427531363140     0.965660339050     0.000012512291     1.007825032230
         H           -2.959641363140    -0.521802660950     0.890101512291     1.007825032230
         H           -2.959651363140    -0.521797660950    -0.890090487709     1.007825032230

  Basis Set: AUG-CC-PVTZ
    Blend: AUG-CC-PVTZ
  Basis Set: (AUG-CC-PVTZ AUX)
    Blend: AUG-CC-PVTZ-JKFIT
	 Reference Energy          =    -442.7152325569832101 [Eh]
	 Singles Energy            =      -0.0000000000000000 [Eh]
	 Same-Spin Energy          =      -0.4150090302101063 [Eh]
	 Opposite-Spin Energy      =      -1.2895154359274117 [Eh]
	 Correlation Energy        =      -1.7045244661375181 [Eh]
	 Total Energy              =    -444.4197570231207237 [Eh]

	 ================> DF-SCS-MP2 Energies <==================
	-----------------------------------------------------------
	 SCS Same-Spin Scale       =       0.3333333333333333 [-]
	 SCS Opposite-Spin Scale   =       1.2000000000000000 [-]
	 SCS Same-Spin Energy      =      -0.1383363434033688 [Eh]
	 SCS Opposite-Spin Energy  =      -1.5474185231128941 [Eh]
	 SCS Correlation Energy    =      -1.6857548665162629 [Eh]
	 SCS Total Energy          =    -444.4009874234994868 [Eh]
	-----------------------------------------------------------

  Dipole Moment: [D]
     X:    -0.0650      Y:    -0.1464      Z:     0.0000     Total:     0.1602

*** Psi4 exiting successfully. Buy a developer a beer!
