                               Psi4 1.3.2 release

  ==> Input File <==

--------------------------------------------------------------------------
#psi4
#
memory 32 gb

molecule  {
0 1
  F        0.9463590     1.6328250    -0.0000060
  O       -1.4337610     0.6405030     0.0000000
  O       -0.7854109    -1.4993396    -0.0000079
  C        0.8874440     0.2587590    -0.0000040
  C        1.9567240    -0.4715930    -0.7531570
  C        1.9567160    -0.4715890     0.7531700
  C       -0.4871510    -0.3137100    -0.0000050
  C       -2.7814420     0.1202980     0.0000060
  H        2.6839580     0.1584250    -1.2535400
  H        1.6654270    -1.3795450    -1.2692510
  H        1.6654180    -1.3795360     1.2692720
  H        2.6839450     0.1584310     1.2535580
  H       -3.4198550     1.0009170     0.0000120
  H       -2.9519650    -0.4865460     0.8901010
  H       -2.9519750    -0.4865410    -0.8900910
units angstrom
no_reorient  #important for SAPT in psi4, default
symmetry c1  #important for SAPT in psi4, default
}

set PROPERTIES_ORIGIN ["COM"]
properties('MP2/aug-cc-pvtz', properties = ['dipole'])
--------------------------------------------------------------------------

    Molecular point group: c1
  Charge       = 0
  Multiplicity = 1
  Basis Set: AUG-CC-PVTZ
    Blend: AUG-CC-PVTZ
  Basis Set: (AUG-CC-PVTZ AUX)
    Blend: AUG-CC-PVTZ-JKFIT

    Orbital Energies [Eh]
    ---------------------

    Doubly Occupied:

       1A    -26.301983     2A    -20.610861     3A    -20.551664
       4A    -11.396088     5A    -11.344714     6A    -11.288323
       7A    -11.257086     8A    -11.256410     9A     -1.613515
      10A     -1.466014    11A     -1.358278    12A     -1.176579
      13A     -0.998191    14A     -0.894099    15A     -0.859350
      16A     -0.783150    17A     -0.757563    18A     -0.711069
      19A     -0.690331    20A     -0.669260    21A     -0.667766
      22A     -0.646847    23A     -0.631049    24A     -0.588596
      25A     -0.563163    26A     -0.536996    27A     -0.535872
      28A     -0.483987    29A     -0.469977    30A     -0.446277
      31A     -0.438400

  @DF-RHF Final Energy:  -442.71420344534920

   => Energetics <=

    Nuclear Repulsion Energy =            390.5363706196015983
    One-Electron Energy =               -1382.5142305706883690
    Two-Electron Energy =                 549.2636565057375719
    Total Energy =                       -442.7142034453491988
  Basis Set: (AUG-CC-PVTZ AUX)
    Blend: AUG-CC-PVTZ-RI
    Molecular point group: c1

    Geometry (in Angstrom), charge = 0, multiplicity = 1:

       Center              X                  Y                   Z               Mass
    ------------   -----------------  -----------------  -----------------  -----------------
         F            0.944313993320     1.596255770504    -0.000005501259    18.998403162730
         O           -1.435806006680     0.603933770504     0.000000498741    15.994914619570
         O           -0.787455906680    -1.535908829496    -0.000007401259    15.994914619570
         C            0.885398993320     0.222189770504    -0.000003501259    12.000000000000
         C            1.954678993320    -0.508162229496    -0.753156501259    12.000000000000
         C            1.954670993320    -0.508158229496     0.753170498741    12.000000000000
         C           -0.489196006680    -0.350279229496    -0.000004501259    12.000000000000
         C           -2.783487006680     0.083728770504     0.000006498741    12.000000000000
         H            2.681912993320     0.121855770504    -1.253539501259     1.007825032230
         H            1.663381993320    -1.416114229496    -1.269250501259     1.007825032230
         H            1.663372993320    -1.416105229496     1.269272498741     1.007825032230
         H            2.681899993320     0.121861770504     1.253558498741     1.007825032230
         H           -3.421900006680     0.964347770504     0.000012498741     1.007825032230
         H           -2.954010006680    -0.523115229496     0.890101498741     1.007825032230
         H           -2.954020006680    -0.523110229496    -0.890090501259     1.007825032230

  Basis Set: AUG-CC-PVTZ
    Blend: AUG-CC-PVTZ
  Basis Set: (AUG-CC-PVTZ AUX)
    Blend: AUG-CC-PVTZ-JKFIT
	 Reference Energy          =    -442.7142034453491988 [Eh]
	 Singles Energy            =      -0.0000000000000000 [Eh]
	 Same-Spin Energy          =      -0.4150462966296835 [Eh]
	 Opposite-Spin Energy      =      -1.2895279469974983 [Eh]
	 Correlation Energy        =      -1.7045742436271818 [Eh]
	 Total Energy              =    -444.4187776889763768 [Eh]

	 ================> DF-SCS-MP2 Energies <==================
	-----------------------------------------------------------
	 SCS Same-Spin Scale       =       0.3333333333333333 [-]
	 SCS Opposite-Spin Scale   =       1.2000000000000000 [-]
	 SCS Same-Spin Energy      =      -0.1383487655432278 [Eh]
	 SCS Opposite-Spin Energy  =      -1.5474335363969980 [Eh]
	 SCS Correlation Energy    =      -1.6857823019402258 [Eh]
	 SCS Total Energy          =    -444.3999857472894064 [Eh]
	-----------------------------------------------------------

  Dipole Moment: [D]
     X:     0.0786      Y:    -0.1608      Z:     0.0000     Total:     0.1790

*** Psi4 exiting successfully. Buy a developer a beer!
