                               Psi4 1.3.2 release

  ==> Input File <==

--------------------------------------------------------------------------
#psi4
#
memory 32 gb

molecule  {
0 1
  F        0.9463590     1.6328250    -0.0000060
  O       -1.4337610     0.6405030     0.0000000
  O       -0.7229511    -1.5133244    -0.0000080
  C        0.8874440     0.2587590    -0.0000040
  C        1.9567240    -0.4715930    -0.7531570
  C        1.9567160    -0.4715890     0.7531700
  C       -0.4871510    -0.3137100    -0.0000050
  C       -2.7814420     0.1202980     0.0000060
  H        2.6839580     0.1584250    -1.2535400
  H        1.6654270    -1.3795450    -1.2692510
  H        1.6654180    -1.3795360     1.2692720
  H        2.6839450     0.1584310     1.2535580
  H       -3.4198550     1.0009170     0.0000120
  H       -2.9519650    -0.4865460     0.8901010
  H       -2.9519750    -0.4865410    -0.8900910
units angstrom
no_reorient  #important for SAPT in psi4, default
symmetry c1  #important for SAPT in psi4, default
}

set PROPERTIES_ORIGIN ["COM"]
properties('MP2/aug-cc-pvtz', properties = ['dipole'])
--------------------------------------------------------------------------

    Molecular point group: c1
  Charge       = 0
  Multiplicity = 1
  Basis Set: AUG-CC-PVTZ
    Blend: AUG-CC-PVTZ
  Basis Set: (AUG-CC-PVTZ AUX)
    Blend: AUG-CC-PVTZ-JKFIT

    Orbital Energies [Eh]
    ---------------------

    Doubly Occupied:

       1A    -26.299650     2A    -20.615186     3A    -20.552889
       4A    -11.396581     5A    -11.341363     6A    -11.291055
       7A    -11.254854     8A    -11.254178     9A     -1.611491
      10A     -1.465887    11A     -1.363143    12A     -1.173782
      13A     -0.999302    14A     -0.893640    15A     -0.857298
      16A     -0.782653    17A     -0.758469    18A     -0.709998
      19A     -0.689428    20A     -0.669402    21A     -0.668485
      22A     -0.646171    23A     -0.629538    24A     -0.588528
      25A     -0.564894    26A     -0.539116    27A     -0.535640
      28A     -0.484139    29A     -0.472409    30A     -0.444972
      31A     -0.436102

  @DF-RHF Final Energy:  -442.71545592030316

   => Energetics <=

    Nuclear Repulsion Energy =            390.5854202174390934
    One-Electron Energy =               -1382.6212654601072245
    Two-Electron Energy =                 549.3203893223649175
    Total Energy =                       -442.7154559203031567
  Basis Set: (AUG-CC-PVTZ AUX)
    Blend: AUG-CC-PVTZ-RI
    Molecular point group: c1

    Geometry (in Angstrom), charge = 0, multiplicity = 1:

       Center              X                  Y                   Z               Mass
    ------------   -----------------  -----------------  -----------------  -----------------
         F            0.935850644341     1.598150721221    -0.000005487709    18.998403162730
         O           -1.444269355659     0.605828721221     0.000000512291    15.994914619570
         O           -0.733459455659    -1.547998678779    -0.000007487709    15.994914619570
         C            0.876935644341     0.224084721221    -0.000003487709    12.000000000000
         C            1.946215644341    -0.506267278779    -0.753156487709    12.000000000000
         C            1.946207644341    -0.506263278779     0.753170512291    12.000000000000
         C           -0.497659355659    -0.348384278779    -0.000004487709    12.000000000000
         C           -2.791950355659     0.085623721221     0.000006512291    12.000000000000
         H            2.673449644341     0.123750721221    -1.253539487709     1.007825032230
         H            1.654918644341    -1.414219278779    -1.269250487709     1.007825032230
         H            1.654909644341    -1.414210278779     1.269272512291     1.007825032230
         H            2.673436644341     0.123756721221     1.253558512291     1.007825032230
         H           -3.430363355659     0.966242721221     0.000012512291     1.007825032230
         H           -2.962473355659    -0.521220278779     0.890101512291     1.007825032230
         H           -2.962483355659    -0.521215278779    -0.890090487709     1.007825032230

  Basis Set: AUG-CC-PVTZ
    Blend: AUG-CC-PVTZ
  Basis Set: (AUG-CC-PVTZ AUX)
    Blend: AUG-CC-PVTZ-JKFIT
	 Reference Energy          =    -442.7154559203031567 [Eh]
	 Singles Energy            =      -0.0000000000000000 [Eh]
	 Same-Spin Energy          =      -0.4150045350949356 [Eh]
	 Opposite-Spin Energy      =      -1.2895336073535888 [Eh]
	 Correlation Energy        =      -1.7045381424485244 [Eh]
	 Total Energy              =    -444.4199940627516980 [Eh]

	 ================> DF-SCS-MP2 Energies <==================
	-----------------------------------------------------------
	 SCS Same-Spin Scale       =       0.3333333333333333 [-]
	 SCS Opposite-Spin Scale   =       1.2000000000000000 [-]
	 SCS Same-Spin Energy      =      -0.1383348450316452 [Eh]
	 SCS Opposite-Spin Energy  =      -1.5474403288243066 [Eh]
	 SCS Correlation Energy    =      -1.6857751738559519 [Eh]
	 SCS Total Energy          =    -444.4012310941591295 [Eh]
	-----------------------------------------------------------

  Dipole Moment: [D]
     X:    -0.1371      Y:    -0.1409      Z:     0.0000     Total:     0.1966

*** Psi4 exiting successfully. Buy a developer a beer!
