                               Psi4 1.4a3.dev225

  ==> Input File <==

--------------------------------------------------------------------------
#psi4
#
memory 32 gb

molecule  {
0 1
  F        0.9463590     1.6328250    -0.0000060
  O       -1.4337610     0.6405030     0.0000000
  O       -0.7019790    -1.5172570    -0.0000080
  C        0.8874440     0.2587590    -0.0000040
  C        1.9567240    -0.4715930    -0.7531570
  C        1.9567160    -0.4715890     0.7531700
  C       -0.5056139    -0.3213991    -0.0000050
  C       -2.7814420     0.1202980     0.0000060
  H        2.6839580     0.1584250    -1.2535400
  H        1.6654270    -1.3795450    -1.2692510
  H        1.6654180    -1.3795360     1.2692720
  H        2.6839450     0.1584310     1.2535580
  H       -3.4198550     1.0009170     0.0000120
  H       -2.9519650    -0.4865460     0.8901010
  H       -2.9519750    -0.4865410    -0.8900910
units angstrom
no_reorient  #important for SAPT in psi4, default
symmetry c1  #important for SAPT in psi4, default
}

set PROPERTIES_ORIGIN ["COM"]
properties('MP2/aug-cc-pvtz', properties = ['dipole'])
--------------------------------------------------------------------------

    Molecular point group: c1
  Charge       = 0
  Multiplicity = 1
  Basis Set: AUG-CC-PVTZ
    Blend: AUG-CC-PVTZ
  Basis Set: (AUG-CC-PVTZ AUX)
    Blend: AUG-CC-PVTZ-JKFIT

    Orbital Energies [Eh]
    ---------------------

    Doubly Occupied:

       1A    -26.297273     2A    -20.618532     3A    -20.554668
       4A    -11.395923     5A    -11.338788     6A    -11.293067
       7A    -11.251997     8A    -11.251322     9A     -1.609076
      10A     -1.471347    11A     -1.372180    12A     -1.169873
      13A     -0.999248    14A     -0.888537    15A     -0.854655
      16A     -0.782736    17A     -0.759466    18A     -0.708758
      19A     -0.689409    20A     -0.672137    21A     -0.669894
      22A     -0.646326    23A     -0.627868    24A     -0.587171
      25A     -0.567002    26A     -0.542713    27A     -0.534450
      28A     -0.485717    29A     -0.475770    30A     -0.441349
      31A     -0.434154

  @DF-RHF Final Energy:  -442.71630139059175

   => Energetics <=

    Nuclear Repulsion Energy =            390.6146641573495231
    One-Electron Energy =               -1382.6791182955546446
    Two-Electron Energy =                 549.3481527476133124
    Total Energy =                       -442.7163013905917524
  Basis Set: (AUG-CC-PVTZ AUX)
    Blend: AUG-CC-PVTZ-RI
    Molecular point group: c1

    Geometry (in Angstrom), charge = 0, multiplicity = 1:

       Center              X                  Y                   Z               Mass
    ------------   -----------------  -----------------  -----------------  -----------------
         F            0.934885808293     1.599465248904    -0.000005487709    18.998403162730
         O           -1.445234191707     0.607143248904     0.000000512291    15.994914619570
         O           -0.713452191707    -1.550616751096    -0.000007487709    15.994914619570
         C            0.875970808293     0.225399248904    -0.000003487709    12.000000000000
         C            1.945250808293    -0.504952751096    -0.753156487709    12.000000000000
         C            1.945242808293    -0.504948751096     0.753170512291    12.000000000000
         C           -0.517087091707    -0.354758851096    -0.000004487709    12.000000000000
         C           -2.792915191707     0.086938248904     0.000006512291    12.000000000000
         H            2.672484808293     0.125065248904    -1.253539487709     1.007825032230
         H            1.653953808293    -1.412904751096    -1.269250487709     1.007825032230
         H            1.653944808293    -1.412895751096     1.269272512291     1.007825032230
         H            2.672471808293     0.125071248904     1.253558512291     1.007825032230
         H           -3.431328191707     0.967557248904     0.000012512291     1.007825032230
         H           -2.963438191707    -0.519905751096     0.890101512291     1.007825032230
         H           -2.963448191707    -0.519900751096    -0.890090487709     1.007825032230

  Basis Set: AUG-CC-PVTZ
    Blend: AUG-CC-PVTZ
  Basis Set: (AUG-CC-PVTZ AUX)
    Blend: AUG-CC-PVTZ-JKFIT
	 Reference Energy          =    -442.7163013905917524 [Eh]
	 Singles Energy            =      -0.0000000000000000 [Eh]
	 Same-Spin Energy          =      -0.4146558468610124 [Eh]
	 Opposite-Spin Energy      =      -1.2889118545911555 [Eh]
	 Correlation Energy        =      -1.7035677014521680 [Eh]
	 Total Energy              =    -444.4198690920439390 [Eh]

	 ================> DF-SCS-MP2 Energies <==================
	-----------------------------------------------------------
	 SCS Same-Spin Scale       =       0.3333333333333333 [-]
	 SCS Opposite-Spin Scale   =       1.2000000000000000 [-]
	 SCS Same-Spin Energy      =      -0.1382186156203374 [Eh]
	 SCS Opposite-Spin Energy  =      -1.5466942255093865 [Eh]
	 SCS Correlation Energy    =      -1.6849128411297241 [Eh]
	 SCS Total Energy          =    -444.4012142317214966 [Eh]
	-----------------------------------------------------------

  Dipole Moment: [D]
     X:    -0.3573      Y:    -0.1615      Z:     0.0000     Total:     0.3921

*** Psi4 exiting successfully. Buy a developer a beer!
