                               Psi4 1.3.2 release

  ==> Input File <==

--------------------------------------------------------------------------
#psi4
#
memory 32 gb

molecule  {
0 1
  F        0.9463590     1.6328250    -0.0000060
  O       -1.4337610     0.6405030     0.0000000
  O       -0.7019790    -1.5172570    -0.0000080
  C        0.8874440     0.2587590    -0.0000040
  C        1.9391713    -0.4896944    -0.7600701
  C        1.9567160    -0.4715890     0.7531700
  C       -0.4871510    -0.3137100    -0.0000050
  C       -2.7814420     0.1202980     0.0000060
  H        2.6839580     0.1584250    -1.2535400
  H        1.6654270    -1.3795450    -1.2692510
  H        1.6654180    -1.3795360     1.2692720
  H        2.6839450     0.1584310     1.2535580
  H       -3.4198550     1.0009170     0.0000120
  H       -2.9519650    -0.4865460     0.8901010
  H       -2.9519750    -0.4865410    -0.8900910
units angstrom
no_reorient  #important for SAPT in psi4, default
symmetry c1  #important for SAPT in psi4, default
}

set PROPERTIES_ORIGIN ["COM"]
properties('MP2/aug-cc-pvtz', properties = ['dipole'])
--------------------------------------------------------------------------

    Molecular point group: c1
  Charge       = 0
  Multiplicity = 1
  Basis Set: AUG-CC-PVTZ
    Blend: AUG-CC-PVTZ
  Basis Set: (AUG-CC-PVTZ AUX)
    Blend: AUG-CC-PVTZ-JKFIT

    Orbital Energies [Eh]
    ---------------------

    Doubly Occupied:

       1A    -26.299698     2A    -20.616532     3A    -20.553142
       4A    -11.396526     5A    -11.340870     6A    -11.291896
       7A    -11.254295     8A    -11.253638     9A     -1.611331
      10A     -1.465877    11A     -1.364694    12A     -1.171980
      13A     -0.999452    14A     -0.893052    15A     -0.857508
      16A     -0.783152    17A     -0.758792    18A     -0.709966
      19A     -0.689695    20A     -0.669282    21A     -0.668722
      22A     -0.645090    23A     -0.630945    24A     -0.587469
      25A     -0.565057    26A     -0.540096    27A     -0.536260
      28A     -0.483155    29A     -0.473470    30A     -0.442871
      31A     -0.436526

  @DF-RHF Final Energy:  -442.71457593254263

   => Energetics <=

    Nuclear Repulsion Energy =            390.6462884133579223
    One-Electron Energy =               -1382.7396518270386423
    Two-Electron Energy =                 549.3787874811380334
    Total Energy =                       -442.7145759325426297
  Basis Set: (AUG-CC-PVTZ AUX)
    Blend: AUG-CC-PVTZ-RI
    Molecular point group: c1

    Geometry (in Angstrom), charge = 0, multiplicity = 1:

       Center              X                  Y                   Z               Mass
    ------------   -----------------  -----------------  -----------------  -----------------
         F            0.934793279306     1.600523741080     0.000697283270    18.998403162730
         O           -1.445326720694     0.608201741080     0.000703283270    15.994914619570
         O           -0.713544720694    -1.549558258920     0.000695283270    15.994914619570
         C            0.875878279306     0.226457741080     0.000699283270    12.000000000000
         C            1.927605579306    -0.521995658920    -0.759366816730    12.000000000000
         C            1.945150279306    -0.503890258920     0.753873283270    12.000000000000
         C           -0.498716720694    -0.346011258920     0.000698283270    12.000000000000
         C           -2.793007720694     0.087996741080     0.000709283270    12.000000000000
         H            2.672392279306     0.126123741080    -1.252836716730     1.007825032230
         H            1.653861279306    -1.411846258920    -1.268547716730     1.007825032230
         H            1.653852279306    -1.411837258920     1.269975283270     1.007825032230
         H            2.672379279306     0.126129741080     1.254261283270     1.007825032230
         H           -3.431420720694     0.968615741080     0.000715283270     1.007825032230
         H           -2.963530720694    -0.518847258920     0.890804283270     1.007825032230
         H           -2.963540720694    -0.518842258920    -0.889387716730     1.007825032230

  Basis Set: AUG-CC-PVTZ
    Blend: AUG-CC-PVTZ
  Basis Set: (AUG-CC-PVTZ AUX)
    Blend: AUG-CC-PVTZ-JKFIT
	 Reference Energy          =    -442.7145759325426297 [Eh]
	 Singles Energy            =      -0.0000000000000000 [Eh]
	 Same-Spin Energy          =      -0.4150318975739333 [Eh]
	 Opposite-Spin Energy      =      -1.2896861745875712 [Eh]
	 Correlation Energy        =      -1.7047180721615045 [Eh]
	 Total Energy              =    -444.4192940047041134 [Eh]

	 ================> DF-SCS-MP2 Energies <==================
	-----------------------------------------------------------
	 SCS Same-Spin Scale       =       0.3333333333333333 [-]
	 SCS Opposite-Spin Scale   =       1.2000000000000000 [-]
	 SCS Same-Spin Energy      =      -0.1383439658579778 [Eh]
	 SCS Opposite-Spin Energy  =      -1.5476234095050854 [Eh]
	 SCS Correlation Energy    =      -1.6859673753630631 [Eh]
	 SCS Total Energy          =    -444.4005433079057070 [Eh]
	-----------------------------------------------------------

  Dipole Moment: [D]
     X:    -0.2132      Y:    -0.1388      Z:    -0.0003     Total:     0.2544

*** Psi4 exiting successfully. Buy a developer a beer!
