                               Psi4 1.3.2 release

  ==> Input File <==

--------------------------------------------------------------------------
#psi4
#
memory 32 gb

molecule  {
0 1
  F        0.9661348     1.6317674    -0.0135699
  O       -1.4337610     0.6405030     0.0000000
  O       -0.7019790    -1.5172570    -0.0000080
  C        0.8874440     0.2587590    -0.0000040
  C        1.9567240    -0.4715930    -0.7531570
  C        1.9567160    -0.4715890     0.7531700
  C       -0.4871510    -0.3137100    -0.0000050
  C       -2.7814420     0.1202980     0.0000060
  H        2.6839580     0.1584250    -1.2535400
  H        1.6654270    -1.3795450    -1.2692510
  H        1.6654180    -1.3795360     1.2692720
  H        2.6839450     0.1584310     1.2535580
  H       -3.4198550     1.0009170     0.0000120
  H       -2.9519650    -0.4865460     0.8901010
  H       -2.9519750    -0.4865410    -0.8900910
units angstrom
no_reorient  #important for SAPT in psi4, default
symmetry c1  #important for SAPT in psi4, default
}

set PROPERTIES_ORIGIN ["COM"]
properties('MP2/aug-cc-pvtz', properties = ['dipole'])
--------------------------------------------------------------------------

    Molecular point group: c1
  Charge       = 0
  Multiplicity = 1
  Basis Set: AUG-CC-PVTZ
    Blend: AUG-CC-PVTZ
  Basis Set: (AUG-CC-PVTZ AUX)
    Blend: AUG-CC-PVTZ-JKFIT

    Orbital Energies [Eh]
    ---------------------

    Doubly Occupied:

       1A    -26.298937     2A    -20.616973     3A    -20.553680
       4A    -11.397416     5A    -11.340182     6A    -11.292183
       7A    -11.253904     8A    -11.252993     9A     -1.610880
      10A     -1.466321    11A     -1.365085    12A     -1.172597
      13A     -0.999922    14A     -0.893427    15A     -0.856470
      16A     -0.783035    17A     -0.759039    18A     -0.709240
      19A     -0.689140    20A     -0.669486    21A     -0.669090
      22A     -0.646787    23A     -0.628252    24A     -0.588875
      25A     -0.565750    26A     -0.540497    27A     -0.534936
      28A     -0.484168    29A     -0.473472    30A     -0.444387
      31A     -0.435176

  @DF-RHF Final Energy:  -442.71541538961810

   => Energetics <=

    Nuclear Repulsion Energy =            390.5035191697051573
    One-Electron Energy =               -1382.4532701474990972
    Two-Electron Energy =                 549.2343355881757816
    Total Energy =                       -442.7154153896181015
  Basis Set: (AUG-CC-PVTZ AUX)
    Blend: AUG-CC-PVTZ-RI
    Molecular point group: c1

    Geometry (in Angstrom), charge = 0, multiplicity = 1:

       Center              X                  Y                   Z               Mass
    ------------   -----------------  -----------------  -----------------  -----------------
         F            0.949601897995     1.597796206597    -0.011386349121    18.998403162730
         O           -1.450293902005     0.606531806597     0.002183550879    15.994914619570
         O           -0.718511902005    -1.551228193403     0.002175550879    15.994914619570
         C            0.870911097995     0.224787806597     0.002179550879    12.000000000000
         C            1.940191097995    -0.505564193403    -0.750973449121    12.000000000000
         C            1.940183097995    -0.505560193403     0.755353550879    12.000000000000
         C           -0.503683902005    -0.347681193403     0.002178550879    12.000000000000
         C           -2.797974902005     0.086326806597     0.002189550879    12.000000000000
         H            2.667425097995     0.124453806597    -1.251356449121     1.007825032230
         H            1.648894097995    -1.413516193403    -1.267067449121     1.007825032230
         H            1.648885097995    -1.413507193403     1.271455550879     1.007825032230
         H            2.667412097995     0.124459806597     1.255741550879     1.007825032230
         H           -3.436387902005     0.966945806597     0.002195550879     1.007825032230
         H           -2.968497902005    -0.520517193403     0.892284550879     1.007825032230
         H           -2.968507902005    -0.520512193403    -0.887907449121     1.007825032230

  Basis Set: AUG-CC-PVTZ
    Blend: AUG-CC-PVTZ
  Basis Set: (AUG-CC-PVTZ AUX)
    Blend: AUG-CC-PVTZ-JKFIT
	 Reference Energy          =    -442.7154153896181015 [Eh]
	 Singles Energy            =      -0.0000000000000000 [Eh]
	 Same-Spin Energy          =      -0.4150296230475756 [Eh]
	 Opposite-Spin Energy      =      -1.2896094324461425 [Eh]
	 Correlation Energy        =      -1.7046390554937181 [Eh]
	 Total Energy              =    -444.4200544451118162 [Eh]

	 ================> DF-SCS-MP2 Energies <==================
	-----------------------------------------------------------
	 SCS Same-Spin Scale       =       0.3333333333333333 [-]
	 SCS Opposite-Spin Scale   =       1.2000000000000000 [-]
	 SCS Same-Spin Energy      =      -0.1383432076825252 [Eh]
	 SCS Opposite-Spin Energy  =      -1.5475313189353710 [Eh]
	 SCS Correlation Energy    =      -1.6858745266178963 [Eh]
	 SCS Total Energy          =    -444.4012899162360100 [Eh]
	-----------------------------------------------------------

  Dipole Moment: [D]
     X:    -0.2408      Y:    -0.1380      Z:     0.0138     Total:     0.2779

*** Psi4 exiting successfully. Buy a developer a beer!
