                               Psi4 1.3.2 release

  ==> Input File <==

--------------------------------------------------------------------------
#psi4
#
memory 32 gb

molecule  {
0 1
  F        0.9463590     1.6328250    -0.0000060
  O       -1.4502701     0.6238370    -0.0000001
  O       -0.7019790    -1.5172570    -0.0000080
  C        0.8874440     0.2587590    -0.0000040
  C        1.9567240    -0.4715930    -0.7531570
  C        1.9567160    -0.4715890     0.7531700
  C       -0.4871510    -0.3137100    -0.0000050
  C       -2.7814420     0.1202980     0.0000060
  H        2.6839580     0.1584250    -1.2535400
  H        1.6654270    -1.3795450    -1.2692510
  H        1.6654180    -1.3795360     1.2692720
  H        2.6839450     0.1584310     1.2535580
  H       -3.4198550     1.0009170     0.0000120
  H       -2.9519650    -0.4865460     0.8901010
  H       -2.9519750    -0.4865410    -0.8900910
units angstrom
no_reorient  #important for SAPT in psi4, default
symmetry c1  #important for SAPT in psi4, default
}

set PROPERTIES_ORIGIN ["COM"]
properties('MP2/aug-cc-pvtz', properties = ['dipole'])
--------------------------------------------------------------------------

    Molecular point group: c1
  Charge       = 0
  Multiplicity = 1
  Basis Set: AUG-CC-PVTZ
    Blend: AUG-CC-PVTZ
  Basis Set: (AUG-CC-PVTZ AUX)
    Blend: AUG-CC-PVTZ-JKFIT

    Orbital Energies [Eh]
    ---------------------

    Doubly Occupied:

       1A    -26.299807     2A    -20.615330     3A    -20.552958
       4A    -11.397382     5A    -11.341769     6A    -11.289447
       7A    -11.254945     8A    -11.254268     9A     -1.611679
      10A     -1.469335    11A     -1.365736    12A     -1.173785
      13A     -1.002112    14A     -0.893546    15A     -0.857401
      16A     -0.783340    17A     -0.760569    18A     -0.710325
      19A     -0.690629    20A     -0.670927    21A     -0.670284
      22A     -0.648581    23A     -0.629726    24A     -0.591420
      25A     -0.565069    26A     -0.536609    27A     -0.535244
      28A     -0.483948    29A     -0.471196    30A     -0.445735
      31A     -0.436064

  @DF-RHF Final Energy:  -442.71625844076038

   => Energetics <=

    Nuclear Repulsion Energy =            390.7717302138980813
    One-Electron Energy =               -1382.9576436524139353
    Two-Electron Energy =                 549.4696549977554696
    Total Energy =                       -442.7162584407603845
  Basis Set: (AUG-CC-PVTZ AUX)
    Blend: AUG-CC-PVTZ-RI
    Molecular point group: c1

    Geometry (in Angstrom), charge = 0, multiplicity = 1:

       Center              X                  Y                   Z               Mass
    ------------   -----------------  -----------------  -----------------  -----------------
         F            0.935245904548     1.600941846718    -0.000005474159    18.998403162730
         O           -1.461383195452     0.591953846718     0.000000425841    15.994914619570
         O           -0.713092095452    -1.549140153282    -0.000007474159    15.994914619570
         C            0.876330904548     0.226875846718    -0.000003474159    12.000000000000
         C            1.945610904548    -0.503476153282    -0.753156474159    12.000000000000
         C            1.945602904548    -0.503472153282     0.753170525841    12.000000000000
         C           -0.498264095452    -0.345593153282    -0.000004474159    12.000000000000
         C           -2.792555095452     0.088414846718     0.000006525841    12.000000000000
         H            2.672844904548     0.126541846718    -1.253539474159     1.007825032230
         H            1.654313904548    -1.411428153282    -1.269250474159     1.007825032230
         H            1.654304904548    -1.411419153282     1.269272525841     1.007825032230
         H            2.672831904548     0.126547846718     1.253558525841     1.007825032230
         H           -3.430968095452     0.969033846718     0.000012525841     1.007825032230
         H           -2.963078095452    -0.518429153282     0.890101525841     1.007825032230
         H           -2.963088095452    -0.518424153282    -0.890090474159     1.007825032230

  Basis Set: AUG-CC-PVTZ
    Blend: AUG-CC-PVTZ
  Basis Set: (AUG-CC-PVTZ AUX)
    Blend: AUG-CC-PVTZ-JKFIT
	 Reference Energy          =    -442.7162584407603845 [Eh]
	 Singles Energy            =      -0.0000000000000000 [Eh]
	 Same-Spin Energy          =      -0.4148053210840216 [Eh]
	 Opposite-Spin Energy      =      -1.2888778292329108 [Eh]
	 Correlation Energy        =      -1.7036831503169325 [Eh]
	 Total Energy              =    -444.4199415910773041 [Eh]

	 ================> DF-SCS-MP2 Energies <==================
	-----------------------------------------------------------
	 SCS Same-Spin Scale       =       0.3333333333333333 [-]
	 SCS Opposite-Spin Scale   =       1.2000000000000000 [-]
	 SCS Same-Spin Energy      =      -0.1382684403613405 [Eh]
	 SCS Opposite-Spin Energy  =      -1.5466533950794930 [Eh]
	 SCS Correlation Energy    =      -1.6849218354408335 [Eh]
	 SCS Total Energy          =    -444.4011802762012167 [Eh]
	-----------------------------------------------------------

  Dipole Moment: [D]
     X:    -0.1180      Y:    -0.1101      Z:     0.0000     Total:     0.1614

*** Psi4 exiting successfully. Buy a developer a beer!
