                               Psi4 1.3.2 release

  ==> Input File <==

--------------------------------------------------------------------------
#psi4
#
memory 32 gb

molecule  {
0 1
  F        0.9463590     1.6328250    -0.0000060
  O       -1.4664859     0.6068855    -0.0000001
  O       -0.7019790    -1.5172570    -0.0000080
  C        0.8874440     0.2587590    -0.0000040
  C        1.9567240    -0.4715930    -0.7531570
  C        1.9567160    -0.4715890     0.7531700
  C       -0.4871510    -0.3137100    -0.0000050
  C       -2.7814420     0.1202980     0.0000060
  H        2.6839580     0.1584250    -1.2535400
  H        1.6654270    -1.3795450    -1.2692510
  H        1.6654180    -1.3795360     1.2692720
  H        2.6839450     0.1584310     1.2535580
  H       -3.4198550     1.0009170     0.0000120
  H       -2.9519650    -0.4865460     0.8901010
  H       -2.9519750    -0.4865410    -0.8900910
units angstrom
no_reorient  #important for SAPT in psi4, default
symmetry c1  #important for SAPT in psi4, default
}

set PROPERTIES_ORIGIN ["COM"]
properties('MP2/aug-cc-pvtz', properties = ['dipole'])
--------------------------------------------------------------------------

    Molecular point group: c1
  Charge       = 0
  Multiplicity = 1
  Basis Set: AUG-CC-PVTZ
    Blend: AUG-CC-PVTZ
  Basis Set: (AUG-CC-PVTZ AUX)
    Blend: AUG-CC-PVTZ-JKFIT

    Orbital Energies [Eh]
    ---------------------

    Doubly Occupied:

       1A    -26.300766     2A    -20.613952     3A    -20.552658
       4A    -11.398067     5A    -11.343310     6A    -11.286994
       7A    -11.255793     8A    -11.255117     9A     -1.612573
      10A     -1.472979    11A     -1.366821    12A     -1.174739
      13A     -1.004656    14A     -0.893745    15A     -0.858197
      16A     -0.784097    17A     -0.762435    18A     -0.711014
      19A     -0.692231    20A     -0.673194    21A     -0.671188
      22A     -0.651275    23A     -0.630434    24A     -0.594253
      25A     -0.564773    26A     -0.535332    27A     -0.532931
      28A     -0.483708    29A     -0.468980    30A     -0.446959
      31A     -0.436810

  @DF-RHF Final Energy:  -442.71616057834490

   => Energetics <=

    Nuclear Repulsion Energy =            390.9376198139524945
    One-Electron Energy =               -1383.2475987157492909
    Two-Electron Energy =                 549.5938183234518419
    Total Energy =                       -442.7161605783448977
  Basis Set: (AUG-CC-PVTZ AUX)
    Blend: AUG-CC-PVTZ-RI
    Molecular point group: c1

    Geometry (in Angstrom), charge = 0, multiplicity = 1:

       Center              X                  Y                   Z               Mass
    ------------   -----------------  -----------------  -----------------  -----------------
         F            0.937443157411     1.603238787474    -0.000005474159    18.998403162730
         O           -1.475401742589     0.577299287474     0.000000425841    15.994914619570
         O           -0.710894842589    -1.546843212526    -0.000007474159    15.994914619570
         C            0.878528157411     0.229172787474    -0.000003474159    12.000000000000
         C            1.947808157411    -0.501179212526    -0.753156474159    12.000000000000
         C            1.947800157411    -0.501175212526     0.753170525841    12.000000000000
         C           -0.496066842589    -0.343296212526    -0.000004474159    12.000000000000
         C           -2.790357842589     0.090711787474     0.000006525841    12.000000000000
         H            2.675042157411     0.128838787474    -1.253539474159     1.007825032230
         H            1.656511157411    -1.409131212526    -1.269250474159     1.007825032230
         H            1.656502157411    -1.409122212526     1.269272525841     1.007825032230
         H            2.675029157411     0.128844787474     1.253558525841     1.007825032230
         H           -3.428770842589     0.971330787474     0.000012525841     1.007825032230
         H           -2.960880842589    -0.516132212526     0.890101525841     1.007825032230
         H           -2.960890842589    -0.516127212526    -0.890090474159     1.007825032230

  Basis Set: AUG-CC-PVTZ
    Blend: AUG-CC-PVTZ
  Basis Set: (AUG-CC-PVTZ AUX)
    Blend: AUG-CC-PVTZ-JKFIT
	 Reference Energy          =    -442.7161605783448977 [Eh]
	 Singles Energy            =      -0.0000000000000000 [Eh]
	 Same-Spin Energy          =      -0.4146322635894412 [Eh]
	 Opposite-Spin Energy      =      -1.2882466545551754 [Eh]
	 Correlation Energy        =      -1.7028789181446167 [Eh]
	 Total Energy              =    -444.4190394964895177 [Eh]

	 ================> DF-SCS-MP2 Energies <==================
	-----------------------------------------------------------
	 SCS Same-Spin Scale       =       0.3333333333333333 [-]
	 SCS Opposite-Spin Scale   =       1.2000000000000000 [-]
	 SCS Same-Spin Energy      =      -0.1382107545298137 [Eh]
	 SCS Opposite-Spin Energy  =      -1.5458959854662104 [Eh]
	 SCS Correlation Energy    =      -1.6841067399960241 [Eh]
	 SCS Total Energy          =    -444.4002673183409229 [Eh]
	-----------------------------------------------------------

  Dipole Moment: [D]
     X:    -0.0245      Y:    -0.0824      Z:     0.0000     Total:     0.0860

*** Psi4 exiting successfully. Buy a developer a beer!
