                               Psi4 1.3.2 release

  ==> Input File <==

--------------------------------------------------------------------------
#psi4
#
memory 32 gb

molecule  {
0 1
  F        0.8983689     1.6340441    -0.0000061
  O       -1.4337610     0.6405030     0.0000000
  O       -0.7019790    -1.5172570    -0.0000080
  C        0.8874440     0.2587590    -0.0000040
  C        1.9567240    -0.4715930    -0.7531570
  C        1.9567160    -0.4715890     0.7531700
  C       -0.4871510    -0.3137100    -0.0000050
  C       -2.7814420     0.1202980     0.0000060
  H        2.6839580     0.1584250    -1.2535400
  H        1.6654270    -1.3795450    -1.2692510
  H        1.6654180    -1.3795360     1.2692720
  H        2.6839450     0.1584310     1.2535580
  H       -3.4198550     1.0009170     0.0000120
  H       -2.9519650    -0.4865460     0.8901010
  H       -2.9519750    -0.4865410    -0.8900910
units angstrom
no_reorient  #important for SAPT in psi4, default
symmetry c1  #important for SAPT in psi4, default
}

set PROPERTIES_ORIGIN ["COM"]
properties('MP2/aug-cc-pvtz', properties = ['dipole'])
--------------------------------------------------------------------------

    Molecular point group: c1
  Charge       = 0
  Multiplicity = 1
  Basis Set: AUG-CC-PVTZ
    Blend: AUG-CC-PVTZ
  Basis Set: (AUG-CC-PVTZ AUX)
    Blend: AUG-CC-PVTZ-JKFIT

    Orbital Energies [Eh]
    ---------------------

    Doubly Occupied:

       1A    -26.298562     2A    -20.615665     3A    -20.552212
       4A    -11.395142     5A    -11.340355     6A    -11.291361
       7A    -11.254844     8A    -11.254169     9A     -1.610642
      10A     -1.464905    11A     -1.363784    12A     -1.173366
      13A     -0.999131    14A     -0.893538    15A     -0.856945
      16A     -0.781277    17A     -0.757858    18A     -0.710674
      19A     -0.689329    20A     -0.669405    21A     -0.667582
      22A     -0.644068    23A     -0.630644    24A     -0.587501
      25A     -0.564881    26A     -0.539247    27A     -0.535593
      28A     -0.483954    29A     -0.472524    30A     -0.444537
      31A     -0.435588

  @DF-RHF Final Energy:  -442.71522305089889

   => Energetics <=

    Nuclear Repulsion Energy =            390.9249729075081632
    One-Electron Energy =               -1383.3218257338057811
    Two-Electron Energy =                 549.6816297753987328
    Total Energy =                       -442.7152230508988850
  Basis Set: (AUG-CC-PVTZ AUX)
    Blend: AUG-CC-PVTZ-RI
    Molecular point group: c1

    Geometry (in Angstrom), charge = 0, multiplicity = 1:

       Center              X                  Y                   Z               Mass
    ------------   -----------------  -----------------  -----------------  -----------------
         F            0.892742564295     1.599706483669    -0.000005571614    18.998403162730
         O           -1.439387335705     0.606165383669     0.000000528386    15.994914619570
         O           -0.707605335705    -1.551594616331    -0.000007471614    15.994914619570
         C            0.881817664295     0.224421383669    -0.000003471614    12.000000000000
         C            1.951097664295    -0.505930616331    -0.753156471614    12.000000000000
         C            1.951089664295    -0.505926616331     0.753170528386    12.000000000000
         C           -0.492777335705    -0.348047616331    -0.000004471614    12.000000000000
         C           -2.787068335705     0.085960383669     0.000006528386    12.000000000000
         H            2.678331664295     0.124087383669    -1.253539471614     1.007825032230
         H            1.659800664295    -1.413882616331    -1.269250471614     1.007825032230
         H            1.659791664295    -1.413873616331     1.269272528386     1.007825032230
         H            2.678318664295     0.124093383669     1.253558528386     1.007825032230
         H           -3.425481335705     0.966579383669     0.000012528386     1.007825032230
         H           -2.957591335705    -0.520883616331     0.890101528386     1.007825032230
         H           -2.957601335705    -0.520878616331    -0.890090471614     1.007825032230

  Basis Set: AUG-CC-PVTZ
    Blend: AUG-CC-PVTZ
  Basis Set: (AUG-CC-PVTZ AUX)
    Blend: AUG-CC-PVTZ-JKFIT
	 Reference Energy          =    -442.7152230508988850 [Eh]
	 Singles Energy            =      -0.0000000000000000 [Eh]
	 Same-Spin Energy          =      -0.4149792132945026 [Eh]
	 Opposite-Spin Energy      =      -1.2895032827027908 [Eh]
	 Correlation Energy        =      -1.7044824959972935 [Eh]
	 Total Energy              =    -444.4197055468961821 [Eh]

	 ================> DF-SCS-MP2 Energies <==================
	-----------------------------------------------------------
	 SCS Same-Spin Scale       =       0.3333333333333333 [-]
	 SCS Opposite-Spin Scale   =       1.2000000000000000 [-]
	 SCS Same-Spin Energy      =      -0.1383264044315008 [Eh]
	 SCS Opposite-Spin Energy  =      -1.5474039392433490 [Eh]
	 SCS Correlation Energy    =      -1.6857303436748499 [Eh]
	 SCS Total Energy          =    -444.4009533945737189 [Eh]
	-----------------------------------------------------------

  Dipole Moment: [D]
     X:    -0.1332      Y:    -0.1301      Z:     0.0000     Total:     0.1862

*** Psi4 exiting successfully. Buy a developer a beer!
