                               Psi4 1.3.2 release

  ==> Input File <==

--------------------------------------------------------------------------
#psi4
#
memory 32 gb

molecule  {
0 1
  F        0.9942773     1.6299319    -0.0000059
  O       -1.4337610     0.6405030     0.0000000
  O       -0.7019790    -1.5172570    -0.0000080
  C        0.8874440     0.2587590    -0.0000040
  C        1.9567240    -0.4715930    -0.7531570
  C        1.9567160    -0.4715890     0.7531700
  C       -0.4871510    -0.3137100    -0.0000050
  C       -2.7814420     0.1202980     0.0000060
  H        2.6839580     0.1584250    -1.2535400
  H        1.6654270    -1.3795450    -1.2692510
  H        1.6654180    -1.3795360     1.2692720
  H        2.6839450     0.1584310     1.2535580
  H       -3.4198550     1.0009170     0.0000120
  H       -2.9519650    -0.4865460     0.8901010
  H       -2.9519750    -0.4865410    -0.8900910
units angstrom
no_reorient  #important for SAPT in psi4, default
symmetry c1  #important for SAPT in psi4, default
}

set PROPERTIES_ORIGIN ["COM"]
properties('MP2/aug-cc-pvtz', properties = ['dipole'])
--------------------------------------------------------------------------

    Molecular point group: c1
  Charge       = 0
  Multiplicity = 1
  Basis Set: AUG-CC-PVTZ
    Blend: AUG-CC-PVTZ
  Basis Set: (AUG-CC-PVTZ AUX)
    Blend: AUG-CC-PVTZ-JKFIT

    Orbital Energies [Eh]
    ---------------------

    Doubly Occupied:

       1A    -26.299046     2A    -20.617487     3A    -20.554275
       4A    -11.398348     5A    -11.340109     6A    -11.292507
       7A    -11.253345     8A    -11.252668     9A     -1.611021
      10A     -1.466886    11A     -1.365610    12A     -1.172262
      13A     -1.000244    14A     -0.893391    15A     -0.856280
      16A     -0.783737    17A     -0.759534    18A     -0.708650
      19A     -0.689078    20A     -0.669688    21A     -0.669523
      22A     -0.647970    23A     -0.627061    24A     -0.589422
      25A     -0.566110    26A     -0.540984    27A     -0.534631
      28A     -0.484287    29A     -0.473860    30A     -0.444245
      31A     -0.435004

  @DF-RHF Final Energy:  -442.71518052722303

   => Energetics <=

    Nuclear Repulsion Energy =            390.3496858451287608
    One-Electron Energy =               -1382.1352070739785631
    Two-Electron Energy =                 549.0703407016267192
    Total Energy =                       -442.7151805272230831
  Basis Set: (AUG-CC-PVTZ AUX)
    Blend: AUG-CC-PVTZ-RI
    Molecular point group: c1

    Geometry (in Angstrom), charge = 0, multiplicity = 1:

       Center              X                  Y                   Z               Mass
    ------------   -----------------  -----------------  -----------------  -----------------
         F            0.973215010175     1.596256120699    -0.000005403803    18.998403162730
         O           -1.454823289825     0.606827220699     0.000000496197    15.994914619570
         O           -0.723041289825    -1.550932779301    -0.000007503803    15.994914619570
         C            0.866381710175     0.225083220699    -0.000003503803    12.000000000000
         C            1.935661710175    -0.505268779301    -0.753156503803    12.000000000000
         C            1.935653710175    -0.505264779301     0.753170496197    12.000000000000
         C           -0.508213289825    -0.347385779301    -0.000004503803    12.000000000000
         C           -2.802504289825     0.086622220699     0.000006496197    12.000000000000
         H            2.662895710175     0.124749220699    -1.253539503803     1.007825032230
         H            1.644364710175    -1.413220779301    -1.269250503803     1.007825032230
         H            1.644355710175    -1.413211779301     1.269272496197     1.007825032230
         H            2.662882710175     0.124755220699     1.253558496197     1.007825032230
         H           -3.440917289825     0.967241220699     0.000012496197     1.007825032230
         H           -2.973027289825    -0.520221779301     0.890101496197     1.007825032230
         H           -2.973037289825    -0.520216779301    -0.890090503803     1.007825032230

  Basis Set: AUG-CC-PVTZ
    Blend: AUG-CC-PVTZ
  Basis Set: (AUG-CC-PVTZ AUX)
    Blend: AUG-CC-PVTZ-JKFIT
	 Reference Energy          =    -442.7151805272230263 [Eh]
	 Singles Energy            =      -0.0000000000000000 [Eh]
	 Same-Spin Energy          =      -0.4150647533971109 [Eh]
	 Opposite-Spin Energy      =      -1.2896792750984527 [Eh]
	 Correlation Energy        =      -1.7047440284955635 [Eh]
	 Total Energy              =    -444.4199245557185805 [Eh]

	 ================> DF-SCS-MP2 Energies <==================
	-----------------------------------------------------------
	 SCS Same-Spin Scale       =       0.3333333333333333 [-]
	 SCS Opposite-Spin Scale   =       1.2000000000000000 [-]
	 SCS Same-Spin Energy      =      -0.1383549177990370 [Eh]
	 SCS Opposite-Spin Energy  =      -1.5476151301181431 [Eh]
	 SCS Correlation Energy    =      -1.6859700479171802 [Eh]
	 SCS Total Energy          =    -444.4011505751402069 [Eh]
	-----------------------------------------------------------

  Dipole Moment: [D]
     X:    -0.2852      Y:    -0.1395      Z:     0.0000     Total:     0.3175

*** Psi4 exiting successfully. Buy a developer a beer!
