                               Psi4 1.3.2 release

  ==> Input File <==

--------------------------------------------------------------------------
#psi4
#
memory 32 gb

molecule  {
0 1
  F        0.9463590     1.6328250    -0.0000060
  O       -1.4337610     0.6405030     0.0000000
  O       -0.7019790    -1.5172570    -0.0000080
  C        0.8960114     0.4585754    -0.0000043
  C        1.9567240    -0.4715930    -0.7531570
  C        1.9567160    -0.4715890     0.7531700
  C       -0.4871510    -0.3137100    -0.0000050
  C       -2.7814420     0.1202980     0.0000060
  H        2.6839580     0.1584250    -1.2535400
  H        1.6654270    -1.3795450    -1.2692510
  H        1.6654180    -1.3795360     1.2692720
  H        2.6839450     0.1584310     1.2535580
  H       -3.4198550     1.0009170     0.0000120
  H       -2.9519650    -0.4865460     0.8901010
  H       -2.9519750    -0.4865410    -0.8900910
units angstrom
no_reorient  #important for SAPT in psi4, default
symmetry c1  #important for SAPT in psi4, default
}

set PROPERTIES_ORIGIN ["COM"]
properties('MP2/aug-cc-pvtz', properties = ['dipole'])
--------------------------------------------------------------------------

    Molecular point group: c1
  Charge       = 0
  Multiplicity = 1
  Basis Set: AUG-CC-PVTZ
    Blend: AUG-CC-PVTZ
  Basis Set: (AUG-CC-PVTZ AUX)
    Blend: AUG-CC-PVTZ-JKFIT

    Orbital Energies [Eh]
    ---------------------

    Doubly Occupied:

       1A    -26.350099     2A    -20.610257     3A    -20.548795
       4A    -11.391064     5A    -11.351001     6A    -11.287859
       7A    -11.247307     8A    -11.246635     9A     -1.746034
      10A     -1.459844    11A     -1.357341    12A     -1.127711
      13A     -0.992278    14A     -0.910995    15A     -0.848643
      16A     -0.834607    17A     -0.770587    18A     -0.760084
      19A     -0.739605    20A     -0.670611    21A     -0.670190
      22A     -0.645714    23A     -0.633847    24A     -0.570828
      25A     -0.555595    26A     -0.536932    27A     -0.528475
      28A     -0.481045    29A     -0.468168    30A     -0.417327
      31A     -0.383161

  @DF-RHF Final Energy:  -442.66376345527186

   => Energetics <=

    Nuclear Repulsion Energy =            390.9440183650473273
    One-Electron Energy =               -1382.9302851401307635
    Two-Electron Energy =                 549.3225033198115170
    Total Energy =                       -442.6637634552719192
  Basis Set: (AUG-CC-PVTZ AUX)
    Blend: AUG-CC-PVTZ-RI
    Molecular point group: c1

    Geometry (in Angstrom), charge = 0, multiplicity = 1:

       Center              X                  Y                   Z               Mass
    ------------   -----------------  -----------------  -----------------  -----------------
         F            0.932137965735     1.578370683033    -0.000005457211    18.998403162730
         O           -1.447982034265     0.586048683033     0.000000542789    15.994914619570
         O           -0.716200034265    -1.571711316967    -0.000007457211    15.994914619570
         C            0.881790365735     0.404121083033    -0.000003757211    12.000000000000
         C            1.942502965735    -0.526047316967    -0.753156457211    12.000000000000
         C            1.942494965735    -0.526043316967     0.753170542789    12.000000000000
         C           -0.501372034265    -0.368164316967    -0.000004457211    12.000000000000
         C           -2.795663034265     0.065843683033     0.000006542789    12.000000000000
         H            2.669736965735     0.103970683033    -1.253539457211     1.007825032230
         H            1.651205965735    -1.433999316967    -1.269250457211     1.007825032230
         H            1.651196965735    -1.433990316967     1.269272542789     1.007825032230
         H            2.669723965735     0.103976683033     1.253558542789     1.007825032230
         H           -3.434076034265     0.946462683033     0.000012542789     1.007825032230
         H           -2.966186034265    -0.541000316967     0.890101542789     1.007825032230
         H           -2.966196034265    -0.540995316967    -0.890090457211     1.007825032230

  Basis Set: AUG-CC-PVTZ
    Blend: AUG-CC-PVTZ
  Basis Set: (AUG-CC-PVTZ AUX)
    Blend: AUG-CC-PVTZ-JKFIT
	 Reference Energy          =    -442.6637634552718623 [Eh]
	 Singles Energy            =      -0.0000000000000000 [Eh]
	 Same-Spin Energy          =      -0.4157675450500443 [Eh]
	 Opposite-Spin Energy      =      -1.2888853269533764 [Eh]
	 Correlation Energy        =      -1.7046528720034206 [Eh]
	 Total Energy              =    -444.3684163272752699 [Eh]

	 ================> DF-SCS-MP2 Energies <==================
	-----------------------------------------------------------
	 SCS Same-Spin Scale       =       0.3333333333333333 [-]
	 SCS Opposite-Spin Scale   =       1.2000000000000000 [-]
	 SCS Same-Spin Energy      =      -0.1385891816833481 [Eh]
	 SCS Opposite-Spin Energy  =      -1.5466623923440517 [Eh]
	 SCS Correlation Energy    =      -1.6852515740273997 [Eh]
	 SCS Total Energy          =    -444.3490150292992666 [Eh]
	-----------------------------------------------------------

  Dipole Moment: [D]
     X:    -0.2588      Y:     0.8706      Z:     0.0000     Total:     0.9082

*** Psi4 exiting successfully. Buy a developer a beer!
