                               Psi4 1.3.2 release

  ==> Input File <==

--------------------------------------------------------------------------
#psi4
#
memory 32 gb

molecule  {
0 1
  F        0.9463590     1.6328250    -0.0000060
  O       -1.4980176     0.5721464    -0.0000002
  O       -0.7019790    -1.5172570    -0.0000080
  C        0.8874440     0.2587590    -0.0000040
  C        1.9567240    -0.4715930    -0.7531570
  C        1.9567160    -0.4715890     0.7531700
  C       -0.4871510    -0.3137100    -0.0000050
  C       -2.7814420     0.1202980     0.0000060
  H        2.6839580     0.1584250    -1.2535400
  H        1.6654270    -1.3795450    -1.2692510
  H        1.6654180    -1.3795360     1.2692720
  H        2.6839450     0.1584310     1.2535580
  H       -3.4198550     1.0009170     0.0000120
  H       -2.9519650    -0.4865460     0.8901010
  H       -2.9519750    -0.4865410    -0.8900910
units angstrom
no_reorient  #important for SAPT in psi4, default
symmetry c1  #important for SAPT in psi4, default
}

set PROPERTIES_ORIGIN ["COM"]
properties('MP2/aug-cc-pvtz', properties = ['dipole'])
--------------------------------------------------------------------------

    Molecular point group: c1
  Charge       = 0
  Multiplicity = 1
  Basis Set: AUG-CC-PVTZ
    Blend: AUG-CC-PVTZ
  Basis Set: (AUG-CC-PVTZ AUX)
    Blend: AUG-CC-PVTZ-JKFIT

    Orbital Energies [Eh]
    ---------------------

    Doubly Occupied:

       1A    -26.302684     2A    -20.610908     3A    -20.552067
       4A    -11.399638     5A    -11.346411     6A    -11.282269
       7A    -11.257492     8A    -11.256815     9A     -1.614390
      10A     -1.480982    11A     -1.369171    12A     -1.176640
      13A     -1.010073    14A     -0.894529    15A     -0.859797
      16A     -0.785435    17A     -0.766112    18A     -0.712477
      19A     -0.696071    20A     -0.677605    21A     -0.673390
      22A     -0.656697    23A     -0.631890    24A     -0.599518
      25A     -0.564556    26A     -0.535511    27A     -0.525381
      28A     -0.482843    29A     -0.463919    30A     -0.449221
      31A     -0.438267

  @DF-RHF Final Energy:  -442.71312544282989

   => Energetics <=

    Nuclear Repulsion Energy =            391.3059554449438338
    One-Electron Energy =               -1383.8926476917504260
    Two-Electron Energy =                 549.8735668039767006
    Total Energy =                       -442.7131254428298917
  Basis Set: (AUG-CC-PVTZ AUX)
    Blend: AUG-CC-PVTZ-RI
    Molecular point group: c1

    Geometry (in Angstrom), charge = 0, multiplicity = 1:

       Center              X                  Y                   Z               Mass
    ------------   -----------------  -----------------  -----------------  -----------------
         F            0.941715726024     1.607945961152    -0.000005460609    18.998403162730
         O           -1.502660873976     0.547267361152     0.000000339391    15.994914619570
         O           -0.706622273976    -1.542136038848    -0.000007460609    15.994914619570
         C            0.882800726024     0.233879961152    -0.000003460609    12.000000000000
         C            1.952080726024    -0.496472038848    -0.753156460609    12.000000000000
         C            1.952072726024    -0.496468038848     0.753170539391    12.000000000000
         C           -0.491794273976    -0.338589038848    -0.000004460609    12.000000000000
         C           -2.786085273976     0.095418961152     0.000006539391    12.000000000000
         H            2.679314726024     0.133545961152    -1.253539460609     1.007825032230
         H            1.660783726024    -1.404424038848    -1.269250460609     1.007825032230
         H            1.660774726024    -1.404415038848     1.269272539391     1.007825032230
         H            2.679301726024     0.133551961152     1.253558539391     1.007825032230
         H           -3.424498273976     0.976037961152     0.000012539391     1.007825032230
         H           -2.956608273976    -0.511425038848     0.890101539391     1.007825032230
         H           -2.956618273976    -0.511420038848    -0.890090460609     1.007825032230

  Basis Set: AUG-CC-PVTZ
    Blend: AUG-CC-PVTZ
  Basis Set: (AUG-CC-PVTZ AUX)
    Blend: AUG-CC-PVTZ-JKFIT
	 Reference Energy          =    -442.7131254428298917 [Eh]
	 Singles Energy            =      -0.0000000000000000 [Eh]
	 Same-Spin Energy          =      -0.4143822969834084 [Eh]
	 Opposite-Spin Energy      =      -1.2871699073344993 [Eh]
	 Correlation Energy        =      -1.7015522043179079 [Eh]
	 Total Energy              =    -444.4146776471478120 [Eh]

	 ================> DF-SCS-MP2 Energies <==================
	-----------------------------------------------------------
	 SCS Same-Spin Scale       =       0.3333333333333333 [-]
	 SCS Opposite-Spin Scale   =       1.2000000000000000 [-]
	 SCS Same-Spin Energy      =      -0.1381274323278028 [Eh]
	 SCS Opposite-Spin Energy  =      -1.5446038888013991 [Eh]
	 SCS Correlation Energy    =      -1.6827313211292019 [Eh]
	 SCS Total Energy          =    -444.3958567639591024 [Eh]
	-----------------------------------------------------------

  Dipole Moment: [D]
     X:     0.1686      Y:    -0.0225      Z:     0.0000     Total:     0.1701

*** Psi4 exiting successfully. Buy a developer a beer!
