                               Psi4 1.3.2 release

  ==> Input File <==

--------------------------------------------------------------------------
#psi4
#
memory 32 gb

molecule  {
0 1
  F        0.9463590     1.6328250    -0.0000060
  O       -1.4337610     0.6405030     0.0000000
  O       -0.7019790    -1.5172570    -0.0000080
  C        0.8874440     0.2587590    -0.0000040
  C        1.8467125    -0.5766736    -0.7911231
  C        1.9567160    -0.4715890     0.7531700
  C       -0.4871510    -0.3137100    -0.0000050
  C       -2.7814420     0.1202980     0.0000060
  H        2.6839580     0.1584250    -1.2535400
  H        1.6654270    -1.3795450    -1.2692510
  H        1.6654180    -1.3795360     1.2692720
  H        2.6839450     0.1584310     1.2535580
  H       -3.4198550     1.0009170     0.0000120
  H       -2.9519650    -0.4865460     0.8901010
  H       -2.9519750    -0.4865410    -0.8900910
units angstrom
no_reorient  #important for SAPT in psi4, default
symmetry c1  #important for SAPT in psi4, default
}

set PROPERTIES_ORIGIN ["COM"]
properties('MP2/aug-cc-pvtz', properties = ['dipole'])
--------------------------------------------------------------------------

    Molecular point group: c1
  Charge       = 0
  Multiplicity = 1
  Basis Set: AUG-CC-PVTZ
    Blend: AUG-CC-PVTZ
  Basis Set: (AUG-CC-PVTZ AUX)
    Blend: AUG-CC-PVTZ-JKFIT

    Orbital Energies [Eh]
    ---------------------

    Doubly Occupied:

       1A    -26.304582     2A    -20.616582     3A    -20.553001
       4A    -11.395961     5A    -11.345858     6A    -11.291886
       7A    -11.257203     8A    -11.256356     9A     -1.614772
      10A     -1.466124    11A     -1.365104    12A     -1.168578
      13A     -0.998703    14A     -0.892415    15A     -0.869124
      16A     -0.786910    17A     -0.758704    18A     -0.718750
      19A     -0.694155    20A     -0.673455    21A     -0.669082
      22A     -0.642465    23A     -0.633115    24A     -0.584854
      25A     -0.561294    26A     -0.540931    27A     -0.534709
      28A     -0.478720    29A     -0.475174    30A     -0.440740
      31A     -0.432881

  @DF-RHF Final Energy:  -442.68365754856586

   => Energetics <=

    Nuclear Repulsion Energy =            390.8783870186233571
    One-Electron Energy =               -1383.0797195145880778
    Two-Electron Energy =                 549.5176749473988593
    Total Energy =                       -442.6836575485658614
  Basis Set: (AUG-CC-PVTZ AUX)
    Blend: AUG-CC-PVTZ-RI
    Molecular point group: c1

    Geometry (in Angstrom), charge = 0, multiplicity = 1:

       Center              X                  Y                   Z               Mass
    ------------   -----------------  -----------------  -----------------  -----------------
         F            0.944192443409     1.609365860752     0.003854064917    18.998403162730
         O           -1.435927556591     0.617043860752     0.003860064917    15.994914619570
         O           -0.704145556591    -1.540716139248     0.003852064917    15.994914619570
         C            0.885277443409     0.235299860752     0.003856064917    12.000000000000
         C            1.844545943409    -0.600132739248    -0.787263035083    12.000000000000
         C            1.954549443409    -0.495048139248     0.757030064917    12.000000000000
         C           -0.489317556591    -0.337169139248     0.003855064917    12.000000000000
         C           -2.783608556591     0.096838860752     0.003866064917    12.000000000000
         H            2.681791443409     0.134965860752    -1.249679935083     1.007825032230
         H            1.663260443409    -1.403004139248    -1.265390935083     1.007825032230
         H            1.663251443409    -1.402995139248     1.273132064917     1.007825032230
         H            2.681778443409     0.134971860752     1.257418064917     1.007825032230
         H           -3.422021556591     0.977457860752     0.003872064917     1.007825032230
         H           -2.954131556591    -0.510005139248     0.893961064917     1.007825032230
         H           -2.954141556591    -0.510000139248    -0.886230935083     1.007825032230

  Basis Set: AUG-CC-PVTZ
    Blend: AUG-CC-PVTZ
  Basis Set: (AUG-CC-PVTZ AUX)
    Blend: AUG-CC-PVTZ-JKFIT
	 Reference Energy          =    -442.6836575485658614 [Eh]
	 Singles Energy            =      -0.0000000000000000 [Eh]
	 Same-Spin Energy          =      -0.4155623824868653 [Eh]
	 Opposite-Spin Energy      =      -1.2916519116364948 [Eh]
	 Correlation Energy        =      -1.7072142941233601 [Eh]
	 Total Energy              =    -444.3908718426891937 [Eh]

	 ================> DF-SCS-MP2 Energies <==================
	-----------------------------------------------------------
	 SCS Same-Spin Scale       =       0.3333333333333333 [-]
	 SCS Opposite-Spin Scale   =       1.2000000000000000 [-]
	 SCS Same-Spin Energy      =      -0.1385207941622884 [Eh]
	 SCS Opposite-Spin Energy  =      -1.5499822939637937 [Eh]
	 SCS Correlation Energy    =      -1.6885030881260821 [Eh]
	 SCS Total Energy          =    -444.3721606366919445 [Eh]
	-----------------------------------------------------------

  Dipole Moment: [D]
     X:    -0.2581      Y:    -0.1359      Z:     0.0389     Total:     0.2942

*** Psi4 exiting successfully. Buy a developer a beer!
