                               Psi4 1.3.2 release

  ==> Input File <==

--------------------------------------------------------------------------
#psi4
#
memory 32 gb

molecule  {
0 1
  F        0.9463590     1.6328250    -0.0000060
  O       -1.4337610     0.6405030     0.0000000
  O       -0.6598449    -1.5240212    -0.0000080
  C        0.8874440     0.2587590    -0.0000040
  C        1.9567240    -0.4715930    -0.7531570
  C        1.9567160    -0.4715890     0.7531700
  C       -0.4871510    -0.3137100    -0.0000050
  C       -2.7814420     0.1202980     0.0000060
  H        2.6839580     0.1584250    -1.2535400
  H        1.6654270    -1.3795450    -1.2692510
  H        1.6654180    -1.3795360     1.2692720
  H        2.6839450     0.1584310     1.2535580
  H       -3.4198550     1.0009170     0.0000120
  H       -2.9519650    -0.4865460     0.8901010
  H       -2.9519750    -0.4865410    -0.8900910
units angstrom
no_reorient  #important for SAPT in psi4, default
symmetry c1  #important for SAPT in psi4, default
}

set PROPERTIES_ORIGIN ["COM"]
properties('MP2/aug-cc-pvtz', properties = ['dipole'])
--------------------------------------------------------------------------

    Molecular point group: c1
  Charge       = 0
  Multiplicity = 1
  Basis Set: AUG-CC-PVTZ
    Blend: AUG-CC-PVTZ
  Basis Set: (AUG-CC-PVTZ AUX)
    Blend: AUG-CC-PVTZ-JKFIT

    Orbital Energies [Eh]
    ---------------------

    Doubly Occupied:

       1A    -26.297201     2A    -20.619398     3A    -20.553934
       4A    -11.397129     5A    -11.337963     6A    -11.293711
       7A    -11.252558     8A    -11.251882     9A     -1.609370
      10A     -1.466074    11A     -1.367775    12A     -1.170886
      13A     -1.000501    14A     -0.893041    15A     -0.855210
      16A     -0.782371    17A     -0.759020    18A     -0.709012
      19A     -0.688827    20A     -0.669575    21A     -0.668892
      22A     -0.645581    23A     -0.628014    24A     -0.588341
      25A     -0.566736    26A     -0.542119    27A     -0.534093
      28A     -0.483845    29A     -0.474739    30A     -0.443322
      31A     -0.433686

  @DF-RHF Final Energy:  -442.71498523033108

   => Energetics <=

    Nuclear Repulsion Energy =            390.7092717362214103
    One-Electron Energy =               -1382.8788979533587735
    Two-Electron Energy =                 549.4546409868063392
    Total Energy =                       -442.7149852303310809
  Basis Set: (AUG-CC-PVTZ AUX)
    Blend: AUG-CC-PVTZ-RI
    Molecular point group: c1

    Geometry (in Angstrom), charge = 0, multiplicity = 1:

       Center              X                  Y                   Z               Mass
    ------------   -----------------  -----------------  -----------------  -----------------
         F            0.927299707684     1.599600145513    -0.000005487709    18.998403162730
         O           -1.452820292316     0.607278145513     0.000000512291    15.994914619570
         O           -0.678904192316    -1.557246054487    -0.000007487709    15.994914619570
         C            0.868384707684     0.225534145513    -0.000003487709    12.000000000000
         C            1.937664707684    -0.504817854487    -0.753156487709    12.000000000000
         C            1.937656707684    -0.504813854487     0.753170512291    12.000000000000
         C           -0.506210292316    -0.346934854487    -0.000004487709    12.000000000000
         C           -2.800501292316     0.087073145513     0.000006512291    12.000000000000
         H            2.664898707684     0.125200145513    -1.253539487709     1.007825032230
         H            1.646367707684    -1.412769854487    -1.269250487709     1.007825032230
         H            1.646358707684    -1.412760854487     1.269272512291     1.007825032230
         H            2.664885707684     0.125206145513     1.253558512291     1.007825032230
         H           -3.438914292316     0.967692145513     0.000012512291     1.007825032230
         H           -2.971024292316    -0.519770854487     0.890101512291     1.007825032230
         H           -2.971034292316    -0.519765854487    -0.890090487709     1.007825032230

  Basis Set: AUG-CC-PVTZ
    Blend: AUG-CC-PVTZ
  Basis Set: (AUG-CC-PVTZ AUX)
    Blend: AUG-CC-PVTZ-JKFIT
	 Reference Energy          =    -442.7149852303310809 [Eh]
	 Singles Energy            =      -0.0000000000000000 [Eh]
	 Same-Spin Energy          =      -0.4150467439433467 [Eh]
	 Opposite-Spin Energy      =      -1.2896847965798337 [Eh]
	 Correlation Energy        =      -1.7047315405231804 [Eh]
	 Total Energy              =    -444.4197167708542793 [Eh]

	 ================> DF-SCS-MP2 Energies <==================
	-----------------------------------------------------------
	 SCS Same-Spin Scale       =       0.3333333333333333 [-]
	 SCS Opposite-Spin Scale   =       1.2000000000000000 [-]
	 SCS Same-Spin Energy      =      -0.1383489146477822 [Eh]
	 SCS Opposite-Spin Energy  =      -1.5476217558958003 [Eh]
	 SCS Correlation Energy    =      -1.6859706705435826 [Eh]
	 SCS Total Energy          =    -444.4009559008746919 [Eh]
	-----------------------------------------------------------

  Dipole Moment: [D]
     X:    -0.3548      Y:    -0.1307      Z:     0.0000     Total:     0.3781

*** Psi4 exiting successfully. Buy a developer a beer!
