                               Psi4 1.3.2 release

  ==> Input File <==

--------------------------------------------------------------------------
#psi4
#
memory 32 gb

molecule  {
0 1
  F        1.0420655     1.6253681    -0.0000059
  O       -1.4337610     0.6405030     0.0000000
  O       -0.7019790    -1.5172570    -0.0000080
  C        0.8874440     0.2587590    -0.0000040
  C        1.9567240    -0.4715930    -0.7531570
  C        1.9567160    -0.4715890     0.7531700
  C       -0.4871510    -0.3137100    -0.0000050
  C       -2.7814420     0.1202980     0.0000060
  H        2.6839580     0.1584250    -1.2535400
  H        1.6654270    -1.3795450    -1.2692510
  H        1.6654180    -1.3795360     1.2692720
  H        2.6839450     0.1584310     1.2535580
  H       -3.4198550     1.0009170     0.0000120
  H       -2.9519650    -0.4865460     0.8901010
  H       -2.9519750    -0.4865410    -0.8900910
units angstrom
no_reorient  #important for SAPT in psi4, default
symmetry c1  #important for SAPT in psi4, default
}

set PROPERTIES_ORIGIN ["COM"]
properties('MP2/aug-cc-pvtz', properties = ['dipole'])
--------------------------------------------------------------------------

    Molecular point group: c1
  Charge       = 0
  Multiplicity = 1
  Basis Set: AUG-CC-PVTZ
    Blend: AUG-CC-PVTZ
  Basis Set: (AUG-CC-PVTZ AUX)
    Blend: AUG-CC-PVTZ-JKFIT

    Orbital Energies [Eh]
    ---------------------

    Doubly Occupied:

       1A    -26.299164     2A    -20.618324     3A    -20.555266
       4A    -11.399911     5A    -11.339979     6A    -11.293036
       7A    -11.252590     8A    -11.251912     9A     -1.611318
      10A     -1.467814    11A     -1.366482    12A     -1.171667
      13A     -1.000782    14A     -0.893343    15A     -0.855973
      16A     -0.784887    17A     -0.760375    18A     -0.707658
      19A     -0.688990    20A     -0.670666    21A     -0.669584
      22A     -0.649979    23A     -0.624854    24A     -0.590321
      25A     -0.566716    26A     -0.541775    27A     -0.534062
      28A     -0.484533    29A     -0.474504    30A     -0.443911
      31A     -0.434675

  @DF-RHF Final Energy:  -442.71431225647768

   => Energetics <=

    Nuclear Repulsion Energy =            390.1182290113368936
    One-Electron Energy =               -1381.6549805490824383
    Two-Electron Energy =                 548.8224392812678616
    Total Energy =                       -442.7143122564776831
  Basis Set: (AUG-CC-PVTZ AUX)
    Blend: AUG-CC-PVTZ-RI
    Molecular point group: c1

    Geometry (in Angstrom), charge = 0, multiplicity = 1:

       Center              X                  Y                   Z               Mass
    ------------   -----------------  -----------------  -----------------  -----------------
         F            1.013311949945     1.592426840380    -0.000005403803    18.998403162730
         O           -1.462514550055     0.607561740380     0.000000496197    15.994914619570
         O           -0.730732550055    -1.550198259620    -0.000007503803    15.994914619570
         C            0.858690449945     0.225817740380    -0.000003503803    12.000000000000
         C            1.927970449945    -0.504534259620    -0.753156503803    12.000000000000
         C            1.927962449945    -0.504530259620     0.753170496197    12.000000000000
         C           -0.515904550055    -0.346651259620    -0.000004503803    12.000000000000
         C           -2.810195550055     0.087356740380     0.000006496197    12.000000000000
         H            2.655204449945     0.125483740380    -1.253539503803     1.007825032230
         H            1.636673449945    -1.412486259620    -1.269250503803     1.007825032230
         H            1.636664449945    -1.412477259620     1.269272496197     1.007825032230
         H            2.655191449945     0.125489740380     1.253558496197     1.007825032230
         H           -3.448608550055     0.967975740380     0.000012496197     1.007825032230
         H           -2.980718550055    -0.519487259620     0.890101496197     1.007825032230
         H           -2.980728550055    -0.519482259620    -0.890090503803     1.007825032230

  Basis Set: AUG-CC-PVTZ
    Blend: AUG-CC-PVTZ
  Basis Set: (AUG-CC-PVTZ AUX)
    Blend: AUG-CC-PVTZ-JKFIT
	 Reference Energy          =    -442.7143122564776831 [Eh]
	 Singles Energy            =      -0.0000000000000000 [Eh]
	 Same-Spin Energy          =      -0.4151443766084820 [Eh]
	 Opposite-Spin Energy      =      -1.2898354759777730 [Eh]
	 Correlation Energy        =      -1.7049798525862550 [Eh]
	 Total Energy              =    -444.4192921090639175 [Eh]

	 ================> DF-SCS-MP2 Energies <==================
	-----------------------------------------------------------
	 SCS Same-Spin Scale       =       0.3333333333333333 [-]
	 SCS Opposite-Spin Scale   =       1.2000000000000000 [-]
	 SCS Same-Spin Energy      =      -0.1383814588694940 [Eh]
	 SCS Opposite-Spin Energy  =      -1.5478025711733276 [Eh]
	 SCS Correlation Energy    =      -1.6861840300428217 [Eh]
	 SCS Total Energy          =    -444.4004962865204789 [Eh]
	-----------------------------------------------------------

  Dipole Moment: [D]
     X:    -0.3602      Y:    -0.1393      Z:     0.0000     Total:     0.3862

*** Psi4 exiting successfully. Buy a developer a beer!
