                               Psi4 1.4a3.dev225

  ==> Input File <==

--------------------------------------------------------------------------
#psi4
#
memory 32 gb

molecule  {
-1 1
  O       -2.4775990    -1.4732410    -0.5357720
  O       -2.5836320     0.8103810    -0.7086120
  C        0.1769840    -0.1996970     0.5360780
  C        0.8528670     0.9715620     0.1268880
  C       -1.2378850    -0.1617980     1.0317040
  C        0.8256870    -1.4354030     0.3918760
  C        2.1654290     0.8711020    -0.3500530
  C        0.1613040     2.3091050     0.2016770
  C        2.1298550    -1.5237740    -0.0958170
  C        2.9027305    -0.5391606    -0.4824627
  C       -2.2184660    -0.2891600    -0.2009230
  H       -1.4126520    -1.0091000     1.7035120
  H       -1.4413430     0.7679950     1.5725290
  H        0.2756770    -2.3364080     0.6567980
  H        2.6838580     1.7794620    -0.6595800
  H       -0.8491240     2.2156170    -0.2099720
  H        0.0735000     2.6566880     1.2394400
  H        0.7245490     3.0640340    -0.3581400
  H        2.6081740    -2.4970700    -0.1982670
  H        3.8302350    -0.4147610    -0.8445580
units angstrom
no_reorient  #important for SAPT in psi4, default
symmetry c1  #important for SAPT in psi4, default
}

set PROPERTIES_ORIGIN ["COM"]
properties('MP2/aug-cc-pvtz', properties = ['dipole'])
--------------------------------------------------------------------------

    Molecular point group: c1
  Charge       = -1
  Multiplicity = 1
  Basis Set: AUG-CC-PVTZ
    Blend: AUG-CC-PVTZ
  Basis Set: (AUG-CC-PVTZ AUX)
    Blend: AUG-CC-PVTZ-JKFIT

    Orbital Energies [Eh]
    ---------------------

    Doubly Occupied:

       1A    -20.310381     2A    -20.309923     3A    -11.158306
       4A    -11.127697     5A    -11.118912     6A    -11.118859
       7A    -11.117391     8A    -11.111461     9A    -11.104249
      10A    -11.092743    11A    -11.075261    12A     -1.180292
      13A     -1.084409    14A     -1.026736    15A     -0.938494
      16A     -0.896827    17A     -0.810139    18A     -0.798222
      19A     -0.693997    20A     -0.666196    21A     -0.564572
      22A     -0.541524    23A     -0.523817    24A     -0.503872
      25A     -0.462402    26A     -0.455046    27A     -0.437821
      28A     -0.428339    29A     -0.423167    30A     -0.413165
      31A     -0.383594    32A     -0.378191    33A     -0.361615
      34A     -0.341599    35A     -0.322485    36A     -0.238970
      37A     -0.226551    38A     -0.211263    39A     -0.205499
      40A     -0.175622

  @DF-RHF Final Energy:  -495.95620738351732

   => Energetics <=

    Nuclear Repulsion Energy =            569.9699066533289624
    One-Electron Energy =               -1819.1730095107880061
    Two-Electron Energy =                 753.2468954739416631
    Total Energy =                       -495.9562073835173805
  Basis Set: (AUG-CC-PVTZ AUX)
    Blend: AUG-CC-PVTZ-RI
    Molecular point group: c1

    Geometry (in Angstrom), charge = -1, multiplicity = 1:

       Center              X                  Y                   Z               Mass
    ------------   -----------------  -----------------  -----------------  -----------------
         O           -2.441987825288    -1.430912190336    -0.515164629762    15.994914619570
         O           -2.548020825288     0.852709809664    -0.688004629762    15.994914619570
         C            0.212595174712    -0.157368190336     0.556685370238    12.000000000000
         C            0.888478174712     1.013890809664     0.147495370238    12.000000000000
         C           -1.202273825288    -0.119469190336     1.052311370238    12.000000000000
         C            0.861298174712    -1.393074190336     0.412483370238    12.000000000000
         C            2.201040174712     0.913430809664    -0.329445629762    12.000000000000
         C            0.196915174712     2.351433809664     0.222284370238    12.000000000000
         C            2.165466174712    -1.481445190336    -0.075209629762    12.000000000000
         C            2.938341674712    -0.496831790336    -0.461855329762    12.000000000000
         C           -2.182854825288    -0.246831190336    -0.180315629762    12.000000000000
         H           -1.377040825288    -0.966771190336     1.724119370238     1.007825032230
         H           -1.405731825288     0.810323809664     1.593136370238     1.007825032230
         H            0.311288174712    -2.294079190336     0.677405370238     1.007825032230
         H            2.719469174712     1.821790809664    -0.638972629762     1.007825032230
         H           -0.813512825288     2.257945809664    -0.189364629762     1.007825032230
         H            0.109111174712     2.699016809664     1.260047370238     1.007825032230
         H            0.760160174712     3.106362809664    -0.337532629762     1.007825032230
         H            2.643785174712    -2.454741190336    -0.177659629762     1.007825032230
         H            3.865846174712    -0.372432190336    -0.823950629762     1.007825032230

  Basis Set: AUG-CC-PVTZ
    Blend: AUG-CC-PVTZ
  Basis Set: (AUG-CC-PVTZ AUX)
    Blend: AUG-CC-PVTZ-JKFIT
	 Reference Energy          =    -495.9562073835173237 [Eh]
	 Singles Energy            =      -0.0000000000000000 [Eh]
	 Same-Spin Energy          =      -0.5325695160223650 [Eh]
	 Opposite-Spin Energy      =      -1.6380162948345722 [Eh]
	 Correlation Energy        =      -2.1705858108569371 [Eh]
	 Total Energy              =    -498.1267931943742724 [Eh]

	 ================> DF-SCS-MP2 Energies <==================
	-----------------------------------------------------------
	 SCS Same-Spin Scale       =       0.3333333333333333 [-]
	 SCS Opposite-Spin Scale   =       1.2000000000000000 [-]
	 SCS Same-Spin Energy      =      -0.1775231720074550 [Eh]
	 SCS Opposite-Spin Energy  =      -1.9656195538014867 [Eh]
	 SCS Correlation Energy    =      -2.1431427258089415 [Eh]
	 SCS Total Energy          =    -498.0993501093262807 [Eh]
	-----------------------------------------------------------

  Dipole Moment: [D]
     X:     8.4552      Y:     1.3666      Z:     2.9570     Total:     9.0610

*** Psi4 exiting successfully. Buy a developer a beer!
