                               Psi4 1.4a3.dev225

  ==> Input File <==

--------------------------------------------------------------------------
#psi4
#
memory 32 gb

molecule  {
-1 1
  O       -2.4516445    -1.4872948    -0.5032843
  O       -2.5836320     0.8103810    -0.7086120
  C        0.1769840    -0.1996970     0.5360780
  C        0.8528670     0.9715620     0.1268880
  C       -1.2378850    -0.1617980     1.0317040
  C        0.8256870    -1.4354030     0.3918760
  C        2.1654290     0.8711020    -0.3500530
  C        0.1613040     2.3091050     0.2016770
  C        2.1298550    -1.5237740    -0.0958170
  C        2.8103870    -0.3625320    -0.4658790
  C       -2.2184660    -0.2891600    -0.2009230
  H       -1.4126520    -1.0091000     1.7035120
  H       -1.4413430     0.7679950     1.5725290
  H        0.2756770    -2.3364080     0.6567980
  H        2.6838580     1.7794620    -0.6595800
  H       -0.8491240     2.2156170    -0.2099720
  H        0.0735000     2.6566880     1.2394400
  H        0.7245490     3.0640340    -0.3581400
  H        2.6081740    -2.4970700    -0.1982670
  H        3.8302350    -0.4147610    -0.8445580
units angstrom
no_reorient  #important for SAPT in psi4, default
symmetry c1  #important for SAPT in psi4, default
}

set PROPERTIES_ORIGIN ["COM"]
properties('MP2/aug-cc-pvtz', properties = ['dipole'])
--------------------------------------------------------------------------

    Molecular point group: c1
  Charge       = -1
  Multiplicity = 1
  Basis Set: AUG-CC-PVTZ
    Blend: AUG-CC-PVTZ
  Basis Set: (AUG-CC-PVTZ AUX)
    Blend: AUG-CC-PVTZ-JKFIT

    Orbital Energies [Eh]
    ---------------------

    Doubly Occupied:

       1A    -20.312010     2A    -20.310411     3A    -11.158250
       4A    -11.117695     5A    -11.116421     6A    -11.115387
       7A    -11.114048     8A    -11.111770     9A    -11.106001
      10A    -11.091921    11A    -11.071224    12A     -1.179931
      13A     -1.087202    14A     -1.031421    15A     -0.926086
      16A     -0.906805    17A     -0.820160    18A     -0.786757
      19A     -0.689009    20A     -0.663520    21A     -0.561752
      22A     -0.533175    23A     -0.522430    24A     -0.498975
      25A     -0.461352    26A     -0.452574    27A     -0.439480
      28A     -0.428571    29A     -0.426157    30A     -0.412002
      31A     -0.384795    32A     -0.374648    33A     -0.364085
      34A     -0.351111    35A     -0.332745    36A     -0.235113
      37A     -0.227647    38A     -0.213312    39A     -0.207042
      40A     -0.174614

  @DF-RHF Final Energy:  -495.99636553208654

   => Energetics <=

    Nuclear Repulsion Energy =            572.3399070223465515
    One-Electron Energy =               -1824.0373259204388887
    Two-Electron Energy =                 755.7010533660057945
    Total Energy =                       -495.9963655320865428
  Basis Set: (AUG-CC-PVTZ AUX)
    Blend: AUG-CC-PVTZ-RI
    Molecular point group: c1

    Geometry (in Angstrom), charge = -1, multiplicity = 1:

       Center              X                  Y                   Z               Mass
    ------------   -----------------  -----------------  -----------------  -----------------
         O           -2.411384319484    -1.457677318885    -0.487498083396    15.994914619570
         O           -2.543371819484     0.839998481115    -0.692825783396    15.994914619570
         C            0.217244180516    -0.170079518885     0.551864216604    12.000000000000
         C            0.893127180516     1.001179481115     0.142674216604    12.000000000000
         C           -1.197624819484    -0.132180518885     1.047490216604    12.000000000000
         C            0.865947180516    -1.405785518885     0.407662216604    12.000000000000
         C            2.205689180516     0.900719481115    -0.334266783396    12.000000000000
         C            0.201564180516     2.338722481115     0.217463216604    12.000000000000
         C            2.170115180516    -1.494156518885    -0.080030783396    12.000000000000
         C            2.850647180516    -0.332914518885    -0.450092783396    12.000000000000
         C           -2.178205819484    -0.259542518885    -0.185136783396    12.000000000000
         H           -1.372391819484    -0.979482518885     1.719298216604     1.007825032230
         H           -1.401082819484     0.797612481115     1.588315216604     1.007825032230
         H            0.315937180516    -2.306790518885     0.672584216604     1.007825032230
         H            2.724118180516     1.809079481115    -0.643793783396     1.007825032230
         H           -0.808863819484     2.245234481115    -0.194185783396     1.007825032230
         H            0.113760180516     2.686305481115     1.255226216604     1.007825032230
         H            0.764809180516     3.093651481115    -0.342353783396     1.007825032230
         H            2.648434180516    -2.467452518885    -0.182480783396     1.007825032230
         H            3.870495180516    -0.385143518885    -0.828771783396     1.007825032230

  Basis Set: AUG-CC-PVTZ
    Blend: AUG-CC-PVTZ
  Basis Set: (AUG-CC-PVTZ AUX)
    Blend: AUG-CC-PVTZ-JKFIT
	 Reference Energy          =    -495.9963655320865428 [Eh]
	 Singles Energy            =      -0.0000000000000000 [Eh]
	 Same-Spin Energy          =      -0.5331656175316662 [Eh]
	 Opposite-Spin Energy      =      -1.6357274908202553 [Eh]
	 Correlation Energy        =      -2.1688931083519214 [Eh]
	 Total Energy              =    -498.1652586404384806 [Eh]

	 ================> DF-SCS-MP2 Energies <==================
	-----------------------------------------------------------
	 SCS Same-Spin Scale       =       0.3333333333333333 [-]
	 SCS Opposite-Spin Scale   =       1.2000000000000000 [-]
	 SCS Same-Spin Energy      =      -0.1777218725105554 [Eh]
	 SCS Opposite-Spin Energy  =      -1.9628729889843062 [Eh]
	 SCS Correlation Energy    =      -2.1405948614948618 [Eh]
	 SCS Total Energy          =    -498.1369603935814325 [Eh]
	-----------------------------------------------------------

  Dipole Moment: [D]
     X:     8.3675      Y:     1.4051      Z:     2.8824     Total:     8.9609

*** Psi4 exiting successfully. Buy a developer a beer!
