                               Psi4 1.4a3.dev225

  ==> Input File <==

--------------------------------------------------------------------------
#psi4
#
memory 32 gb

molecule  {
-1 1
  O       -2.4775990    -1.4732410    -0.5357720
  O       -2.5836320     0.8103810    -0.7086120
  C        0.1769840    -0.1996970     0.5360780
  C        0.8528670     0.9715620     0.1268880
  C       -1.2378850    -0.1617980     1.0317040
  C        0.8256870    -1.4354030     0.3918760
  C        2.1654290     0.8711020    -0.3500530
  C        0.1613040     2.3091050     0.2016770
  C        2.1298550    -1.5237740    -0.0958170
  C        2.8565587    -0.4508463    -0.4741708
  C       -2.2184660    -0.2891600    -0.2009230
  H       -1.4126520    -1.0091000     1.7035120
  H       -1.4413430     0.7679950     1.5725290
  H        0.2756770    -2.3364080     0.6567980
  H        2.6838580     1.7794620    -0.6595800
  H       -0.8491240     2.2156170    -0.2099720
  H        0.0735000     2.6566880     1.2394400
  H        0.7245490     3.0640340    -0.3581400
  H        2.6081740    -2.4970700    -0.1982670
  H        3.8302350    -0.4147610    -0.8445580
units angstrom
no_reorient  #important for SAPT in psi4, default
symmetry c1  #important for SAPT in psi4, default
}

set PROPERTIES_ORIGIN ["COM"]
properties('MP2/aug-cc-pvtz', properties = ['dipole'])
--------------------------------------------------------------------------

    Molecular point group: c1
  Charge       = -1
  Multiplicity = 1
  Basis Set: AUG-CC-PVTZ
    Blend: AUG-CC-PVTZ
  Basis Set: (AUG-CC-PVTZ AUX)
    Blend: AUG-CC-PVTZ-JKFIT

    Orbital Energies [Eh]
    ---------------------

    Doubly Occupied:

       1A    -20.309780     2A    -20.309451     3A    -11.157588
       4A    -11.122878     5A    -11.118359     6A    -11.118023
       7A    -11.115056     8A    -11.113317     9A    -11.105542
      10A    -11.092556    11A    -11.074460    12A     -1.179757
      13A     -1.083890    14A     -1.028679    15A     -0.932297
      16A     -0.901182    17A     -0.814835    18A     -0.793732
      19A     -0.692092    20A     -0.664177    21A     -0.562941
      22A     -0.536189    23A     -0.522152    24A     -0.502944
      25A     -0.461674    26A     -0.450338    27A     -0.441826
      28A     -0.428407    29A     -0.425709    30A     -0.413529
      31A     -0.381514    32A     -0.380284    33A     -0.362364
      34A     -0.346400    35A     -0.332093    36A     -0.235569
      37A     -0.225983    38A     -0.211073    39A     -0.205562
      40A     -0.176998

  @DF-RHF Final Energy:  -495.98573827451753

   => Energetics <=

    Nuclear Repulsion Energy =            570.9562564286928819
    One-Electron Energy =               -1821.2215856674517909
    Two-Electron Energy =                 754.2795909642414927
    Total Energy =                       -495.9857382745175300
  Basis Set: (AUG-CC-PVTZ AUX)
    Blend: AUG-CC-PVTZ-RI
    Molecular point group: c1

    Geometry (in Angstrom), charge = -1, multiplicity = 1:

       Center              X                  Y                   Z               Mass
    ------------   -----------------  -----------------  -----------------  -----------------
         O           -2.438270794201    -1.438021876304    -0.515832163843    15.994914619570
         O           -2.544303794201     0.845600123696    -0.688672163843    15.994914619570
         C            0.216312205799    -0.164477876304     0.556017836157    12.000000000000
         C            0.892195205799     1.006781123696     0.146827836157    12.000000000000
         C           -1.198556794201    -0.126578876304     1.051643836157    12.000000000000
         C            0.865015205799    -1.400183876304     0.411815836157    12.000000000000
         C            2.204757205799     0.906321123696    -0.330113163843    12.000000000000
         C            0.200632205799     2.344324123696     0.221616836157    12.000000000000
         C            2.169183205799    -1.488554876304    -0.075877163843    12.000000000000
         C            2.895886905799    -0.415627176304    -0.454230963843    12.000000000000
         C           -2.179137794201    -0.253940876304    -0.180983163843    12.000000000000
         H           -1.373323794201    -0.973880876304     1.723451836157     1.007825032230
         H           -1.402014794201     0.803214123696     1.592468836157     1.007825032230
         H            0.315005205799    -2.301188876304     0.676737836157     1.007825032230
         H            2.723186205799     1.814681123696    -0.639640163843     1.007825032230
         H           -0.809795794201     2.250836123696    -0.190032163843     1.007825032230
         H            0.112828205799     2.691907123696     1.259379836157     1.007825032230
         H            0.763877205799     3.099253123696    -0.338200163843     1.007825032230
         H            2.647502205799    -2.461850876304    -0.178327163843     1.007825032230
         H            3.869563205799    -0.379541876304    -0.824618163843     1.007825032230

  Basis Set: AUG-CC-PVTZ
    Blend: AUG-CC-PVTZ
  Basis Set: (AUG-CC-PVTZ AUX)
    Blend: AUG-CC-PVTZ-JKFIT
	 Reference Energy          =    -495.9857382745175300 [Eh]
	 Singles Energy            =      -0.0000000000000000 [Eh]
	 Same-Spin Energy          =      -0.5327941574250481 [Eh]
	 Opposite-Spin Energy      =      -1.6362719404333230 [Eh]
	 Correlation Energy        =      -2.1690660978583711 [Eh]
	 Total Energy              =    -498.1548043723759065 [Eh]

	 ================> DF-SCS-MP2 Energies <==================
	-----------------------------------------------------------
	 SCS Same-Spin Scale       =       0.3333333333333333 [-]
	 SCS Opposite-Spin Scale   =       1.2000000000000000 [-]
	 SCS Same-Spin Energy      =      -0.1775980524750160 [Eh]
	 SCS Opposite-Spin Energy  =      -1.9635263285199875 [Eh]
	 SCS Correlation Energy    =      -2.1411243809950036 [Eh]
	 SCS Total Energy          =    -498.1268626555125252 [Eh]
	-----------------------------------------------------------

  Dipole Moment: [D]
     X:     8.4713      Y:     1.3811      Z:     2.9627     Total:     9.0801

*** Psi4 exiting successfully. Buy a developer a beer!
