                               Psi4 1.4a3.dev225

  ==> Input File <==

--------------------------------------------------------------------------
#psi4
#
memory 32 gb

molecule  {
-1 1
  O       -2.4775990    -1.4732410    -0.5357720
  O       -2.5836320     0.8103810    -0.7086120
  C        0.1769840    -0.1996970     0.5360780
  C        0.8123455     0.9976021     0.1374648
  C       -1.2378850    -0.1617980     1.0317040
  C        0.8256870    -1.4354030     0.3918760
  C        2.1654290     0.8711020    -0.3500530
  C        0.1613040     2.3091050     0.2016770
  C        2.1298550    -1.5237740    -0.0958170
  C        2.8103870    -0.3625320    -0.4658790
  C       -2.2184660    -0.2891600    -0.2009230
  H       -1.4126520    -1.0091000     1.7035120
  H       -1.4413430     0.7679950     1.5725290
  H        0.2756770    -2.3364080     0.6567980
  H        2.6838580     1.7794620    -0.6595800
  H       -0.8491240     2.2156170    -0.2099720
  H        0.0735000     2.6566880     1.2394400
  H        0.7245490     3.0640340    -0.3581400
  H        2.6081740    -2.4970700    -0.1982670
  H        3.8302350    -0.4147610    -0.8445580
units angstrom
no_reorient  #important for SAPT in psi4, default
symmetry c1  #important for SAPT in psi4, default
}

set PROPERTIES_ORIGIN ["COM"]
properties('MP2/aug-cc-pvtz', properties = ['dipole'])
--------------------------------------------------------------------------

    Molecular point group: c1
  Charge       = -1
  Multiplicity = 1
  Basis Set: AUG-CC-PVTZ
    Blend: AUG-CC-PVTZ
  Basis Set: (AUG-CC-PVTZ AUX)
    Blend: AUG-CC-PVTZ-JKFIT

    Orbital Energies [Eh]
    ---------------------

    Doubly Occupied:

       1A    -20.309046     2A    -20.308684     3A    -11.156488
       4A    -11.120306     5A    -11.119262     6A    -11.118144
       7A    -11.115992     8A    -11.112248     9A    -11.107819
      10A    -11.091419    11A    -11.072362    12A     -1.179006
      13A     -1.083178    14A     -1.029393    15A     -0.931535
      16A     -0.906124    17A     -0.824015    18A     -0.785850
      19A     -0.690179    20A     -0.660610    21A     -0.561757
      22A     -0.533141    23A     -0.523036    24A     -0.501387
      25A     -0.463682    26A     -0.452266    27A     -0.442427
      28A     -0.428386    29A     -0.427674    30A     -0.413760
      31A     -0.386617    32A     -0.371279    33A     -0.361797
      34A     -0.357450    35A     -0.329181    36A     -0.235415
      37A     -0.225299    38A     -0.210462    39A     -0.202897
      40A     -0.175858

  @DF-RHF Final Energy:  -495.99308576915649

   => Energetics <=

    Nuclear Repulsion Energy =            571.9062843306315926
    One-Electron Energy =               -1823.1478726175780594
    Two-Electron Energy =                 755.2485025177898024
    Total Energy =                       -495.9930857691565507
  Basis Set: (AUG-CC-PVTZ AUX)
    Blend: AUG-CC-PVTZ-RI
    Molecular point group: c1

    Geometry (in Angstrom), charge = -1, multiplicity = 1:

       Center              X                  Y                   Z               Mass
    ------------   -----------------  -----------------  -----------------  -----------------
         O           -2.431291613847    -1.447227903788    -0.517351168361    15.994914619570
         O           -2.537324613847     0.836394096212    -0.690191168361    15.994914619570
         C            0.223291386153    -0.173683903788     0.554498831639    12.000000000000
         C            0.858652886153     1.023615196212     0.155885631639    12.000000000000
         C           -1.191577613847    -0.135784903788     1.050124831639    12.000000000000
         C            0.871994386153    -1.409389903788     0.410296831639    12.000000000000
         C            2.211736386153     0.897115096212    -0.331632168361    12.000000000000
         C            0.207611386153     2.335118096212     0.220097831639    12.000000000000
         C            2.176162386153    -1.497760903788    -0.077396168361    12.000000000000
         C            2.856694386153    -0.336518903788    -0.447458168361    12.000000000000
         C           -2.172158613847    -0.263146903788    -0.182502168361    12.000000000000
         H           -1.366344613847    -0.983086903788     1.721932831639     1.007825032230
         H           -1.395035613847     0.794008096212     1.590949831639     1.007825032230
         H            0.321984386153    -2.310394903788     0.675218831639     1.007825032230
         H            2.730165386153     1.805475096212    -0.641159168361     1.007825032230
         H           -0.802816613847     2.241630096212    -0.191551168361     1.007825032230
         H            0.119807386153     2.682701096212     1.257860831639     1.007825032230
         H            0.770856386153     3.090047096212    -0.339719168361     1.007825032230
         H            2.654481386153    -2.471056903788    -0.179846168361     1.007825032230
         H            3.876542386153    -0.388747903788    -0.826137168361     1.007825032230

  Basis Set: AUG-CC-PVTZ
    Blend: AUG-CC-PVTZ
  Basis Set: (AUG-CC-PVTZ AUX)
    Blend: AUG-CC-PVTZ-JKFIT
	 Reference Energy          =    -495.9930857691564938 [Eh]
	 Singles Energy            =      -0.0000000000000000 [Eh]
	 Same-Spin Energy          =      -0.5335133473619260 [Eh]
	 Opposite-Spin Energy      =      -1.6362496197919316 [Eh]
	 Correlation Energy        =      -2.1697629671538579 [Eh]
	 Total Energy              =    -498.1628487363103659 [Eh]

	 ================> DF-SCS-MP2 Energies <==================
	-----------------------------------------------------------
	 SCS Same-Spin Scale       =       0.3333333333333333 [-]
	 SCS Opposite-Spin Scale   =       1.2000000000000000 [-]
	 SCS Same-Spin Energy      =      -0.1778377824539753 [Eh]
	 SCS Opposite-Spin Energy  =      -1.9634995437503178 [Eh]
	 SCS Correlation Energy    =      -2.1413373262042930 [Eh]
	 SCS Total Energy          =    -498.1344230953607735 [Eh]
	-----------------------------------------------------------

  Dipole Moment: [D]
     X:     8.4599      Y:     1.4587      Z:     2.9744     Total:     9.0854

*** Psi4 exiting successfully. Buy a developer a beer!
