                               Psi4 1.4a3.dev225

  ==> Input File <==

--------------------------------------------------------------------------
#psi4
#
memory 32 gb

molecule  {
-1 1
  O       -2.4775990    -1.4732410    -0.5357720
  O       -2.5836320     0.8103810    -0.7086120
  C        0.1769840    -0.1996970     0.5360780
  C        0.8528670     0.9715620     0.1268880
  C       -1.2378850    -0.1617980     1.0317040
  C        0.8256870    -1.4354030     0.3918760
  C        2.1654290     0.8711020    -0.3500530
  C        0.1704783     2.2913611     0.2006848
  C        2.1298550    -1.5237740    -0.0958170
  C        2.8103870    -0.3625320    -0.4658790
  C       -2.2184660    -0.2891600    -0.2009230
  H       -1.4126520    -1.0091000     1.7035120
  H       -1.4413430     0.7679950     1.5725290
  H        0.2756770    -2.3364080     0.6567980
  H        2.6838580     1.7794620    -0.6595800
  H       -0.8491240     2.2156170    -0.2099720
  H        0.0735000     2.6566880     1.2394400
  H        0.7245490     3.0640340    -0.3581400
  H        2.6081740    -2.4970700    -0.1982670
  H        3.8302350    -0.4147610    -0.8445580
units angstrom
no_reorient  #important for SAPT in psi4, default
symmetry c1  #important for SAPT in psi4, default
}

set PROPERTIES_ORIGIN ["COM"]
properties('MP2/aug-cc-pvtz', properties = ['dipole'])
--------------------------------------------------------------------------

    Molecular point group: c1
  Charge       = -1
  Multiplicity = 1
  Basis Set: AUG-CC-PVTZ
    Blend: AUG-CC-PVTZ
  Basis Set: (AUG-CC-PVTZ AUX)
    Blend: AUG-CC-PVTZ-JKFIT

    Orbital Energies [Eh]
    ---------------------

    Doubly Occupied:

       1A    -20.309195     2A    -20.309042     3A    -11.156966
       4A    -11.118467     5A    -11.116391     6A    -11.116120
       7A    -11.114603     8A    -11.112738     9A    -11.107021
      10A    -11.092759    11A    -11.073745    12A     -1.179275
      13A     -1.083417    14A     -1.032967    15A     -0.928384
      16A     -0.908516    17A     -0.821287    18A     -0.787297
      19A     -0.690049    20A     -0.664148    21A     -0.562671
      22A     -0.533339    23A     -0.523588    24A     -0.500716
      25A     -0.460750    26A     -0.453552    27A     -0.441575
      28A     -0.428527    29A     -0.424845    30A     -0.409735
      31A     -0.385581    32A     -0.373745    33A     -0.363973
      34A     -0.353279    35A     -0.332898    36A     -0.235216
      37A     -0.225532    38A     -0.211161    39A     -0.207024
      40A     -0.176064

  @DF-RHF Final Energy:  -495.99656584892819

   => Energetics <=

    Nuclear Repulsion Energy =            572.3743763532337425
    One-Electron Energy =               -1824.0895682673306055
    Two-Electron Energy =                 755.7186260651687917
    Total Energy =                       -495.9965658489281850
  Basis Set: (AUG-CC-PVTZ AUX)
    Blend: AUG-CC-PVTZ-RI
    Molecular point group: c1

    Geometry (in Angstrom), charge = -1, multiplicity = 1:

       Center              X                  Y                   Z               Mass
    ------------   -----------------  -----------------  -----------------  -----------------
         O           -2.435292342290    -1.443703101005    -0.516419813450    15.994914619570
         O           -2.541325342290     0.839918898995    -0.689259813450    15.994914619570
         C            0.219290657710    -0.170159101005     0.555430186550    12.000000000000
         C            0.895173657710     1.001099898995     0.146240186550    12.000000000000
         C           -1.195578342290    -0.132260101005     1.051056186550    12.000000000000
         C            0.867993657710    -1.405865101005     0.411228186550    12.000000000000
         C            2.207735657710     0.900639898995    -0.330700813450    12.000000000000
         C            0.212784957710     2.320898998995     0.220036986550    12.000000000000
         C            2.172161657710    -1.494236101005    -0.076464813450    12.000000000000
         C            2.852693657710    -0.332994101005    -0.446526813450    12.000000000000
         C           -2.176159342290    -0.259622101005    -0.181570813450    12.000000000000
         H           -1.370345342290    -0.979562101005     1.722864186550     1.007825032230
         H           -1.399036342290     0.797532898995     1.591881186550     1.007825032230
         H            0.317983657710    -2.306870101005     0.676150186550     1.007825032230
         H            2.726164657710     1.808999898995    -0.640227813450     1.007825032230
         H           -0.806817342290     2.245154898995    -0.190619813450     1.007825032230
         H            0.115806657710     2.686225898995     1.258792186550     1.007825032230
         H            0.766855657710     3.093571898995    -0.338787813450     1.007825032230
         H            2.650480657710    -2.467532101005    -0.178914813450     1.007825032230
         H            3.872541657710    -0.385223101005    -0.825205813450     1.007825032230

  Basis Set: AUG-CC-PVTZ
    Blend: AUG-CC-PVTZ
  Basis Set: (AUG-CC-PVTZ AUX)
    Blend: AUG-CC-PVTZ-JKFIT
	 Reference Energy          =    -495.9965658489281850 [Eh]
	 Singles Energy            =      -0.0000000000000000 [Eh]
	 Same-Spin Energy          =      -0.5332175092929029 [Eh]
	 Opposite-Spin Energy      =      -1.6356918578815987 [Eh]
	 Correlation Energy        =      -2.1689093671745017 [Eh]
	 Total Energy              =    -498.1654752161026636 [Eh]

	 ================> DF-SCS-MP2 Energies <==================
	-----------------------------------------------------------
	 SCS Same-Spin Scale       =       0.3333333333333333 [-]
	 SCS Opposite-Spin Scale   =       1.2000000000000000 [-]
	 SCS Same-Spin Energy      =      -0.1777391697643010 [Eh]
	 SCS Opposite-Spin Energy  =      -1.9628302294579183 [Eh]
	 SCS Correlation Energy    =      -2.1405693992222194 [Eh]
	 SCS Total Energy          =    -498.1371352481504005 [Eh]
	-----------------------------------------------------------

  Dipole Moment: [D]
     X:     8.4778      Y:     1.3883      Z:     2.9670     Total:     9.0886

*** Psi4 exiting successfully. Buy a developer a beer!
