                               Psi4 1.4a3.dev225

  ==> Input File <==

--------------------------------------------------------------------------
#psi4
#
memory 32 gb

molecule  {
-1 1
  O       -2.4775990    -1.4732410    -0.5357720
  O       -2.5836320     0.8103810    -0.7086120
  C        0.1769840    -0.1996970     0.5360780
  C        0.8289476     0.9301113     0.1413692
  C       -1.2378850    -0.1617980     1.0317040
  C        0.8256870    -1.4354030     0.3918760
  C        2.1654290     0.8711020    -0.3500530
  C        0.1613040     2.3091050     0.2016770
  C        2.1298550    -1.5237740    -0.0958170
  C        2.8103870    -0.3625320    -0.4658790
  C       -2.2184660    -0.2891600    -0.2009230
  H       -1.4126520    -1.0091000     1.7035120
  H       -1.4413430     0.7679950     1.5725290
  H        0.2756770    -2.3364080     0.6567980
  H        2.6838580     1.7794620    -0.6595800
  H       -0.8491240     2.2156170    -0.2099720
  H        0.0735000     2.6566880     1.2394400
  H        0.7245490     3.0640340    -0.3581400
  H        2.6081740    -2.4970700    -0.1982670
  H        3.8302350    -0.4147610    -0.8445580
units angstrom
no_reorient  #important for SAPT in psi4, default
symmetry c1  #important for SAPT in psi4, default
}

set PROPERTIES_ORIGIN ["COM"]
properties('MP2/aug-cc-pvtz', properties = ['dipole'])
--------------------------------------------------------------------------

    Molecular point group: c1
  Charge       = -1
  Multiplicity = 1
  Basis Set: AUG-CC-PVTZ
    Blend: AUG-CC-PVTZ
  Basis Set: (AUG-CC-PVTZ AUX)
    Blend: AUG-CC-PVTZ-JKFIT

    Orbital Energies [Eh]
    ---------------------

    Doubly Occupied:

       1A    -20.308715     2A    -20.308681     3A    -11.156366
       4A    -11.119291     5A    -11.117641     6A    -11.115658
       7A    -11.114884     8A    -11.109050     9A    -11.106205
      10A    -11.092333    11A    -11.073038    12A     -1.178875
      13A     -1.083003    14A     -1.034953    15A     -0.928859
      16A     -0.903731    17A     -0.818463    18A     -0.788320
      19A     -0.697763    20A     -0.660840    21A     -0.563016
      22A     -0.532752    23A     -0.523445    24A     -0.499887
      25A     -0.461010    26A     -0.452212    27A     -0.440434
      28A     -0.427068    29A     -0.424605    30A     -0.411354
      31A     -0.380812    32A     -0.376731    33A     -0.366126
      34A     -0.353250    35A     -0.329251    36A     -0.237084
      37A     -0.225414    38A     -0.210607    39A     -0.204752
      40A     -0.180097

  @DF-RHF Final Energy:  -495.99486714789975

   => Energetics <=

    Nuclear Repulsion Energy =            572.5306134963290106
    One-Electron Energy =               -1824.4178117786377697
    Two-Electron Energy =                 755.8923311344091189
    Total Energy =                       -495.9948671478997539
  Basis Set: (AUG-CC-PVTZ AUX)
    Blend: AUG-CC-PVTZ-RI
    Molecular point group: c1

    Geometry (in Angstrom), charge = -1, multiplicity = 1:

       Center              X                  Y                   Z               Mass
    ------------   -----------------  -----------------  -----------------  -----------------
         O           -2.432628155238    -1.441794600306    -0.517665489574    15.994914619570
         O           -2.538661155238     0.841827399694    -0.690505489574    15.994914619570
         C            0.221954844762    -0.168250600306     0.554184510426    12.000000000000
         C            0.873918444762     0.961557699694     0.159475710426    12.000000000000
         C           -1.192914155238    -0.130351600306     1.049810510426    12.000000000000
         C            0.870657844762    -1.403956600306     0.409982510426    12.000000000000
         C            2.210399844762     0.902548399694    -0.331946489574    12.000000000000
         C            0.206274844762     2.340551399694     0.219783510426    12.000000000000
         C            2.174825844762    -1.492327600306    -0.077710489574    12.000000000000
         C            2.855357844762    -0.331085600306    -0.447772489574    12.000000000000
         C           -2.173495155238    -0.257713600306    -0.182816489574    12.000000000000
         H           -1.367681155238    -0.977653600306     1.721618510426     1.007825032230
         H           -1.396372155238     0.799441399694     1.590635510426     1.007825032230
         H            0.320647844762    -2.304961600306     0.674904510426     1.007825032230
         H            2.728828844762     1.810908399694    -0.641473489574     1.007825032230
         H           -0.804153155238     2.247063399694    -0.191865489574     1.007825032230
         H            0.118470844762     2.688134399694     1.257546510426     1.007825032230
         H            0.769519844762     3.095480399694    -0.340033489574     1.007825032230
         H            2.653144844762    -2.465623600306    -0.180160489574     1.007825032230
         H            3.875205844762    -0.383314600306    -0.826451489574     1.007825032230

  Basis Set: AUG-CC-PVTZ
    Blend: AUG-CC-PVTZ
  Basis Set: (AUG-CC-PVTZ AUX)
    Blend: AUG-CC-PVTZ-JKFIT
	 Reference Energy          =    -495.9948671478997539 [Eh]
	 Singles Energy            =      -0.0000000000000000 [Eh]
	 Same-Spin Energy          =      -0.5327282065266750 [Eh]
	 Opposite-Spin Energy      =      -1.6353601187336220 [Eh]
	 Correlation Energy        =      -2.1680883252602969 [Eh]
	 Total Energy              =    -498.1629554731600251 [Eh]

	 ================> DF-SCS-MP2 Energies <==================
	-----------------------------------------------------------
	 SCS Same-Spin Scale       =       0.3333333333333333 [-]
	 SCS Opposite-Spin Scale   =       1.2000000000000000 [-]
	 SCS Same-Spin Energy      =      -0.1775760688422250 [Eh]
	 SCS Opposite-Spin Energy  =      -1.9624321424803464 [Eh]
	 SCS Correlation Energy    =      -2.1400082113225714 [Eh]
	 SCS Total Energy          =    -498.1348753592223488 [Eh]
	-----------------------------------------------------------

  Dipole Moment: [D]
     X:     8.5492      Y:     1.3506      Z:     2.9591     Total:     9.1471

*** Psi4 exiting successfully. Buy a developer a beer!
