                               Psi4 1.4a3.dev225

  ==> Input File <==

--------------------------------------------------------------------------
#psi4
#
memory 32 gb

molecule  {
-1 1
  O       -2.4775990    -1.4732410    -0.5357720
  O       -2.5836320     0.8103810    -0.7086120
  C        0.1769840    -0.1996970     0.5360780
  C        0.7202793     0.9159546     0.0618465
  C       -1.2378850    -0.1617980     1.0317040
  C        0.8256870    -1.4354030     0.3918760
  C        2.1654290     0.8711020    -0.3500530
  C        0.1613040     2.3091050     0.2016770
  C        2.1298550    -1.5237740    -0.0958170
  C        2.8103870    -0.3625320    -0.4658790
  C       -2.2184660    -0.2891600    -0.2009230
  H       -1.4126520    -1.0091000     1.7035120
  H       -1.4413430     0.7679950     1.5725290
  H        0.2756770    -2.3364080     0.6567980
  H        2.6838580     1.7794620    -0.6595800
  H       -0.8491240     2.2156170    -0.2099720
  H        0.0735000     2.6566880     1.2394400
  H        0.7245490     3.0640340    -0.3581400
  H        2.6081740    -2.4970700    -0.1982670
  H        3.8302350    -0.4147610    -0.8445580
units angstrom
no_reorient  #important for SAPT in psi4, default
symmetry c1  #important for SAPT in psi4, default
}

set PROPERTIES_ORIGIN ["COM"]
properties('MP2/aug-cc-pvtz', properties = ['dipole'])
--------------------------------------------------------------------------

    Molecular point group: c1
  Charge       = -1
  Multiplicity = 1
  Basis Set: AUG-CC-PVTZ
    Blend: AUG-CC-PVTZ
  Basis Set: (AUG-CC-PVTZ AUX)
    Blend: AUG-CC-PVTZ-JKFIT

    Orbital Energies [Eh]
    ---------------------

    Doubly Occupied:

       1A    -20.308317     2A    -20.308230     3A    -11.155709
       4A    -11.124295     5A    -11.119431     6A    -11.116928
       7A    -11.115890     8A    -11.111172     9A    -11.100984
      10A    -11.091645    11A    -11.070989    12A     -1.178493
      13A     -1.082617    14A     -1.033673    15A     -0.934482
      16A     -0.898599    17A     -0.819698    18A     -0.786627
      19A     -0.703185    20A     -0.653060    21A     -0.562650
      22A     -0.533079    23A     -0.521678    24A     -0.501245
      25A     -0.463498    26A     -0.451369    27A     -0.442552
      28A     -0.426467    29A     -0.423865    30A     -0.411681
      31A     -0.384659    32A     -0.371258    33A     -0.366451
      34A     -0.353959    35A     -0.320148    36A     -0.239961
      37A     -0.225197    38A     -0.209965    39A     -0.197480
      40A     -0.182707

  @DF-RHF Final Energy:  -495.97761892438814

   => Energetics <=

    Nuclear Repulsion Energy =            572.9904397310368722
    One-Electron Energy =               -1825.3283326581440633
    Two-Electron Energy =                 756.3602740027189384
    Total Energy =                       -495.9776189243881390
  Basis Set: (AUG-CC-PVTZ AUX)
    Blend: AUG-CC-PVTZ-RI
    Molecular point group: c1

    Geometry (in Angstrom), charge = -1, multiplicity = 1:

       Center              X                  Y                   Z               Mass
    ------------   -----------------  -----------------  -----------------  -----------------
         O           -2.423879883580    -1.440654924270    -0.511263565714    15.994914619570
         O           -2.529912883580     0.842967075730    -0.684103565714    15.994914619570
         C            0.230703116420    -0.167110924270     0.560586434286    12.000000000000
         C            0.773998416420     0.948540675730     0.086354934286    12.000000000000
         C           -1.184165883580    -0.129211924270     1.056212434286    12.000000000000
         C            0.879406116420    -1.402816924270     0.416384434286    12.000000000000
         C            2.219148116420     0.903688075730    -0.325544565714    12.000000000000
         C            0.215023116420     2.341691075730     0.226185434286    12.000000000000
         C            2.183574116420    -1.491187924270    -0.071308565714    12.000000000000
         C            2.864106116420    -0.329945924270    -0.441370565714    12.000000000000
         C           -2.164746883580    -0.256573924270    -0.176414565714    12.000000000000
         H           -1.358932883580    -0.976513924270     1.728020434286     1.007825032230
         H           -1.387623883580     0.800581075730     1.597037434286     1.007825032230
         H            0.329396116420    -2.303821924270     0.681306434286     1.007825032230
         H            2.737577116420     1.812048075730    -0.635071565714     1.007825032230
         H           -0.795404883580     2.248203075730    -0.185463565714     1.007825032230
         H            0.127219116420     2.689274075730     1.263948434286     1.007825032230
         H            0.778268116420     3.096620075730    -0.333631565714     1.007825032230
         H            2.661893116420    -2.464483924270    -0.173758565714     1.007825032230
         H            3.883954116420    -0.382174924270    -0.820049565714     1.007825032230

  Basis Set: AUG-CC-PVTZ
    Blend: AUG-CC-PVTZ
  Basis Set: (AUG-CC-PVTZ AUX)
    Blend: AUG-CC-PVTZ-JKFIT
	 Reference Energy          =    -495.9776189243881390 [Eh]
	 Singles Energy            =      -0.0000000000000000 [Eh]
	 Same-Spin Energy          =      -0.5330874996075810 [Eh]
	 Opposite-Spin Energy      =      -1.6370186483399904 [Eh]
	 Correlation Energy        =      -2.1701061479475712 [Eh]
	 Total Energy              =    -498.1477250723357315 [Eh]

	 ================> DF-SCS-MP2 Energies <==================
	-----------------------------------------------------------
	 SCS Same-Spin Scale       =       0.3333333333333333 [-]
	 SCS Opposite-Spin Scale   =       1.2000000000000000 [-]
	 SCS Same-Spin Energy      =      -0.1776958332025270 [Eh]
	 SCS Opposite-Spin Energy  =      -1.9644223780079884 [Eh]
	 SCS Correlation Energy    =      -2.1421182112105153 [Eh]
	 SCS Total Energy          =    -498.1197371355986547 [Eh]
	-----------------------------------------------------------

  Dipole Moment: [D]
     X:     8.5571      Y:     1.3638      Z:     2.9505     Total:     9.1536

*** Psi4 exiting successfully. Buy a developer a beer!
