                               Psi4 1.4a3.dev225

  ==> Input File <==

--------------------------------------------------------------------------
#psi4
#
memory 32 gb

molecule  {
-1 1
  O       -2.4775990    -1.4732410    -0.5357720
  O       -2.5836320     0.8103810    -0.7086120
  C        0.1769840    -0.1996970     0.5360780
  C        0.8528670     0.9715620     0.1268880
  C       -1.2378850    -0.1617980     1.0317040
  C        0.8256870    -1.4354030     0.3918760
  C        2.1654290     0.8711020    -0.3500530
  C        0.1613040     2.3091050     0.2016770
  C        2.1298550    -1.5237740    -0.0958170
  C        2.8103870    -0.3625320    -0.4658790
  C       -2.2184660    -0.2891600    -0.2009230
  H       -1.4126520    -1.0091000     1.7035120
  H       -1.4413430     0.7679950     1.5725290
  H        0.2756770    -2.3364080     0.6567980
  H        2.6838580     1.7794620    -0.6595800
  H       -0.8491240     2.2156170    -0.2099720
  H        0.0774986     2.6408592     1.1921805
  H        0.7245490     3.0640340    -0.3581400
  H        2.6081740    -2.4970700    -0.1982670
  H        3.8302350    -0.4147610    -0.8445580
units angstrom
no_reorient  #important for SAPT in psi4, default
symmetry c1  #important for SAPT in psi4, default
}

set PROPERTIES_ORIGIN ["COM"]
properties('MP2/aug-cc-pvtz', properties = ['dipole'])
--------------------------------------------------------------------------

    Molecular point group: c1
  Charge       = -1
  Multiplicity = 1
  Basis Set: AUG-CC-PVTZ
    Blend: AUG-CC-PVTZ
  Basis Set: (AUG-CC-PVTZ AUX)
    Blend: AUG-CC-PVTZ-JKFIT

    Orbital Energies [Eh]
    ---------------------

    Doubly Occupied:

       1A    -20.309059     2A    -20.308925     3A    -11.156820
       4A    -11.118212     5A    -11.116778     6A    -11.115810
       7A    -11.114320     8A    -11.112452     9A    -11.106798
      10A    -11.085734    11A    -11.073748    12A     -1.179147
      13A     -1.083290    14A     -1.032068    15A     -0.927437
      16A     -0.907914    17A     -0.823169    18A     -0.789229
      19A     -0.689862    20A     -0.664993    21A     -0.562522
      22A     -0.533181    23A     -0.522964    24A     -0.499624
      25A     -0.465279    26A     -0.454335    27A     -0.440049
      28A     -0.429919    29A     -0.427107    30A     -0.411826
      31A     -0.384175    32A     -0.374871    33A     -0.365109
      34A     -0.351504    35A     -0.332818    36A     -0.235053
      37A     -0.225487    38A     -0.211272    39A     -0.207071
      40A     -0.176111

  @DF-RHF Final Energy:  -495.99626619001248

   => Energetics <=

    Nuclear Repulsion Energy =            572.2621410644067055
    One-Electron Energy =               -1823.8647346842067236
    Two-Electron Energy =                 755.6063274297874841
    Total Energy =                       -495.9962661900125340
  Basis Set: (AUG-CC-PVTZ AUX)
    Blend: AUG-CC-PVTZ-RI
    Molecular point group: c1

    Geometry (in Angstrom), charge = -1, multiplicity = 1:

       Center              X                  Y                   Z               Mass
    ------------   -----------------  -----------------  -----------------  -----------------
         O           -2.434580806467    -1.445024540712    -0.516180159310    15.994914619570
         O           -2.540613806467     0.838597459288    -0.689020159310    15.994914619570
         C            0.220002193533    -0.171480540712     0.555669840690    12.000000000000
         C            0.895885193533     0.999778459288     0.146479840690    12.000000000000
         C           -1.194866806467    -0.133581540712     1.051295840690    12.000000000000
         C            0.868705193533    -1.407186540712     0.411467840690    12.000000000000
         C            2.208447193533     0.899318459288    -0.330461159310    12.000000000000
         C            0.204322193533     2.337321459288     0.221268840690    12.000000000000
         C            2.172873193533    -1.495557540712    -0.076225159310    12.000000000000
         C            2.853405193533    -0.334315540712    -0.446287159310    12.000000000000
         C           -2.175447806467    -0.260943540712    -0.181331159310    12.000000000000
         H           -1.369633806467    -0.980883540712     1.723103840690     1.007825032230
         H           -1.398324806467     0.796211459288     1.592120840690     1.007825032230
         H            0.318695193533    -2.308191540712     0.676389840690     1.007825032230
         H            2.726876193533     1.807678459288    -0.639988159310     1.007825032230
         H           -0.806105806467     2.243833459288    -0.190380159310     1.007825032230
         H            0.120516793533     2.669075659288     1.211772340690     1.007825032230
         H            0.767567193533     3.092250459288    -0.338548159310     1.007825032230
         H            2.651192193533    -2.468853540712    -0.178675159310     1.007825032230
         H            3.873253193533    -0.386544540712    -0.824966159310     1.007825032230

  Basis Set: AUG-CC-PVTZ
    Blend: AUG-CC-PVTZ
  Basis Set: (AUG-CC-PVTZ AUX)
    Blend: AUG-CC-PVTZ-JKFIT
	 Reference Energy          =    -495.9962661900124772 [Eh]
	 Singles Energy            =      -0.0000000000000000 [Eh]
	 Same-Spin Energy          =      -0.5330227956946654 [Eh]
	 Opposite-Spin Energy      =      -1.6352470848150358 [Eh]
	 Correlation Energy        =      -2.1682698805097012 [Eh]
	 Total Energy              =    -498.1645360705221606 [Eh]

	 ================> DF-SCS-MP2 Energies <==================
	-----------------------------------------------------------
	 SCS Same-Spin Scale       =       0.3333333333333333 [-]
	 SCS Opposite-Spin Scale   =       1.2000000000000000 [-]
	 SCS Same-Spin Energy      =      -0.1776742652315551 [Eh]
	 SCS Opposite-Spin Energy  =      -1.9622965017780429 [Eh]
	 SCS Correlation Energy    =      -2.1399707670095980 [Eh]
	 SCS Total Energy          =    -498.1362369570220494 [Eh]
	-----------------------------------------------------------

  Dipole Moment: [D]
     X:     8.4752      Y:     1.4206      Z:     2.9971     Total:     9.1011

*** Psi4 exiting successfully. Buy a developer a beer!
