                               Psi4 1.4a3.dev225

  ==> Input File <==

--------------------------------------------------------------------------
#psi4
#
memory 32 gb

molecule  {
-1 1
  O       -2.5285295    -1.4408244    -0.5994845
  O       -2.5836320     0.8103810    -0.7086120
  C        0.1769840    -0.1996970     0.5360780
  C        0.8528670     0.9715620     0.1268880
  C       -1.2378850    -0.1617980     1.0317040
  C        0.8256870    -1.4354030     0.3918760
  C        2.1654290     0.8711020    -0.3500530
  C        0.1613040     2.3091050     0.2016770
  C        2.1298550    -1.5237740    -0.0958170
  C        2.8103870    -0.3625320    -0.4658790
  C       -2.2184660    -0.2891600    -0.2009230
  H       -1.4126520    -1.0091000     1.7035120
  H       -1.4413430     0.7679950     1.5725290
  H        0.2756770    -2.3364080     0.6567980
  H        2.6838580     1.7794620    -0.6595800
  H       -0.8491240     2.2156170    -0.2099720
  H        0.0735000     2.6566880     1.2394400
  H        0.7245490     3.0640340    -0.3581400
  H        2.6081740    -2.4970700    -0.1982670
  H        3.8302350    -0.4147610    -0.8445580
units angstrom
no_reorient  #important for SAPT in psi4, default
symmetry c1  #important for SAPT in psi4, default
}

set PROPERTIES_ORIGIN ["COM"]
properties('MP2/aug-cc-pvtz', properties = ['dipole'])
--------------------------------------------------------------------------

    Molecular point group: c1
  Charge       = -1
  Multiplicity = 1
  Basis Set: AUG-CC-PVTZ
    Blend: AUG-CC-PVTZ
  Basis Set: (AUG-CC-PVTZ AUX)
    Blend: AUG-CC-PVTZ-JKFIT

    Orbital Energies [Eh]
    ---------------------

    Doubly Occupied:

       1A    -20.306077     2A    -20.303477     3A    -11.154372
       4A    -11.119879     5A    -11.118687     6A    -11.117460
       7A    -11.115929     8A    -11.114571     9A    -11.108874
      10A    -11.092728    11A    -11.078623    12A     -1.178238
      13A     -1.075564    14A     -1.033799    15A     -0.928544
      16A     -0.909635    17A     -0.823047    18A     -0.789759
      19A     -0.691553    20A     -0.665838    21A     -0.563560
      22A     -0.533150    23A     -0.524691    24A     -0.501167
      25A     -0.461534    26A     -0.454680    27A     -0.440775
      28A     -0.428657    29A     -0.425210    30A     -0.413182
      31A     -0.383101    32A     -0.374727    33A     -0.365859
      34A     -0.352807    35A     -0.333076    36A     -0.236659
      37A     -0.219169    38A     -0.210389    39A     -0.204138
      40A     -0.179222

  @DF-RHF Final Energy:  -495.99670238324904

   => Energetics <=

    Nuclear Repulsion Energy =            571.4602884179637385
    One-Electron Energy =               -1822.2491590048241505
    Two-Electron Energy =                 754.7921682036113680
    Total Energy =                       -495.9967023832490440
  Basis Set: (AUG-CC-PVTZ AUX)
    Blend: AUG-CC-PVTZ-RI
    Molecular point group: c1

    Geometry (in Angstrom), charge = -1, multiplicity = 1:

       Center              X                  Y                   Z               Mass
    ------------   -----------------  -----------------  -----------------  -----------------
         O           -2.480019172492    -1.416193426406    -0.573375518348    15.994914619570
         O           -2.535121672492     0.835011973594    -0.682503018348    15.994914619570
         C            0.225494327508    -0.175066026406     0.562186981652    12.000000000000
         C            0.901377327508     0.996192973594     0.152996981652    12.000000000000
         C           -1.189374672492    -0.137167026406     1.057812981652    12.000000000000
         C            0.874197327508    -1.410772026406     0.417984981652    12.000000000000
         C            2.213939327508     0.895732973594    -0.323944018348    12.000000000000
         C            0.209814327508     2.333735973594     0.227785981652    12.000000000000
         C            2.178365327508    -1.499143026406    -0.069708018348    12.000000000000
         C            2.858897327508    -0.337901026406    -0.439770018348    12.000000000000
         C           -2.169955672492    -0.264529026406    -0.174814018348    12.000000000000
         H           -1.364141672492    -0.984469026406     1.729620981652     1.007825032230
         H           -1.392832672492     0.792625973594     1.598637981652     1.007825032230
         H            0.324187327508    -2.311777026406     0.682906981652     1.007825032230
         H            2.732368327508     1.804092973594    -0.633471018348     1.007825032230
         H           -0.800613672492     2.240247973594    -0.183863018348     1.007825032230
         H            0.122010327508     2.681318973594     1.265548981652     1.007825032230
         H            0.773059327508     3.088664973594    -0.332031018348     1.007825032230
         H            2.656684327508    -2.472439026406    -0.172158018348     1.007825032230
         H            3.878745327508    -0.390130026406    -0.818449018348     1.007825032230

  Basis Set: AUG-CC-PVTZ
    Blend: AUG-CC-PVTZ
  Basis Set: (AUG-CC-PVTZ AUX)
    Blend: AUG-CC-PVTZ-JKFIT
	 Reference Energy          =    -495.9967023832490440 [Eh]
	 Singles Energy            =      -0.0000000000000000 [Eh]
	 Same-Spin Energy          =      -0.5328106565253238 [Eh]
	 Opposite-Spin Energy      =      -1.6352586763843662 [Eh]
	 Correlation Energy        =      -2.1680693329096901 [Eh]
	 Total Energy              =    -498.1647717161587252 [Eh]

	 ================> DF-SCS-MP2 Energies <==================
	-----------------------------------------------------------
	 SCS Same-Spin Scale       =       0.3333333333333333 [-]
	 SCS Opposite-Spin Scale   =       1.2000000000000000 [-]
	 SCS Same-Spin Energy      =      -0.1776035521751079 [Eh]
	 SCS Opposite-Spin Energy  =      -1.9623104116612393 [Eh]
	 SCS Correlation Energy    =      -2.1399139638363471 [Eh]
	 SCS Total Energy          =    -498.1366163470854076 [Eh]
	-----------------------------------------------------------

  Dipole Moment: [D]
     X:     8.7065      Y:     1.3566      Z:     3.1387     Total:     9.3539

*** Psi4 exiting successfully. Buy a developer a beer!
