                               Psi4 1.4a3.dev225

  ==> Input File <==

--------------------------------------------------------------------------
#psi4
#
memory 32 gb

molecule  {
-1 1
  O       -2.4775990    -1.4732410    -0.5357720
  O       -2.5836320     0.8103810    -0.7086120
  C        0.1769840    -0.1996970     0.5360780
  C        0.9007058     1.0544633     0.0979257
  C       -1.2378850    -0.1617980     1.0317040
  C        0.8256870    -1.4354030     0.3918760
  C        2.1654290     0.8711020    -0.3500530
  C        0.1613040     2.3091050     0.2016770
  C        2.1298550    -1.5237740    -0.0958170
  C        2.8103870    -0.3625320    -0.4658790
  C       -2.2184660    -0.2891600    -0.2009230
  H       -1.4126520    -1.0091000     1.7035120
  H       -1.4413430     0.7679950     1.5725290
  H        0.2756770    -2.3364080     0.6567980
  H        2.6838580     1.7794620    -0.6595800
  H       -0.8491240     2.2156170    -0.2099720
  H        0.0735000     2.6566880     1.2394400
  H        0.7245490     3.0640340    -0.3581400
  H        2.6081740    -2.4970700    -0.1982670
  H        3.8302350    -0.4147610    -0.8445580
units angstrom
no_reorient  #important for SAPT in psi4, default
symmetry c1  #important for SAPT in psi4, default
}

set PROPERTIES_ORIGIN ["COM"]
properties('MP2/aug-cc-pvtz', properties = ['dipole'])
--------------------------------------------------------------------------

    Molecular point group: c1
  Charge       = -1
  Multiplicity = 1
  Basis Set: AUG-CC-PVTZ
    Blend: AUG-CC-PVTZ
  Basis Set: (AUG-CC-PVTZ AUX)
    Blend: AUG-CC-PVTZ-JKFIT

    Orbital Energies [Eh]
    ---------------------

    Doubly Occupied:

       1A    -20.310185     2A    -20.309655     3A    -11.158017
       4A    -11.122893     5A    -11.119900     6A    -11.117939
       7A    -11.116470     8A    -11.109479     9A    -11.103306
      10A    -11.092278    11A    -11.074976    12A     -1.180010
      13A     -1.084185    14A     -1.028814    15A     -0.929003
      16A     -0.911326    17A     -0.826928    18A     -0.787929
      19A     -0.675220    20A     -0.669552    21A     -0.561917
      22A     -0.534259    23A     -0.521700    24A     -0.499370
      25A     -0.463389    26A     -0.458042    27A     -0.440575
      28A     -0.430087    29A     -0.428615    30A     -0.414335
      31A     -0.392926    32A     -0.373224    33A     -0.362842
      34A     -0.345069    35A     -0.329019    36A     -0.233943
      37A     -0.226039    38A     -0.214405    39A     -0.210146
      40A     -0.169196

  @DF-RHF Final Energy:  -495.98519620091309

   => Energetics <=

    Nuclear Repulsion Energy =            571.0952894691916981
    One-Electron Energy =               -1821.4866482062543582
    Two-Electron Energy =                 754.4061625361493952
    Total Energy =                       -495.9851962009131512
  Basis Set: (AUG-CC-PVTZ AUX)
    Blend: AUG-CC-PVTZ-RI
    Molecular point group: c1

    Geometry (in Angstrom), charge = -1, multiplicity = 1:

       Center              X                  Y                   Z               Mass
    ------------   -----------------  -----------------  -----------------  -----------------
         O           -2.438405003015    -1.451805478153    -0.514168098524    15.994914619570
         O           -2.544438003015     0.831816521847    -0.687008098524    15.994914619570
         C            0.216177996985    -0.178261478153     0.557681901476    12.000000000000
         C            0.939899796985     1.075898821847     0.119529601476    12.000000000000
         C           -1.198691003015    -0.140362478153     1.053307901476    12.000000000000
         C            0.864880996985    -1.413967478153     0.413479901476    12.000000000000
         C            2.204622996985     0.892537521847    -0.328449098524    12.000000000000
         C            0.200497996985     2.330540521847     0.223280901476    12.000000000000
         C            2.169048996985    -1.502338478153    -0.074213098524    12.000000000000
         C            2.849580996985    -0.341096478153    -0.444275098524    12.000000000000
         C           -2.179272003015    -0.267724478153    -0.179319098524    12.000000000000
         H           -1.373458003015    -0.987664478153     1.725115901476     1.007825032230
         H           -1.402149003015     0.789430521847     1.594132901476     1.007825032230
         H            0.314870996985    -2.314972478153     0.678401901476     1.007825032230
         H            2.723051996985     1.800897521847    -0.637976098524     1.007825032230
         H           -0.809930003015     2.237052521847    -0.188368098524     1.007825032230
         H            0.112693996985     2.678123521847     1.261043901476     1.007825032230
         H            0.763742996985     3.085469521847    -0.336536098524     1.007825032230
         H            2.647367996985    -2.475634478153    -0.176663098524     1.007825032230
         H            3.869428996985    -0.393325478153    -0.822954098524     1.007825032230

  Basis Set: AUG-CC-PVTZ
    Blend: AUG-CC-PVTZ
  Basis Set: (AUG-CC-PVTZ AUX)
    Blend: AUG-CC-PVTZ-JKFIT
	 Reference Energy          =    -495.9851962009130943 [Eh]
	 Singles Energy            =      -0.0000000000000000 [Eh]
	 Same-Spin Energy          =      -0.5333933148170897 [Eh]
	 Opposite-Spin Energy      =      -1.6365563323086583 [Eh]
	 Correlation Energy        =      -2.1699496471257480 [Eh]
	 Total Energy              =    -498.1551458480388419 [Eh]

	 ================> DF-SCS-MP2 Energies <==================
	-----------------------------------------------------------
	 SCS Same-Spin Scale       =       0.3333333333333333 [-]
	 SCS Opposite-Spin Scale   =       1.2000000000000000 [-]
	 SCS Same-Spin Energy      =      -0.1777977716056966 [Eh]
	 SCS Opposite-Spin Energy  =      -1.9638675987703897 [Eh]
	 SCS Correlation Energy    =      -2.1416653703760864 [Eh]
	 SCS Total Energy          =    -498.1268615712891688 [Eh]
	-----------------------------------------------------------

  Dipole Moment: [D]
     X:     8.3693      Y:     1.4672      Z:     2.9868     Total:     9.0066

*** Psi4 exiting successfully. Buy a developer a beer!
