                               Psi4 1.4a3.dev225

  ==> Input File <==

--------------------------------------------------------------------------
#psi4
#
memory 32 gb

molecule  {
-1 1
  O       -2.4775990    -1.4732410    -0.5357720
  O       -2.5836320     0.8103810    -0.7086120
  C        0.1769840    -0.1996970     0.5360780
  C        0.8624348     0.9881423     0.1210955
  C       -1.2378850    -0.1617980     1.0317040
  C        0.8256870    -1.4354030     0.3918760
  C        2.1654290     0.8711020    -0.3500530
  C        0.1613040     2.3091050     0.2016770
  C        2.1298550    -1.5237740    -0.0958170
  C        2.8103870    -0.3625320    -0.4658790
  C       -2.2184660    -0.2891600    -0.2009230
  H       -1.4126520    -1.0091000     1.7035120
  H       -1.4413430     0.7679950     1.5725290
  H        0.2756770    -2.3364080     0.6567980
  H        2.6838580     1.7794620    -0.6595800
  H       -0.8491240     2.2156170    -0.2099720
  H        0.0735000     2.6566880     1.2394400
  H        0.7245490     3.0640340    -0.3581400
  H        2.6081740    -2.4970700    -0.1982670
  H        3.8302350    -0.4147610    -0.8445580
units angstrom
no_reorient  #important for SAPT in psi4, default
symmetry c1  #important for SAPT in psi4, default
}

set PROPERTIES_ORIGIN ["COM"]
properties('MP2/aug-cc-pvtz', properties = ['dipole'])
--------------------------------------------------------------------------

    Molecular point group: c1
  Charge       = -1
  Multiplicity = 1
  Basis Set: AUG-CC-PVTZ
    Blend: AUG-CC-PVTZ
  Basis Set: (AUG-CC-PVTZ AUX)
    Blend: AUG-CC-PVTZ-JKFIT

    Orbital Energies [Eh]
    ---------------------

    Doubly Occupied:

       1A    -20.309404     2A    -20.309158     3A    -11.157159
       4A    -11.118178     5A    -11.117845     6A    -11.116268
       7A    -11.114999     8A    -11.113635     9A    -11.106245
      10A    -11.092188    11A    -11.073989    12A     -1.179417
      13A     -1.083569    14A     -1.031350    15A     -0.926639
      16A     -0.909050    17A     -0.822250    18A     -0.787710
      19A     -0.686700    20A     -0.665630    21A     -0.562175
      22A     -0.533326    23A     -0.522996    24A     -0.499625
      25A     -0.461685    26A     -0.453965    27A     -0.439769
      28A     -0.428848    29A     -0.426593    30A     -0.412841
      31A     -0.386071    32A     -0.374067    33A     -0.364225
      34A     -0.350367    35A     -0.333584    36A     -0.234674
      37A     -0.225644    38A     -0.211773    39A     -0.207989
      40A     -0.174746

  @DF-RHF Final Energy:  -495.99648186617287

   => Energetics <=

    Nuclear Repulsion Energy =            571.8291891506609090
    One-Electron Energy =               -1822.9986516939002286
    Two-Electron Energy =                 755.1729806770663345
    Total Energy =                       -495.9964818661728714
  Basis Set: (AUG-CC-PVTZ AUX)
    Blend: AUG-CC-PVTZ-RI
    Molecular point group: c1

    Geometry (in Angstrom), charge = -1, multiplicity = 1:

       Center              X                  Y                   Z               Mass
    ------------   -----------------  -----------------  -----------------  -----------------
         O           -2.435324020754    -1.446466348668    -0.516033368384    15.994914619570
         O           -2.541357020754     0.837155651332    -0.688873368384    15.994914619570
         C            0.219258979246    -0.172922348668     0.555816631616    12.000000000000
         C            0.904709779246     1.014916951332     0.140834131616    12.000000000000
         C           -1.195610020754    -0.135023348668     1.051442631616    12.000000000000
         C            0.867961979246    -1.408628348668     0.411614631616    12.000000000000
         C            2.207703979246     0.897876651332    -0.330314368384    12.000000000000
         C            0.203578979246     2.335879651332     0.221415631616    12.000000000000
         C            2.172129979246    -1.496999348668    -0.076078368384    12.000000000000
         C            2.852661979246    -0.335757348668    -0.446140368384    12.000000000000
         C           -2.176191020754    -0.262385348668    -0.181184368384    12.000000000000
         H           -1.370377020754    -0.982325348668     1.723250631616     1.007825032230
         H           -1.399068020754     0.794769651332     1.592267631616     1.007825032230
         H            0.317951979246    -2.309633348668     0.676536631616     1.007825032230
         H            2.726132979246     1.806236651332    -0.639841368384     1.007825032230
         H           -0.806849020754     2.242391651332    -0.190233368384     1.007825032230
         H            0.115774979246     2.683462651332     1.259178631616     1.007825032230
         H            0.766823979246     3.090808651332    -0.338401368384     1.007825032230
         H            2.650448979246    -2.470295348668    -0.178528368384     1.007825032230
         H            3.872509979246    -0.387986348668    -0.824819368384     1.007825032230

  Basis Set: AUG-CC-PVTZ
    Blend: AUG-CC-PVTZ
  Basis Set: (AUG-CC-PVTZ AUX)
    Blend: AUG-CC-PVTZ-JKFIT
	 Reference Energy          =    -495.9964818661728714 [Eh]
	 Singles Energy            =      -0.0000000000000000 [Eh]
	 Same-Spin Energy          =      -0.5331050252352254 [Eh]
	 Opposite-Spin Energy      =      -1.6356396087462386 [Eh]
	 Correlation Energy        =      -2.1687446339814640 [Eh]
	 Total Energy              =    -498.1652265001543469 [Eh]

	 ================> DF-SCS-MP2 Energies <==================
	-----------------------------------------------------------
	 SCS Same-Spin Scale       =       0.3333333333333333 [-]
	 SCS Opposite-Spin Scale   =       1.2000000000000000 [-]
	 SCS Same-Spin Energy      =      -0.1777016750784084 [Eh]
	 SCS Opposite-Spin Energy  =      -1.9627675304954861 [Eh]
	 SCS Correlation Energy    =      -2.1404692055738948 [Eh]
	 SCS Total Energy          =    -498.1369510717467506 [Eh]
	-----------------------------------------------------------

  Dipole Moment: [D]
     X:     8.4584      Y:     1.4081      Z:     2.9731     Total:     9.0756

*** Psi4 exiting successfully. Buy a developer a beer!
