                               Psi4 1.4a3.dev225

  ==> Input File <==

--------------------------------------------------------------------------
#psi4
#
memory 32 gb

molecule  {
-1 1
  O       -2.4775990    -1.4732410    -0.5357720
  O       -2.5836320     0.8103810    -0.7086120
  C        0.1769840    -0.1996970     0.5360780
  C        0.8528670     0.9715620     0.1268880
  C       -1.2378850    -0.1617980     1.0317040
  C        0.8256870    -1.4354030     0.3918760
  C        2.1654290     0.8711020    -0.3500530
  C        0.1613040     2.3091050     0.2016770
  C        2.0831164    -1.5206070    -0.0783391
  C        2.8103870    -0.3625320    -0.4658790
  C       -2.2184660    -0.2891600    -0.2009230
  H       -1.4126520    -1.0091000     1.7035120
  H       -1.4413430     0.7679950     1.5725290
  H        0.2756770    -2.3364080     0.6567980
  H        2.6838580     1.7794620    -0.6595800
  H       -0.8491240     2.2156170    -0.2099720
  H        0.0735000     2.6566880     1.2394400
  H        0.7245490     3.0640340    -0.3581400
  H        2.6081740    -2.4970700    -0.1982670
  H        3.8302350    -0.4147610    -0.8445580
units angstrom
no_reorient  #important for SAPT in psi4, default
symmetry c1  #important for SAPT in psi4, default
}

set PROPERTIES_ORIGIN ["COM"]
properties('MP2/aug-cc-pvtz', properties = ['dipole'])
--------------------------------------------------------------------------

    Molecular point group: c1
  Charge       = -1
  Multiplicity = 1
  Basis Set: AUG-CC-PVTZ
    Blend: AUG-CC-PVTZ
  Basis Set: (AUG-CC-PVTZ AUX)
    Blend: AUG-CC-PVTZ-JKFIT

    Orbital Energies [Eh]
    ---------------------

    Doubly Occupied:

       1A    -20.309325     2A    -20.309285     3A    -11.157229
       4A    -11.119890     5A    -11.116114     6A    -11.115653
       7A    -11.114898     8A    -11.113044     9A    -11.101595
      10A    -11.091701    11A    -11.073872    12A     -1.179464
      13A     -1.083599    14A     -1.034552    15A     -0.925745
      16A     -0.910991    17A     -0.824448    18A     -0.784931
      19A     -0.689435    20A     -0.663993    21A     -0.561195
      22A     -0.533406    23A     -0.524994    24A     -0.498311
      25A     -0.462206    26A     -0.456742    27A     -0.435000
      28A     -0.428554    29A     -0.424869    30A     -0.412952
      31A     -0.383954    32A     -0.375832    33A     -0.366533
      34A     -0.347438    35A     -0.334013    36A     -0.234018
      37A     -0.225747    38A     -0.215490    39A     -0.209491
      40A     -0.173670

  @DF-RHF Final Energy:  -495.99400770741198

   => Energetics <=

    Nuclear Repulsion Energy =            572.6729998078658355
    One-Electron Energy =               -1824.6856585080631703
    Two-Electron Energy =                 756.0186509927852967
    Total Energy =                       -495.9940077074120381
  Basis Set: (AUG-CC-PVTZ AUX)
    Blend: AUG-CC-PVTZ-RI
    Molecular point group: c1

    Geometry (in Angstrom), charge = -1, multiplicity = 1:

       Center              X                  Y                   Z               Mass
    ------------   -----------------  -----------------  -----------------  -----------------
         O           -2.430791110206    -1.445386519571    -0.517906736981    15.994914619570
         O           -2.536824110206     0.838235480429    -0.690746736981    15.994914619570
         C            0.223791889794    -0.171842519571     0.553943263019    12.000000000000
         C            0.899674889794     0.999416480429     0.144753263019    12.000000000000
         C           -1.191077110206    -0.133943519571     1.049569263019    12.000000000000
         C            0.872494889794    -1.407548519571     0.409741263019    12.000000000000
         C            2.212236889794     0.898956480429    -0.332187736981    12.000000000000
         C            0.208111889794     2.336959480429     0.219542263019    12.000000000000
         C            2.129924289794    -1.492752519571    -0.060473836981    12.000000000000
         C            2.857194889794    -0.334677519571    -0.448013736981    12.000000000000
         C           -2.171658110206    -0.261305519571    -0.183057736981    12.000000000000
         H           -1.365844110206    -0.981245519571     1.721377263019     1.007825032230
         H           -1.394535110206     0.795849480429     1.590394263019     1.007825032230
         H            0.322484889794    -2.308553519571     0.674663263019     1.007825032230
         H            2.730665889794     1.807316480429    -0.641714736981     1.007825032230
         H           -0.802316110206     2.243471480429    -0.192106736981     1.007825032230
         H            0.120307889794     2.684542480429     1.257305263019     1.007825032230
         H            0.771356889794     3.091888480429    -0.340274736981     1.007825032230
         H            2.654981889794    -2.469215519571    -0.180401736981     1.007825032230
         H            3.877042889794    -0.386906519571    -0.826692736981     1.007825032230

  Basis Set: AUG-CC-PVTZ
    Blend: AUG-CC-PVTZ
  Basis Set: (AUG-CC-PVTZ AUX)
    Blend: AUG-CC-PVTZ-JKFIT
	 Reference Energy          =    -495.9940077074119813 [Eh]
	 Singles Energy            =      -0.0000000000000000 [Eh]
	 Same-Spin Energy          =      -0.5330735315638528 [Eh]
	 Opposite-Spin Energy      =      -1.6356160899499681 [Eh]
	 Correlation Energy        =      -2.1686896215138209 [Eh]
	 Total Energy              =    -498.1626973289257876 [Eh]

	 ================> DF-SCS-MP2 Energies <==================
	-----------------------------------------------------------
	 SCS Same-Spin Scale       =       0.3333333333333333 [-]
	 SCS Opposite-Spin Scale   =       1.2000000000000000 [-]
	 SCS Same-Spin Energy      =      -0.1776911771879509 [Eh]
	 SCS Opposite-Spin Energy  =      -1.9627393079399615 [Eh]
	 SCS Correlation Energy    =      -2.1404304851279123 [Eh]
	 SCS Total Energy          =    -498.1344381925399034 [Eh]
	-----------------------------------------------------------

  Dipole Moment: [D]
     X:     8.4572      Y:     1.3997      Z:     2.9794     Total:     9.0752

*** Psi4 exiting successfully. Buy a developer a beer!
