                               Psi4 1.4a3.dev225

  ==> Input File <==

--------------------------------------------------------------------------
#psi4
#
memory 32 gb

molecule  {
-1 1
  O       -2.4775990    -1.4732410    -0.5357720
  O       -2.5836320     0.8103810    -0.7086120
  C        0.1769840    -0.1996970     0.5360780
  C        0.8528670     0.9715620     0.1268880
  C       -1.2378850    -0.1617980     1.0317040
  C        0.8256870    -1.4354030     0.3918760
  C        2.1654290     0.8711020    -0.3500530
  C        0.1613040     2.3091050     0.2016770
  C        2.3168093    -1.5364421    -0.1657285
  C        2.8103870    -0.3625320    -0.4658790
  C       -2.2184660    -0.2891600    -0.2009230
  H       -1.4126520    -1.0091000     1.7035120
  H       -1.4413430     0.7679950     1.5725290
  H        0.2756770    -2.3364080     0.6567980
  H        2.6838580     1.7794620    -0.6595800
  H       -0.8491240     2.2156170    -0.2099720
  H        0.0735000     2.6566880     1.2394400
  H        0.7245490     3.0640340    -0.3581400
  H        2.6081740    -2.4970700    -0.1982670
  H        3.8302350    -0.4147610    -0.8445580
units angstrom
no_reorient  #important for SAPT in psi4, default
symmetry c1  #important for SAPT in psi4, default
}

set PROPERTIES_ORIGIN ["COM"]
properties('MP2/aug-cc-pvtz', properties = ['dipole'])
--------------------------------------------------------------------------

    Molecular point group: c1
  Charge       = -1
  Multiplicity = 1
  Basis Set: AUG-CC-PVTZ
    Blend: AUG-CC-PVTZ
  Basis Set: (AUG-CC-PVTZ AUX)
    Blend: AUG-CC-PVTZ-JKFIT

    Orbital Energies [Eh]
    ---------------------

    Doubly Occupied:

       1A    -20.308903     2A    -20.308188     3A    -11.155970
       4A    -11.124411     5A    -11.121294     6A    -11.117406
       7A    -11.113354     8A    -11.111841     9A    -11.111133
      10A    -11.094439    11A    -11.073258    12A     -1.178648
      13A     -1.082829    14A     -1.027840    15A     -0.938461
      16A     -0.897070    17A     -0.814388    18A     -0.793359
      19A     -0.692540    20A     -0.667191    21A     -0.568808
      22A     -0.532079    23A     -0.528150    24A     -0.502852
      25A     -0.463798    26A     -0.458404    27A     -0.439611
      28A     -0.428091    29A     -0.423889    30A     -0.407086
      31A     -0.387618    32A     -0.365091    33A     -0.362575
      34A     -0.353512    35A     -0.318765    36A     -0.242515
      37A     -0.225124    38A     -0.209747    39A     -0.195502
      40A     -0.180332

  @DF-RHF Final Energy:  -495.95646296254694

   => Energetics <=

    Nuclear Repulsion Energy =            569.7107862767027200
    One-Electron Energy =               -1818.6823547884712298
    Two-Electron Energy =                 753.0151055492215164
    Total Energy =                       -495.9564629625469934
  Basis Set: (AUG-CC-PVTZ AUX)
    Blend: AUG-CC-PVTZ-RI
    Molecular point group: c1

    Geometry (in Angstrom), charge = -1, multiplicity = 1:

       Center              X                  Y                   Z               Mass
    ------------   -----------------  -----------------  -----------------  -----------------
         O           -2.449604406942    -1.444111725022    -0.510871509494    15.994914619570
         O           -2.555637406942     0.839510274978    -0.683711509494    15.994914619570
         C            0.204978593058    -0.170567725022     0.560978490506    12.000000000000
         C            0.880861593058     1.000691274978     0.151788490506    12.000000000000
         C           -1.209890406942    -0.132668725022     1.056604490506    12.000000000000
         C            0.853681593058    -1.406273725022     0.416776490506    12.000000000000
         C            2.193423593058     0.900231274978    -0.325152509494    12.000000000000
         C            0.189298593058     2.338234274978     0.226577490506    12.000000000000
         C            2.344803893058    -1.507312825022    -0.140828009494    12.000000000000
         C            2.838381593058    -0.333402725022    -0.440978509494    12.000000000000
         C           -2.190471406942    -0.260030725022    -0.176022509494    12.000000000000
         H           -1.384657406942    -0.979970725022     1.728412490506     1.007825032230
         H           -1.413348406942     0.797124274978     1.597429490506     1.007825032230
         H            0.303671593058    -2.307278725022     0.681698490506     1.007825032230
         H            2.711852593058     1.808591274978    -0.634679509494     1.007825032230
         H           -0.821129406942     2.244746274978    -0.185071509494     1.007825032230
         H            0.101494593058     2.685817274978     1.264340490506     1.007825032230
         H            0.752543593058     3.093163274978    -0.333239509494     1.007825032230
         H            2.636168593058    -2.467940725022    -0.173366509494     1.007825032230
         H            3.858229593058    -0.385631725022    -0.819657509494     1.007825032230

  Basis Set: AUG-CC-PVTZ
    Blend: AUG-CC-PVTZ
  Basis Set: (AUG-CC-PVTZ AUX)
    Blend: AUG-CC-PVTZ-JKFIT
	 Reference Energy          =    -495.9564629625469365 [Eh]
	 Singles Energy            =      -0.0000000000000000 [Eh]
	 Same-Spin Energy          =      -0.5323590894647495 [Eh]
	 Opposite-Spin Energy      =      -1.6376966191532789 [Eh]
	 Correlation Energy        =      -2.1700557086180283 [Eh]
	 Total Energy              =    -498.1265186711649449 [Eh]

	 ================> DF-SCS-MP2 Energies <==================
	-----------------------------------------------------------
	 SCS Same-Spin Scale       =       0.3333333333333333 [-]
	 SCS Opposite-Spin Scale   =       1.2000000000000000 [-]
	 SCS Same-Spin Energy      =      -0.1774530298215832 [Eh]
	 SCS Opposite-Spin Energy  =      -1.9652359429839346 [Eh]
	 SCS Correlation Energy    =      -2.1426889728055176 [Eh]
	 SCS Total Energy          =    -498.0991519353524382 [Eh]
	-----------------------------------------------------------

  Dipole Moment: [D]
     X:     8.5610      Y:     1.3955      Z:     2.9326     Total:     9.1563

*** Psi4 exiting successfully. Buy a developer a beer!
