                               Psi4 1.4a3.dev225

  ==> Input File <==

--------------------------------------------------------------------------
#psi4
#
memory 32 gb

molecule  {
-1 1
  O       -2.4775990    -1.4732410    -0.5357720
  O       -2.5836320     0.8103810    -0.7086120
  C        0.1769840    -0.1996970     0.5360780
  C        0.8528670     0.9715620     0.1268880
  C       -1.2378850    -0.1617980     1.0317040
  C        0.8256870    -1.4354030     0.3918760
  C        2.1654290     0.8711020    -0.3500530
  C        0.1613040     2.3091050     0.2016770
  C        2.1298550    -1.5237740    -0.0958170
  C        2.8103870    -0.3625320    -0.4658790
  C       -2.2242396    -0.2717752    -0.2089501
  H       -1.4126520    -1.0091000     1.7035120
  H       -1.4413430     0.7679950     1.5725290
  H        0.2756770    -2.3364080     0.6567980
  H        2.6838580     1.7794620    -0.6595800
  H       -0.8491240     2.2156170    -0.2099720
  H        0.0735000     2.6566880     1.2394400
  H        0.7245490     3.0640340    -0.3581400
  H        2.6081740    -2.4970700    -0.1982670
  H        3.8302350    -0.4147610    -0.8445580
units angstrom
no_reorient  #important for SAPT in psi4, default
symmetry c1  #important for SAPT in psi4, default
}

set PROPERTIES_ORIGIN ["COM"]
properties('MP2/aug-cc-pvtz', properties = ['dipole'])
--------------------------------------------------------------------------

    Molecular point group: c1
  Charge       = -1
  Multiplicity = 1
  Basis Set: AUG-CC-PVTZ
    Blend: AUG-CC-PVTZ
  Basis Set: (AUG-CC-PVTZ AUX)
    Blend: AUG-CC-PVTZ-JKFIT

    Orbital Energies [Eh]
    ---------------------

    Doubly Occupied:

       1A    -20.314075     2A    -20.305329     3A    -11.157128
       4A    -11.118007     5A    -11.116863     6A    -11.115714
       7A    -11.114460     8A    -11.112262     9A    -11.106351
      10A    -11.092804    11A    -11.072788    12A     -1.182988
      13A     -1.085024    14A     -1.031838    15A     -0.926571
      16A     -0.907164    17A     -0.820481    18A     -0.787038
      19A     -0.689314    20A     -0.663770    21A     -0.561816
      22A     -0.532544    23A     -0.522991    24A     -0.499261
      25A     -0.462492    26A     -0.452979    27A     -0.439921
      28A     -0.428072    29A     -0.426712    30A     -0.412166
      31A     -0.384818    32A     -0.375562    33A     -0.364704
      34A     -0.351787    35A     -0.334047    36A     -0.236689
      37A     -0.224731    38A     -0.212054    39A     -0.207064
      40A     -0.174708

  @DF-RHF Final Energy:  -495.99701089966231

   => Energetics <=

    Nuclear Repulsion Energy =            572.0168423261951602
    One-Electron Energy =               -1823.3775289332245393
    Two-Electron Energy =                 755.3636757073671788
    Total Energy =                       -495.9970108996623139
  Basis Set: (AUG-CC-PVTZ AUX)
    Blend: AUG-CC-PVTZ-RI
    Molecular point group: c1

    Geometry (in Angstrom), charge = -1, multiplicity = 1:

       Center              X                  Y                   Z               Mass
    ------------   -----------------  -----------------  -----------------  -----------------
         O           -2.434088971206    -1.446531114423    -0.515853473347    15.994914619570
         O           -2.540121971206     0.837090885577    -0.688693473347    15.994914619570
         C            0.220494028794    -0.172987114423     0.555996526653    12.000000000000
         C            0.896377028794     0.998271885577     0.146806526653    12.000000000000
         C           -1.194374971206    -0.135088114423     1.051622526653    12.000000000000
         C            0.869197028794    -1.408693114423     0.411794526653    12.000000000000
         C            2.208939028794     0.897811885577    -0.330134473347    12.000000000000
         C            0.204814028794     2.335814885577     0.221595526653    12.000000000000
         C            2.173365028794    -1.497064114423    -0.075898473347    12.000000000000
         C            2.853897028794    -0.335822114423    -0.445960473347    12.000000000000
         C           -2.180729571206    -0.245065314423    -0.189031573347    12.000000000000
         H           -1.369141971206    -0.982390114423     1.723430526653     1.007825032230
         H           -1.397832971206     0.794704885577     1.592447526653     1.007825032230
         H            0.319187028794    -2.309698114423     0.676716526653     1.007825032230
         H            2.727368028794     1.806171885577    -0.639661473347     1.007825032230
         H           -0.805613971206     2.242326885577    -0.190053473347     1.007825032230
         H            0.117010028794     2.683397885577     1.259358526653     1.007825032230
         H            0.768059028794     3.090743885577    -0.338221473347     1.007825032230
         H            2.651684028794    -2.470360114423    -0.178348473347     1.007825032230
         H            3.873745028794    -0.388051114423    -0.824639473347     1.007825032230

  Basis Set: AUG-CC-PVTZ
    Blend: AUG-CC-PVTZ
  Basis Set: (AUG-CC-PVTZ AUX)
    Blend: AUG-CC-PVTZ-JKFIT
	 Reference Energy          =    -495.9970108996623139 [Eh]
	 Singles Energy            =      -0.0000000000000000 [Eh]
	 Same-Spin Energy          =      -0.5329320606697574 [Eh]
	 Opposite-Spin Energy      =      -1.6352896630039901 [Eh]
	 Correlation Energy        =      -2.1682217236737475 [Eh]
	 Total Energy              =    -498.1652326233360668 [Eh]

	 ================> DF-SCS-MP2 Energies <==================
	-----------------------------------------------------------
	 SCS Same-Spin Scale       =       0.3333333333333333 [-]
	 SCS Opposite-Spin Scale   =       1.2000000000000000 [-]
	 SCS Same-Spin Energy      =      -0.1776440202232525 [Eh]
	 SCS Opposite-Spin Energy  =      -1.9623475956047880 [Eh]
	 SCS Correlation Energy    =      -2.1399916158280403 [Eh]
	 SCS Total Energy          =    -498.1370025154903374 [Eh]
	-----------------------------------------------------------

  Dipole Moment: [D]
     X:     8.4177      Y:     1.5681      Z:     2.9187     Total:     9.0463

*** Psi4 exiting successfully. Buy a developer a beer!
