                               Psi4 1.4a3.dev225

  ==> Input File <==

--------------------------------------------------------------------------
#psi4
#
memory 32 gb

molecule  {
-1 1
  O       -2.4775990    -1.4732410    -0.5357720
  O       -2.5836320     0.8103810    -0.7086120
  C        0.1769840    -0.1996970     0.5360780
  C        0.8528670     0.9715620     0.1268880
  C       -1.2378850    -0.1617980     1.0317040
  C        0.8256870    -1.4354030     0.3918760
  C        2.1654290     0.8711020    -0.3500530
  C        0.1613040     2.3091050     0.2016770
  C        2.1298550    -1.5237740    -0.0958170
  C        2.8103870    -0.3625320    -0.4658790
  C       -2.2762023    -0.1153119    -0.2811936
  H       -1.4126520    -1.0091000     1.7035120
  H       -1.4413430     0.7679950     1.5725290
  H        0.2756770    -2.3364080     0.6567980
  H        2.6838580     1.7794620    -0.6595800
  H       -0.8491240     2.2156170    -0.2099720
  H        0.0735000     2.6566880     1.2394400
  H        0.7245490     3.0640340    -0.3581400
  H        2.6081740    -2.4970700    -0.1982670
  H        3.8302350    -0.4147610    -0.8445580
units angstrom
no_reorient  #important for SAPT in psi4, default
symmetry c1  #important for SAPT in psi4, default
}

set PROPERTIES_ORIGIN ["COM"]
properties('MP2/aug-cc-pvtz', properties = ['dipole'])
--------------------------------------------------------------------------

    Molecular point group: c1
  Charge       = -1
  Multiplicity = 1
  Basis Set: AUG-CC-PVTZ
    Blend: AUG-CC-PVTZ
  Basis Set: (AUG-CC-PVTZ AUX)
    Blend: AUG-CC-PVTZ-JKFIT

    Orbital Energies [Eh]
    ---------------------

    Doubly Occupied:

       1A    -20.361177     2A    -20.275726     3A    -11.154773
       4A    -11.113168     5A    -11.112591     6A    -11.111704
       7A    -11.111162     8A    -11.107445     9A    -11.099441
      10A    -11.098028    11A    -11.061708    12A     -1.318014
      13A     -1.032578    14A     -1.024042    15A     -0.922955
      16A     -0.900471    17A     -0.815599    18A     -0.778260
      19A     -0.683770    20A     -0.658102    21A     -0.560895
      22A     -0.549477    23A     -0.521164    24A     -0.497134
      25A     -0.491121    26A     -0.458761    27A     -0.447285
      28A     -0.437372    29A     -0.430723    30A     -0.419774
      31A     -0.411122    32A     -0.384952    33A     -0.363193
      34A     -0.349267    35A     -0.344435    36A     -0.238436
      37A     -0.205743    38A     -0.202681    39A     -0.195433
      40A     -0.147766

  @DF-RHF Final Energy:  -495.92533993600546

   => Energetics <=

    Nuclear Repulsion Energy =            572.5271338601394291
    One-Electron Energy =               -1824.1100543024083436
    Two-Electron Energy =                 755.6575805062634572
    Total Energy =                       -495.9253399360054573
  Basis Set: (AUG-CC-PVTZ AUX)
    Blend: AUG-CC-PVTZ-RI
    Molecular point group: c1

    Geometry (in Angstrom), charge = -1, multiplicity = 1:

       Center              X                  Y                   Z               Mass
    ------------   -----------------  -----------------  -----------------  -----------------
         O           -2.429905747435    -1.459127091842    -0.510037556805    15.994914619570
         O           -2.535938747435     0.824494908158    -0.682877556805    15.994914619570
         C            0.224677252565    -0.185583091842     0.561812443195    12.000000000000
         C            0.900560252565     0.985675908158     0.152622443195    12.000000000000
         C           -1.190191747435    -0.147684091842     1.057438443195    12.000000000000
         C            0.873380252565    -1.421289091842     0.417610443195    12.000000000000
         C            2.213122252565     0.885215908158    -0.324318556805    12.000000000000
         C            0.208997252565     2.323218908158     0.227411443195    12.000000000000
         C            2.177548252565    -1.509660091842    -0.070082556805    12.000000000000
         C            2.858080252565    -0.348418091842    -0.440144556805    12.000000000000
         C           -2.228509047435    -0.101197991842    -0.255459156805    12.000000000000
         H           -1.364958747435    -0.994986091842     1.729246443195     1.007825032230
         H           -1.393649747435     0.782108908158     1.598263443195     1.007825032230
         H            0.323370252565    -2.322294091842     0.682532443195     1.007825032230
         H            2.731551252565     1.793575908158    -0.633845556805     1.007825032230
         H           -0.801430747435     2.229730908158    -0.184237556805     1.007825032230
         H            0.121193252565     2.670801908158     1.265174443195     1.007825032230
         H            0.772242252565     3.078147908158    -0.332405556805     1.007825032230
         H            2.655867252565    -2.482956091842    -0.172532556805     1.007825032230
         H            3.877928252565    -0.400647091842    -0.818823556805     1.007825032230

  Basis Set: AUG-CC-PVTZ
    Blend: AUG-CC-PVTZ
  Basis Set: (AUG-CC-PVTZ AUX)
    Blend: AUG-CC-PVTZ-JKFIT
	 Reference Energy          =    -495.9253399360054573 [Eh]
	 Singles Energy            =      -0.0000000000000000 [Eh]
	 Same-Spin Energy          =      -0.5323242879998602 [Eh]
	 Opposite-Spin Energy      =      -1.6336475635370598 [Eh]
	 Correlation Energy        =      -2.1659718515369200 [Eh]
	 Total Energy              =    -498.0913117875423950 [Eh]

	 ================> DF-SCS-MP2 Energies <==================
	-----------------------------------------------------------
	 SCS Same-Spin Scale       =       0.3333333333333333 [-]
	 SCS Opposite-Spin Scale   =       1.2000000000000000 [-]
	 SCS Same-Spin Energy      =      -0.1774414293332867 [Eh]
	 SCS Opposite-Spin Energy  =      -1.9603770762444717 [Eh]
	 SCS Correlation Energy    =      -2.1378185055777585 [Eh]
	 SCS Total Energy          =    -498.0631584415831981 [Eh]
	-----------------------------------------------------------

  Dipole Moment: [D]
     X:     7.7039      Y:     3.2439      Z:     2.4024     Total:     8.6974

*** Psi4 exiting successfully. Buy a developer a beer!
