                               Psi4 1.4a3.dev225

  ==> Input File <==

--------------------------------------------------------------------------
#psi4
#
memory 32 gb

molecule  {
-1 1
  O       -2.4775990    -1.4732410    -0.5357720
  O       -2.5836320     0.8103810    -0.7086120
  C        0.1769840    -0.1996970     0.5360780
  C        0.7571894     0.8057593     0.1848127
  C       -1.2378850    -0.1617980     1.0317040
  C        0.8256870    -1.4354030     0.3918760
  C        2.1654290     0.8711020    -0.3500530
  C        0.1613040     2.3091050     0.2016770
  C        2.1298550    -1.5237740    -0.0958170
  C        2.8103870    -0.3625320    -0.4658790
  C       -2.2184660    -0.2891600    -0.2009230
  H       -1.4126520    -1.0091000     1.7035120
  H       -1.4413430     0.7679950     1.5725290
  H        0.2756770    -2.3364080     0.6567980
  H        2.6838580     1.7794620    -0.6595800
  H       -0.8491240     2.2156170    -0.2099720
  H        0.0735000     2.6566880     1.2394400
  H        0.7245490     3.0640340    -0.3581400
  H        2.6081740    -2.4970700    -0.1982670
  H        3.8302350    -0.4147610    -0.8445580
units angstrom
no_reorient  #important for SAPT in psi4, default
symmetry c1  #important for SAPT in psi4, default
}

set PROPERTIES_ORIGIN ["COM"]
properties('MP2/aug-cc-pvtz', properties = ['dipole'])
--------------------------------------------------------------------------

    Molecular point group: c1
  Charge       = -1
  Multiplicity = 1
  Basis Set: AUG-CC-PVTZ
    Blend: AUG-CC-PVTZ
  Basis Set: (AUG-CC-PVTZ AUX)
    Blend: AUG-CC-PVTZ-JKFIT

    Orbital Energies [Eh]
    ---------------------

    Doubly Occupied:

       1A    -20.307916     2A    -20.307383     3A    -11.154880
       4A    -11.125624     5A    -11.121162     6A    -11.115524
       7A    -11.114191     8A    -11.105755     9A    -11.092613
      10A    -11.083049    11A    -11.071421    12A     -1.177930
      13A     -1.081979    14A     -1.048695    15A     -0.940569
      16A     -0.889121    17A     -0.811432    18A     -0.792011
      19A     -0.718282    20A     -0.649615    21A     -0.566915
      22A     -0.532961    23A     -0.521087    24A     -0.498990
      25A     -0.463337    26A     -0.452802    27A     -0.440750
      28A     -0.423675    29A     -0.420649    30A     -0.408696
      31A     -0.388876    32A     -0.372735    33A     -0.371827
      34A     -0.350497    35A     -0.301949    36A     -0.250234
      37A     -0.224814    38A     -0.209311    39A     -0.197995
      40A     -0.190591

  @DF-RHF Final Energy:  -495.94161516845907

   => Energetics <=

    Nuclear Repulsion Energy =            574.3093651338868995
    One-Electron Energy =               -1827.9062677960757810
    Two-Electron Energy =                 757.6552874937297020
    Total Energy =                       -495.9416151684590659
  Basis Set: (AUG-CC-PVTZ AUX)
    Blend: AUG-CC-PVTZ-RI
    Molecular point group: c1

    Geometry (in Angstrom), charge = -1, multiplicity = 1:

       Center              X                  Y                   Z               Mass
    ------------   -----------------  -----------------  -----------------  -----------------
         O           -2.426851307461    -1.431783722458    -0.521162880623    15.994914619570
         O           -2.532884307461     0.851838277542    -0.694002880623    15.994914619570
         C            0.227731692539    -0.158239722458     0.550687119377    12.000000000000
         C            0.807937092539     0.847216577542     0.199421819377    12.000000000000
         C           -1.187137307461    -0.120340722458     1.046313119377    12.000000000000
         C            0.876434692539    -1.393945722458     0.406485119377    12.000000000000
         C            2.216176692539     0.912559277542    -0.335443880623    12.000000000000
         C            0.212051692539     2.350562277542     0.216286119377    12.000000000000
         C            2.180602692539    -1.482316722458    -0.081207880623    12.000000000000
         C            2.861134692539    -0.321074722458    -0.451269880623    12.000000000000
         C           -2.167718307461    -0.247702722458    -0.186313880623    12.000000000000
         H           -1.361904307461    -0.967642722458     1.718121119377     1.007825032230
         H           -1.390595307461     0.809452277542     1.587138119377     1.007825032230
         H            0.326424692539    -2.294950722458     0.671407119377     1.007825032230
         H            2.734605692539     1.820919277542    -0.644970880623     1.007825032230
         H           -0.798376307461     2.257074277542    -0.195362880623     1.007825032230
         H            0.124247692539     2.698145277542     1.254049119377     1.007825032230
         H            0.775296692539     3.105491277542    -0.343530880623     1.007825032230
         H            2.658921692539    -2.455612722458    -0.183657880623     1.007825032230
         H            3.880982692539    -0.373303722458    -0.829948880623     1.007825032230

  Basis Set: AUG-CC-PVTZ
    Blend: AUG-CC-PVTZ
  Basis Set: (AUG-CC-PVTZ AUX)
    Blend: AUG-CC-PVTZ-JKFIT
	 Reference Energy          =    -495.9416151684590659 [Eh]
	 Singles Energy            =      -0.0000000000000000 [Eh]
	 Same-Spin Energy          =      -0.5314963173148701 [Eh]
	 Opposite-Spin Energy      =      -1.6362433574232860 [Eh]
	 Correlation Energy        =      -2.1677396747381561 [Eh]
	 Total Energy              =    -498.1093548431971954 [Eh]

	 ================> DF-SCS-MP2 Energies <==================
	-----------------------------------------------------------
	 SCS Same-Spin Scale       =       0.3333333333333333 [-]
	 SCS Opposite-Spin Scale   =       1.2000000000000000 [-]
	 SCS Same-Spin Energy      =      -0.1771654391049567 [Eh]
	 SCS Opposite-Spin Energy  =      -1.9634920289079432 [Eh]
	 SCS Correlation Energy    =      -2.1406574680129000 [Eh]
	 SCS Total Energy          =    -498.0822726364719415 [Eh]
	-----------------------------------------------------------

  Dipole Moment: [D]
     X:     8.7727      Y:     1.1934      Z:     2.9276     Total:     9.3250

*** Psi4 exiting successfully. Buy a developer a beer!
