                               Psi4 1.4a3.dev225

  ==> Input File <==

--------------------------------------------------------------------------
#psi4
#
memory 32 gb

molecule  {
-1 1
  O       -2.4775990    -1.4732410    -0.5357720
  O       -2.5836320     0.8103810    -0.7086120
  C        0.1769840    -0.1996970     0.5360780
  C        0.8528670     0.9715620     0.1268880
  C       -1.2378850    -0.1617980     1.0317040
  C        0.8256870    -1.4354030     0.3918760
  C        2.1654290     0.8711020    -0.3500530
  C        0.1154324     2.3978247     0.2066378
  C        2.1298550    -1.5237740    -0.0958170
  C        2.8103870    -0.3625320    -0.4658790
  C       -2.2184660    -0.2891600    -0.2009230
  H       -1.4126520    -1.0091000     1.7035120
  H       -1.4413430     0.7679950     1.5725290
  H        0.2756770    -2.3364080     0.6567980
  H        2.6838580     1.7794620    -0.6595800
  H       -0.8491240     2.2156170    -0.2099720
  H        0.0735000     2.6566880     1.2394400
  H        0.7245490     3.0640340    -0.3581400
  H        2.6081740    -2.4970700    -0.1982670
  H        3.8302350    -0.4147610    -0.8445580
units angstrom
no_reorient  #important for SAPT in psi4, default
symmetry c1  #important for SAPT in psi4, default
}

set PROPERTIES_ORIGIN ["COM"]
properties('MP2/aug-cc-pvtz', properties = ['dipole'])
--------------------------------------------------------------------------

    Molecular point group: c1
  Charge       = -1
  Multiplicity = 1
  Basis Set: AUG-CC-PVTZ
    Blend: AUG-CC-PVTZ
  Basis Set: (AUG-CC-PVTZ AUX)
    Blend: AUG-CC-PVTZ-JKFIT

    Orbital Energies [Eh]
    ---------------------

    Doubly Occupied:

       1A    -20.309318     2A    -20.309002     3A    -11.156840
       4A    -11.120773     5A    -11.118303     6A    -11.115927
       7A    -11.114937     8A    -11.112715     9A    -11.106791
      10A    -11.091296    11A    -11.073625    12A     -1.179258
      13A     -1.083422    14A     -1.029433    15A     -0.921832
      16A     -0.903696    17A     -0.821068    18A     -0.790171
      19A     -0.689099    20A     -0.664784    21A     -0.561145
      22A     -0.532428    23A     -0.521812    24A     -0.496096
      25A     -0.466615    26A     -0.453678    27A     -0.437138
      28A     -0.433212    29A     -0.425867    30A     -0.421612
      31A     -0.378321    32A     -0.377311    33A     -0.367111
      34A     -0.341754    35A     -0.329919    36A     -0.234974
      37A     -0.225876    38A     -0.212247    39A     -0.207406
      40A     -0.176893

  @DF-RHF Final Energy:  -495.99013830812135

   => Energetics <=

    Nuclear Repulsion Energy =            570.3202926931198817
    One-Electron Energy =               -1819.9934505721523692
    Two-Electron Energy =                 753.6830195709111422
    Total Energy =                       -495.9901383081213453
  Basis Set: (AUG-CC-PVTZ AUX)
    Blend: AUG-CC-PVTZ-RI
    Molecular point group: c1

    Geometry (in Angstrom), charge = -1, multiplicity = 1:

       Center              X                  Y                   Z               Mass
    ------------   -----------------  -----------------  -----------------  -----------------
         O           -2.430860907484    -1.452273884706    -0.516899055890    15.994914619570
         O           -2.536893907484     0.831348115294    -0.689739055890    15.994914619570
         C            0.223722092516    -0.178729884706     0.554950944110    12.000000000000
         C            0.899605092516     0.992529115294     0.145760944110    12.000000000000
         C           -1.191146907484    -0.140830884706     1.050576944110    12.000000000000
         C            0.872425092516    -1.414435884706     0.410748944110    12.000000000000
         C            2.212167092516     0.892069115294    -0.331180055890    12.000000000000
         C            0.162170492516     2.418791815294     0.225510744110    12.000000000000
         C            2.176593092516    -1.502806884706    -0.076944055890    12.000000000000
         C            2.857125092516    -0.341564884706    -0.447006055890    12.000000000000
         C           -2.171727907484    -0.268192884706    -0.182050055890    12.000000000000
         H           -1.365913907484    -0.988132884706     1.722384944110     1.007825032230
         H           -1.394604907484     0.788962115294     1.591401944110     1.007825032230
         H            0.322415092516    -2.315440884706     0.675670944110     1.007825032230
         H            2.730596092516     1.800429115294    -0.640707055890     1.007825032230
         H           -0.802385907484     2.236584115294    -0.191099055890     1.007825032230
         H            0.120238092516     2.677655115294     1.258312944110     1.007825032230
         H            0.771287092516     3.085001115294    -0.339267055890     1.007825032230
         H            2.654912092516    -2.476102884706    -0.179394055890     1.007825032230
         H            3.876973092516    -0.393793884706    -0.825685055890     1.007825032230

  Basis Set: AUG-CC-PVTZ
    Blend: AUG-CC-PVTZ
  Basis Set: (AUG-CC-PVTZ AUX)
    Blend: AUG-CC-PVTZ-JKFIT
	 Reference Energy          =    -495.9901383081213453 [Eh]
	 Singles Energy            =      -0.0000000000000000 [Eh]
	 Same-Spin Energy          =      -0.5325046848229196 [Eh]
	 Opposite-Spin Energy      =      -1.6354450373257914 [Eh]
	 Correlation Energy        =      -2.1679497221487107 [Eh]
	 Total Energy              =    -498.1580880302700507 [Eh]

	 ================> DF-SCS-MP2 Energies <==================
	-----------------------------------------------------------
	 SCS Same-Spin Scale       =       0.3333333333333333 [-]
	 SCS Opposite-Spin Scale   =       1.2000000000000000 [-]
	 SCS Same-Spin Energy      =      -0.1775015616076399 [Eh]
	 SCS Opposite-Spin Energy  =      -1.9625340447909496 [Eh]
	 SCS Correlation Energy    =      -2.1400356063985893 [Eh]
	 SCS Total Energy          =    -498.1301739145199576 [Eh]
	-----------------------------------------------------------

  Dipole Moment: [D]
     X:     8.5077      Y:     1.3946      Z:     2.9773     Total:     9.1209

*** Psi4 exiting successfully. Buy a developer a beer!
