                               Psi4 1.4a3.dev225

  ==> Input File <==

--------------------------------------------------------------------------
#psi4
#
memory 32 gb

molecule  {
-1 1
  O       -2.4775990    -1.4732410    -0.5357720
  O       -2.5836320     0.8103810    -0.7086120
  C        0.1769840    -0.1996970     0.5360780
  C        0.8528670     0.9715620     0.1268880
  C       -1.2378850    -0.1617980     1.0317040
  C        0.8256870    -1.4354030     0.3918760
  C        2.1654290     0.8711020    -0.3500530
  C        0.1613040     2.3091050     0.2016770
  C        2.1298550    -1.5237740    -0.0958170
  C        2.8103870    -0.3625320    -0.4658790
  C       -2.2184660    -0.2891600    -0.2009230
  H       -1.4286074    -1.0864545     1.7648448
  H       -1.4413430     0.7679950     1.5725290
  H        0.2756770    -2.3364080     0.6567980
  H        2.6838580     1.7794620    -0.6595800
  H       -0.8491240     2.2156170    -0.2099720
  H        0.0735000     2.6566880     1.2394400
  H        0.7245490     3.0640340    -0.3581400
  H        2.6081740    -2.4970700    -0.1982670
  H        3.8302350    -0.4147610    -0.8445580
units angstrom
no_reorient  #important for SAPT in psi4, default
symmetry c1  #important for SAPT in psi4, default
}

set PROPERTIES_ORIGIN ["COM"]
properties('MP2/aug-cc-pvtz', properties = ['dipole'])
--------------------------------------------------------------------------

    Molecular point group: c1
  Charge       = -1
  Multiplicity = 1
  Basis Set: AUG-CC-PVTZ
    Blend: AUG-CC-PVTZ
  Basis Set: (AUG-CC-PVTZ AUX)
    Blend: AUG-CC-PVTZ-JKFIT

    Orbital Energies [Eh]
    ---------------------

    Doubly Occupied:

       1A    -20.310418     2A    -20.309004     3A    -11.158060
       4A    -11.118887     5A    -11.118018     6A    -11.116305
       7A    -11.115161     8A    -11.113631     9A    -11.107269
      10A    -11.092859    11A    -11.085917    12A     -1.179817
      13A     -1.083988    14A     -1.032636    15A     -0.927026
      16A     -0.907222    17A     -0.819475    18A     -0.785482
      19A     -0.689159    20A     -0.664125    21A     -0.562856
      22A     -0.532454    23A     -0.521230    24A     -0.498760
      25A     -0.461849    26A     -0.453771    27A     -0.440181
      28A     -0.426820    29A     -0.422969    30A     -0.412908
      31A     -0.381316    32A     -0.372849    33A     -0.364872
      34A     -0.347654    35A     -0.332788    36A     -0.235905
      37A     -0.225334    38A     -0.211759    39A     -0.207519
      40A     -0.177027

  @DF-RHF Final Energy:  -495.99041454288425

   => Energetics <=

    Nuclear Repulsion Energy =            571.5212548498572005
    One-Electron Energy =               -1822.3727759508283270
    Two-Electron Energy =                 754.8611065580870445
    Total Energy =                       -495.9904145428841957
  Basis Set: (AUG-CC-PVTZ AUX)
    Blend: AUG-CC-PVTZ-RI
    Molecular point group: c1

    Geometry (in Angstrom), charge = -1, multiplicity = 1:

       Center              X                  Y                   Z               Mass
    ------------   -----------------  -----------------  -----------------  -----------------
         O           -2.434445893637    -1.444608553628    -0.516914372724    15.994914619570
         O           -2.540478893637     0.839013446372    -0.689754372724    15.994914619570
         C            0.220137106363    -0.171064553628     0.554935627276    12.000000000000
         C            0.896020106363     1.000194446372     0.145745627276    12.000000000000
         C           -1.194731893637    -0.133165553628     1.050561627276    12.000000000000
         C            0.868840106363    -1.406770553628     0.410733627276    12.000000000000
         C            2.208582106363     0.899734446372    -0.331195372724    12.000000000000
         C            0.204457106363     2.337737446372     0.220534627276    12.000000000000
         C            2.173008106363    -1.495141553628    -0.076959372724    12.000000000000
         C            2.853540106363    -0.333899553628    -0.447021372724    12.000000000000
         C           -2.175312893637    -0.260527553628    -0.182065372724    12.000000000000
         H           -1.385454293637    -1.057822053628     1.783702427276     1.007825032230
         H           -1.398189893637     0.796627446372     1.591386627276     1.007825032230
         H            0.318830106363    -2.307775553628     0.675655627276     1.007825032230
         H            2.727011106363     1.808094446372    -0.640722372724     1.007825032230
         H           -0.805970893637     2.244249446372    -0.191114372724     1.007825032230
         H            0.116653106363     2.685320446372     1.258297627276     1.007825032230
         H            0.767702106363     3.092666446372    -0.339282372724     1.007825032230
         H            2.651327106363    -2.468437553628    -0.179409372724     1.007825032230
         H            3.873388106363    -0.386128553628    -0.825700372724     1.007825032230

  Basis Set: AUG-CC-PVTZ
    Blend: AUG-CC-PVTZ
  Basis Set: (AUG-CC-PVTZ AUX)
    Blend: AUG-CC-PVTZ-JKFIT
	 Reference Energy          =    -495.9904145428842526 [Eh]
	 Singles Energy            =      -0.0000000000000000 [Eh]
	 Same-Spin Energy          =      -0.5331352895737784 [Eh]
	 Opposite-Spin Energy      =      -1.6364100628375562 [Eh]
	 Correlation Energy        =      -2.1695453524113346 [Eh]
	 Total Energy              =    -498.1599598952955716 [Eh]

	 ================> DF-SCS-MP2 Energies <==================
	-----------------------------------------------------------
	 SCS Same-Spin Scale       =       0.3333333333333333 [-]
	 SCS Opposite-Spin Scale   =       1.2000000000000000 [-]
	 SCS Same-Spin Energy      =      -0.1777117631912595 [Eh]
	 SCS Opposite-Spin Energy  =      -1.9636920754050673 [Eh]
	 SCS Correlation Energy    =      -2.1414038385963265 [Eh]
	 SCS Total Energy          =    -498.1318183814805707 [Eh]
	-----------------------------------------------------------

  Dipole Moment: [D]
     X:     8.5106      Y:     1.4373      Z:     2.8920     Total:     9.1027

*** Psi4 exiting successfully. Buy a developer a beer!
