                               Psi4 1.4a3.dev225

  ==> Input File <==

--------------------------------------------------------------------------
#psi4
#
memory 32 gb

molecule  {
-1 1
  O       -2.4775990    -1.4732410    -0.5357720
  O       -2.5836320     0.8103810    -0.7086120
  C        0.1769840    -0.1996970     0.5360780
  C        0.8528670     0.9715620     0.1268880
  C       -1.2378850    -0.1617980     1.0317040
  C        0.8256870    -1.4354030     0.3918760
  C        2.1654290     0.8711020    -0.3500530
  C        0.1613040     2.3091050     0.2016770
  C        2.1298550    -1.5237740    -0.0958170
  C        2.8103870    -0.3625320    -0.4658790
  C       -2.3425720    -0.3052794    -0.3569289
  H       -1.4126520    -1.0091000     1.7035120
  H       -1.4413430     0.7679950     1.5725290
  H        0.2756770    -2.3364080     0.6567980
  H        2.6838580     1.7794620    -0.6595800
  H       -0.8491240     2.2156170    -0.2099720
  H        0.0735000     2.6566880     1.2394400
  H        0.7245490     3.0640340    -0.3581400
  H        2.6081740    -2.4970700    -0.1982670
  H        3.8302350    -0.4147610    -0.8445580
units angstrom
no_reorient  #important for SAPT in psi4, default
symmetry c1  #important for SAPT in psi4, default
}

set PROPERTIES_ORIGIN ["COM"]
properties('MP2/aug-cc-pvtz', properties = ['dipole'])
--------------------------------------------------------------------------

    Molecular point group: c1
  Charge       = -1
  Multiplicity = 1
  Basis Set: AUG-CC-PVTZ
    Blend: AUG-CC-PVTZ
  Basis Set: (AUG-CC-PVTZ AUX)
    Blend: AUG-CC-PVTZ-JKFIT

    Orbital Energies [Eh]
    ---------------------

    Doubly Occupied:

       1A    -20.336982     2A    -20.336827     3A    -11.177372
       4A    -11.107441     5A    -11.106362     6A    -11.104289
       7A    -11.103062     8A    -11.100261     9A    -11.092775
      10A    -11.086846    11A    -11.041220    12A     -1.238194
      13A     -1.162248    14A     -1.020098    15A     -0.914041
      16A     -0.892539    17A     -0.805183    18A     -0.761990
      19A     -0.676667    20A     -0.647638    21A     -0.549445
      22A     -0.534901    23A     -0.510319    24A     -0.488932
      25A     -0.469728    26A     -0.459977    27A     -0.443807
      28A     -0.438703    29A     -0.425740    30A     -0.410125
      31A     -0.400504    32A     -0.378895    33A     -0.357803
      34A     -0.342888    35A     -0.334372    36A     -0.265938
      37A     -0.252217    38A     -0.222782    39A     -0.198749
      40A     -0.131762

  @DF-RHF Final Energy:  -495.97381996420586

   => Energetics <=

    Nuclear Repulsion Energy =            571.2441243357417306
    One-Electron Energy =               -1821.7766458864984997
    Two-Electron Energy =                 754.5587015865510239
    Total Energy =                       -495.9738199642058589
  Basis Set: (AUG-CC-PVTZ AUX)
    Blend: AUG-CC-PVTZ-RI
    Molecular point group: c1

    Geometry (in Angstrom), charge = -1, multiplicity = 1:

       Center              X                  Y                   Z               Mass
    ------------   -----------------  -----------------  -----------------  -----------------
         O           -2.424562697388    -1.443833880333    -0.503940535149    15.994914619570
         O           -2.530595697388     0.839788119667    -0.676780535149    15.994914619570
         C            0.230020302612    -0.170289880333     0.567909464851    12.000000000000
         C            0.905903302612     1.000969119667     0.158719464851    12.000000000000
         C           -1.184848697388    -0.132390880333     1.063535464851    12.000000000000
         C            0.878723302612    -1.405995880333     0.423707464851    12.000000000000
         C            2.218465302612     0.900509119667    -0.318221535149    12.000000000000
         C            0.214340302612     2.338512119667     0.233508464851    12.000000000000
         C            2.182891302612    -1.494366880333    -0.063985535149    12.000000000000
         C            2.863423302612    -0.333124880333    -0.434047535149    12.000000000000
         C           -2.289535697388    -0.275872280333    -0.325097435149    12.000000000000
         H           -1.359615697388    -0.979692880333     1.735343464851     1.007825032230
         H           -1.388306697388     0.797402119667     1.604360464851     1.007825032230
         H            0.328713302612    -2.307000880333     0.688629464851     1.007825032230
         H            2.736894302612     1.808869119667    -0.627748535149     1.007825032230
         H           -0.796087697388     2.245024119667    -0.178140535149     1.007825032230
         H            0.126536302612     2.686095119667     1.271271464851     1.007825032230
         H            0.777585302612     3.093441119667    -0.326308535149     1.007825032230
         H            2.661210302612    -2.467662880333    -0.166435535149     1.007825032230
         H            3.883271302612    -0.385353880333    -0.812726535149     1.007825032230

  Basis Set: AUG-CC-PVTZ
    Blend: AUG-CC-PVTZ
  Basis Set: (AUG-CC-PVTZ AUX)
    Blend: AUG-CC-PVTZ-JKFIT
	 Reference Energy          =    -495.9738199642058589 [Eh]
	 Singles Energy            =      -0.0000000000000000 [Eh]
	 Same-Spin Energy          =      -0.5336339350581558 [Eh]
	 Opposite-Spin Energy      =      -1.6340001054240592 [Eh]
	 Correlation Energy        =      -2.1676340404822150 [Eh]
	 Total Energy              =    -498.1414540046880575 [Eh]

	 ================> DF-SCS-MP2 Energies <==================
	-----------------------------------------------------------
	 SCS Same-Spin Scale       =       0.3333333333333333 [-]
	 SCS Opposite-Spin Scale   =       1.2000000000000000 [-]
	 SCS Same-Spin Energy      =      -0.1778779783527186 [Eh]
	 SCS Opposite-Spin Energy  =      -1.9608001265088708 [Eh]
	 SCS Correlation Energy    =      -2.1386781048615893 [Eh]
	 SCS Total Energy          =    -498.1124980690674420 [Eh]
	-----------------------------------------------------------

  Dipole Moment: [D]
     X:     6.4066      Y:     1.2066      Z:     1.7457     Total:     6.7489

*** Psi4 exiting successfully. Buy a developer a beer!
