                               Psi4 1.4a3.dev225

  ==> Input File <==

--------------------------------------------------------------------------
#psi4
#
memory 32 gb

molecule  {
-1 1
  O       -2.4775990    -1.4732410    -0.5357720
  O       -2.5836320     0.8103810    -0.7086120
  C        0.1769840    -0.1996970     0.5360780
  C        0.8528670     0.9715620     0.1268880
  C       -1.2378850    -0.1617980     1.0317040
  C        0.8256870    -1.4354030     0.3918760
  C        2.1654290     0.8711020    -0.3500530
  C        0.1842398     2.2647451     0.1991966
  C        2.1298550    -1.5237740    -0.0958170
  C        2.8103870    -0.3625320    -0.4658790
  C       -2.2184660    -0.2891600    -0.2009230
  H       -1.4126520    -1.0091000     1.7035120
  H       -1.4413430     0.7679950     1.5725290
  H        0.2756770    -2.3364080     0.6567980
  H        2.6838580     1.7794620    -0.6595800
  H       -0.8491240     2.2156170    -0.2099720
  H        0.0735000     2.6566880     1.2394400
  H        0.7245490     3.0640340    -0.3581400
  H        2.6081740    -2.4970700    -0.1982670
  H        3.8302350    -0.4147610    -0.8445580
units angstrom
no_reorient  #important for SAPT in psi4, default
symmetry c1  #important for SAPT in psi4, default
}

set PROPERTIES_ORIGIN ["COM"]
properties('MP2/aug-cc-pvtz', properties = ['dipole'])
--------------------------------------------------------------------------

    Molecular point group: c1
  Charge       = -1
  Multiplicity = 1
  Basis Set: AUG-CC-PVTZ
    Blend: AUG-CC-PVTZ
  Basis Set: (AUG-CC-PVTZ AUX)
    Blend: AUG-CC-PVTZ-JKFIT

    Orbital Energies [Eh]
    ---------------------

    Doubly Occupied:

       1A    -20.309196     2A    -20.309072     3A    -11.157026
       4A    -11.118516     5A    -11.116217     6A    -11.115333
       7A    -11.114219     8A    -11.112722     9A    -11.107094
      10A    -11.093774    11A    -11.073788    12A     -1.179305
      13A     -1.083441    14A     -1.034211    15A     -0.930906
      16A     -0.909549    17A     -0.821591    18A     -0.786535
      19A     -0.690321    20A     -0.663845    21A     -0.563208
      22A     -0.533711    23A     -0.524225    24A     -0.502428
      25A     -0.459988    26A     -0.454322    27A     -0.444071
      28A     -0.428968    29A     -0.422888    30A     -0.405815
      31A     -0.387388    32A     -0.371967    33A     -0.362727
      34A     -0.355283    35A     -0.332664    36A     -0.235295
      37A     -0.225475    38A     -0.210878    39A     -0.206772
      40A     -0.175747

  @DF-RHF Final Energy:  -495.99402306200705

   => Energetics <=

    Nuclear Repulsion Energy =            572.9095093911636241
    One-Electron Energy =               -1825.1461014736078141
    Two-Electron Energy =                 756.2425690204370312
    Total Energy =                       -495.9940230620070452
  Basis Set: (AUG-CC-PVTZ AUX)
    Blend: AUG-CC-PVTZ-RI
    Molecular point group: c1

    Geometry (in Angstrom), charge = -1, multiplicity = 1:

       Center              X                  Y                   Z               Mass
    ------------   -----------------  -----------------  -----------------  -----------------
         O           -2.436400203003    -1.441560397029    -0.516300006866    15.994914619570
         O           -2.542433203003     0.842061602971    -0.689140006866    15.994914619570
         C            0.218182796997    -0.168016397029     0.555549993134    12.000000000000
         C            0.894065796997     1.003242602971     0.146359993134    12.000000000000
         C           -1.196686203003    -0.130117397029     1.051175993134    12.000000000000
         C            0.866885796997    -1.403722397029     0.411347993134    12.000000000000
         C            2.206627796997     0.902782602971    -0.330581006866    12.000000000000
         C            0.225438596997     2.296425702971     0.218668593134    12.000000000000
         C            2.171053796997    -1.492093397029    -0.076345006866    12.000000000000
         C            2.851585796997    -0.330851397029    -0.446407006866    12.000000000000
         C           -2.177267203003    -0.257479397029    -0.181451006866    12.000000000000
         H           -1.371453203003    -0.977419397029     1.722983993134     1.007825032230
         H           -1.400144203003     0.799675602971     1.592000993134     1.007825032230
         H            0.316875796997    -2.304727397029     0.676269993134     1.007825032230
         H            2.725056796997     1.811142602971    -0.640108006866     1.007825032230
         H           -0.807925203003     2.247297602971    -0.190500006866     1.007825032230
         H            0.114698796997     2.688368602971     1.258911993134     1.007825032230
         H            0.765747796997     3.095714602971    -0.338668006866     1.007825032230
         H            2.649372796997    -2.465389397029    -0.178795006866     1.007825032230
         H            3.871433796997    -0.383080397029    -0.825086006866     1.007825032230

  Basis Set: AUG-CC-PVTZ
    Blend: AUG-CC-PVTZ
  Basis Set: (AUG-CC-PVTZ AUX)
    Blend: AUG-CC-PVTZ-JKFIT
	 Reference Energy          =    -495.9940230620070452 [Eh]
	 Singles Energy            =      -0.0000000000000000 [Eh]
	 Same-Spin Energy          =      -0.5335927345432089 [Eh]
	 Opposite-Spin Energy      =      -1.6360752459871986 [Eh]
	 Correlation Energy        =      -2.1696679805304075 [Eh]
	 Total Energy              =    -498.1636910425374367 [Eh]

	 ================> DF-SCS-MP2 Energies <==================
	-----------------------------------------------------------
	 SCS Same-Spin Scale       =       0.3333333333333333 [-]
	 SCS Opposite-Spin Scale   =       1.2000000000000000 [-]
	 SCS Same-Spin Energy      =      -0.1778642448477363 [Eh]
	 SCS Opposite-Spin Energy  =      -1.9632902951846383 [Eh]
	 SCS Correlation Energy    =      -2.1411545400323746 [Eh]
	 SCS Total Energy          =    -498.1351776020394482 [Eh]
	-----------------------------------------------------------

  Dipole Moment: [D]
     X:     8.4695      Y:     1.3802      Z:     2.9630     Total:     9.0784

*** Psi4 exiting successfully. Buy a developer a beer!
