                               Psi4 1.4a3.dev225

  ==> Input File <==

--------------------------------------------------------------------------
#psi4
#
memory 32 gb

molecule  {
-1 1
  O       -2.4775990    -1.4732410    -0.5357720
  O       -2.5836320     0.8103810    -0.7086120
  C        0.1769840    -0.1996970     0.5360780
  C        0.8528670     0.9715620     0.1268880
  C       -1.2378850    -0.1617980     1.0317040
  C        0.8256870    -1.4354030     0.3918760
  C        2.1654290     0.8711020    -0.3500530
  C        0.1613040     2.3091050     0.2016770
  C        2.1298550    -1.5237740    -0.0958170
  C        2.8103870    -0.3625320    -0.4658790
  C       -2.2184660    -0.2891600    -0.2009230
  H       -1.4126520    -1.0091000     1.7035120
  H       -1.4450601     0.7849819     1.5824097
  H        0.2756770    -2.3364080     0.6567980
  H        2.6838580     1.7794620    -0.6595800
  H       -0.8491240     2.2156170    -0.2099720
  H        0.0735000     2.6566880     1.2394400
  H        0.7245490     3.0640340    -0.3581400
  H        2.6081740    -2.4970700    -0.1982670
  H        3.8302350    -0.4147610    -0.8445580
units angstrom
no_reorient  #important for SAPT in psi4, default
symmetry c1  #important for SAPT in psi4, default
}

set PROPERTIES_ORIGIN ["COM"]
properties('MP2/aug-cc-pvtz', properties = ['dipole'])
--------------------------------------------------------------------------

    Molecular point group: c1
  Charge       = -1
  Multiplicity = 1
  Basis Set: AUG-CC-PVTZ
    Blend: AUG-CC-PVTZ
  Basis Set: (AUG-CC-PVTZ AUX)
    Blend: AUG-CC-PVTZ-JKFIT

    Orbital Energies [Eh]
    ---------------------

    Doubly Occupied:

       1A    -20.309270     2A    -20.309196     3A    -11.157153
       4A    -11.118529     5A    -11.117274     6A    -11.116181
       7A    -11.114746     8A    -11.112909     9A    -11.107136
      10A    -11.092150    11A    -11.076184    12A     -1.179375
      13A     -1.083516    14A     -1.032297    15A     -0.926808
      16A     -0.907742    17A     -0.820697    18A     -0.787087
      19A     -0.689927    20A     -0.664070    21A     -0.562440
      22A     -0.532504    23A     -0.523121    24A     -0.499575
      25A     -0.461168    26A     -0.453095    27A     -0.439998
      28A     -0.428310    29A     -0.425188    30A     -0.412305
      31A     -0.383623    32A     -0.374626    33A     -0.364726
      34A     -0.351261    35A     -0.332640    36A     -0.235245
      37A     -0.225605    38A     -0.211445    39A     -0.207221
      40A     -0.176391

  @DF-RHF Final Energy:  -495.99661303197178

   => Energetics <=

    Nuclear Repulsion Energy =            571.9250505028745692
    One-Electron Energy =               -1823.1978588647004926
    Two-Electron Energy =                 755.2761953298540902
    Total Energy =                       -495.9966130319717195
  Basis Set: (AUG-CC-PVTZ AUX)
    Blend: AUG-CC-PVTZ-RI
    Molecular point group: c1

    Geometry (in Angstrom), charge = -1, multiplicity = 1:

       Center              X                  Y                   Z               Mass
    ------------   -----------------  -----------------  -----------------  -----------------
         O           -2.434528639136    -1.445246413967    -0.516566495186    15.994914619570
         O           -2.540561639136     0.838375586033    -0.689406495186    15.994914619570
         C            0.220054360864    -0.171702413967     0.555283504814    12.000000000000
         C            0.895937360864     0.999556586033     0.146093504814    12.000000000000
         C           -1.194814639136    -0.133803413967     1.050909504814    12.000000000000
         C            0.868757360864    -1.407408413967     0.411081504814    12.000000000000
         C            2.208499360864     0.899096586033    -0.330847495186    12.000000000000
         C            0.204374360864     2.337099586033     0.220882504814    12.000000000000
         C            2.172925360864    -1.495779413967    -0.076611495186    12.000000000000
         C            2.853457360864    -0.334537413967    -0.446673495186    12.000000000000
         C           -2.175395639136    -0.261165413967    -0.181717495186    12.000000000000
         H           -1.369581639136    -0.981105413967     1.722717504814     1.007825032230
         H           -1.401989739136     0.812976486033     1.601615204814     1.007825032230
         H            0.318747360864    -2.308413413967     0.676003504814     1.007825032230
         H            2.726928360864     1.807456586033    -0.640374495186     1.007825032230
         H           -0.806053639136     2.243611586033    -0.190766495186     1.007825032230
         H            0.116570360864     2.684682586033     1.258645504814     1.007825032230
         H            0.767619360864     3.092028586033    -0.338934495186     1.007825032230
         H            2.651244360864    -2.469075413967    -0.179061495186     1.007825032230
         H            3.873305360864    -0.386766413967    -0.825352495186     1.007825032230

  Basis Set: AUG-CC-PVTZ
    Blend: AUG-CC-PVTZ
  Basis Set: (AUG-CC-PVTZ AUX)
    Blend: AUG-CC-PVTZ-JKFIT
	 Reference Energy          =    -495.9966130319717763 [Eh]
	 Singles Energy            =      -0.0000000000000000 [Eh]
	 Same-Spin Energy          =      -0.5330495369142982 [Eh]
	 Opposite-Spin Energy      =      -1.6356768872356482 [Eh]
	 Correlation Energy        =      -2.1687264241499467 [Eh]
	 Total Energy              =    -498.1653394561217283 [Eh]

	 ================> DF-SCS-MP2 Energies <==================
	-----------------------------------------------------------
	 SCS Same-Spin Scale       =       0.3333333333333333 [-]
	 SCS Opposite-Spin Scale   =       1.2000000000000000 [-]
	 SCS Same-Spin Energy      =      -0.1776831789714327 [Eh]
	 SCS Opposite-Spin Energy  =      -1.9628122646827777 [Eh]
	 SCS Correlation Energy    =      -2.1404954436542103 [Eh]
	 SCS Total Energy          =    -498.1371084756260075 [Eh]
	-----------------------------------------------------------

  Dipole Moment: [D]
     X:     8.4879      Y:     1.3826      Z:     2.9568     Total:     9.0939

*** Psi4 exiting successfully. Buy a developer a beer!
