                               Psi4 1.4a3.dev225

  ==> Input File <==

--------------------------------------------------------------------------
#psi4
#
memory 32 gb

molecule  {
-1 1
  O       -2.4775990    -1.4732410    -0.5357720
  O       -2.5836320     0.8103810    -0.7086120
  C        0.1769840    -0.1996970     0.5360780
  C        0.8528670     0.9715620     0.1268880
  C       -1.2378850    -0.1617980     1.0317040
  C        0.8256870    -1.4354030     0.3918760
  C        2.1654290     0.8711020    -0.3500530
  C        0.1613040     2.3091050     0.2016770
  C        2.1298550    -1.5237740    -0.0958170
  C        2.8103870    -0.3625320    -0.4658790
  C       -2.2184660    -0.2891600    -0.2009230
  H       -1.4126520    -1.0091000     1.7035120
  H       -1.4413430     0.7679950     1.5725290
  H        0.2756770    -2.3364080     0.6567980
  H        2.6838580     1.7794620    -0.6595800
  H       -0.8491240     2.2156170    -0.2099720
  H        0.0894943     2.5933726     1.0504021
  H        0.7245490     3.0640340    -0.3581400
  H        2.6081740    -2.4970700    -0.1982670
  H        3.8302350    -0.4147610    -0.8445580
units angstrom
no_reorient  #important for SAPT in psi4, default
symmetry c1  #important for SAPT in psi4, default
}

set PROPERTIES_ORIGIN ["COM"]
properties('MP2/aug-cc-pvtz', properties = ['dipole'])
--------------------------------------------------------------------------

    Molecular point group: c1
  Charge       = -1
  Multiplicity = 1
  Basis Set: AUG-CC-PVTZ
    Blend: AUG-CC-PVTZ
  Basis Set: (AUG-CC-PVTZ AUX)
    Blend: AUG-CC-PVTZ-JKFIT

    Orbital Energies [Eh]
    ---------------------

    Doubly Occupied:

       1A    -20.308764     2A    -20.308723     3A    -11.156596
       4A    -11.117752     5A    -11.115827     6A    -11.115305
       7A    -11.113583     8A    -11.111961     9A    -11.106452
      10A    -11.073882    11A    -11.066195    12A     -1.178919
      13A     -1.083054    14A     -1.032029    15A     -0.930970
      16A     -0.909047    17A     -0.833251    18A     -0.793519
      19A     -0.690394    20A     -0.667762    21A     -0.563899
      22A     -0.533701    23A     -0.522647    24A     -0.500642
      25A     -0.483097    26A     -0.455114    27A     -0.440764
      28A     -0.433046    29A     -0.427131    30A     -0.410632
      31A     -0.383899    32A     -0.375407    33A     -0.365774
      34A     -0.351061    35A     -0.332626    36A     -0.234850
      37A     -0.225325    38A     -0.211164    39A     -0.207003
      40A     -0.175896

  @DF-RHF Final Energy:  -495.96422525049064

   => Energetics <=

    Nuclear Repulsion Energy =            573.0757367077709432
    One-Electron Energy =               -1825.3845970257077624
    Two-Electron Energy =                 756.3446350674460064
    Total Energy =                       -495.9642252504906992
  Basis Set: (AUG-CC-PVTZ AUX)
    Blend: AUG-CC-PVTZ-RI
    Molecular point group: c1

    Geometry (in Angstrom), charge = -1, multiplicity = 1:

       Center              X                  Y                   Z               Mass
    ------------   -----------------  -----------------  -----------------  -----------------
         O           -2.434661911700    -1.444703474682    -0.515221568296    15.994914619570
         O           -2.540694911700     0.838918525318    -0.688061568296    15.994914619570
         C            0.219921088300    -0.171159474682     0.556628431704    12.000000000000
         C            0.895804088300     1.000099525318     0.147438431704    12.000000000000
         C           -1.194947911700    -0.133260474682     1.052254431704    12.000000000000
         C            0.868624088300    -1.406865474682     0.412426431704    12.000000000000
         C            2.208366088300     0.899639525318    -0.329502568296    12.000000000000
         C            0.204241088300     2.337642525318     0.222227431704    12.000000000000
         C            2.172792088300    -1.495236474682    -0.075266568296    12.000000000000
         C            2.853324088300    -0.333994474682    -0.445328568296    12.000000000000
         C           -2.175528911700    -0.260622474682    -0.180372568296    12.000000000000
         H           -1.369714911700    -0.980562474682     1.724062431704     1.007825032230
         H           -1.398405911700     0.796532525318     1.593079431704     1.007825032230
         H            0.318614088300    -2.307870474682     0.677348431704     1.007825032230
         H            2.726795088300     1.807999525318    -0.639029568296     1.007825032230
         H           -0.806186911700     2.244154525318    -0.189421568296     1.007825032230
         H            0.132431388300     2.621910125318     1.070952531704     1.007825032230
         H            0.767486088300     3.092571525318    -0.337589568296     1.007825032230
         H            2.651111088300    -2.468532474682    -0.177716568296     1.007825032230
         H            3.873172088300    -0.386223474682    -0.824007568296     1.007825032230

  Basis Set: AUG-CC-PVTZ
    Blend: AUG-CC-PVTZ
  Basis Set: (AUG-CC-PVTZ AUX)
    Blend: AUG-CC-PVTZ-JKFIT
	 Reference Energy          =    -495.9642252504906423 [Eh]
	 Singles Energy            =      -0.0000000000000000 [Eh]
	 Same-Spin Energy          =      -0.5331082006601333 [Eh]
	 Opposite-Spin Energy      =      -1.6348839555323951 [Eh]
	 Correlation Energy        =      -2.1679921561925282 [Eh]
	 Total Energy              =    -498.1322174066831963 [Eh]

	 ================> DF-SCS-MP2 Energies <==================
	-----------------------------------------------------------
	 SCS Same-Spin Scale       =       0.3333333333333333 [-]
	 SCS Opposite-Spin Scale   =       1.2000000000000000 [-]
	 SCS Same-Spin Energy      =      -0.1777027335533778 [Eh]
	 SCS Opposite-Spin Energy  =      -1.9618607466388740 [Eh]
	 SCS Correlation Energy    =      -2.1395634801922516 [Eh]
	 SCS Total Energy          =    -498.1037887306828793 [Eh]
	-----------------------------------------------------------

  Dipole Moment: [D]
     X:     8.4601      Y:     1.4778      Z:     3.0532     Total:     9.1148

*** Psi4 exiting successfully. Buy a developer a beer!
