                               Psi4 1.4a3.dev225

  ==> Input File <==

--------------------------------------------------------------------------
#psi4
#
memory 32 gb

molecule  {
-1 1
  O       -2.4775990    -1.4732410    -0.5357720
  O       -2.5836320     0.8103810    -0.7086120
  C        0.1769840    -0.1996970     0.5360780
  C        0.8528670     0.9715620     0.1268880
  C       -1.2378850    -0.1617980     1.0317040
  C        0.8256870    -1.4354030     0.3918760
  C        2.1654290     0.8711020    -0.3500530
  C        0.1613040     2.3091050     0.2016770
  C        2.1298550    -1.5237740    -0.0958170
  C        2.8103870    -0.3625320    -0.4658790
  C       -2.2184660    -0.2891600    -0.2009230
  H       -1.4126520    -1.0091000     1.7035120
  H       -1.4413430     0.7679950     1.5725290
  H        0.2756770    -2.3364080     0.6567980
  H        2.6363276     1.6961820    -0.6312021
  H       -0.8491240     2.2156170    -0.2099720
  H        0.0735000     2.6566880     1.2394400
  H        0.7245490     3.0640340    -0.3581400
  H        2.6081740    -2.4970700    -0.1982670
  H        3.8302350    -0.4147610    -0.8445580
units angstrom
no_reorient  #important for SAPT in psi4, default
symmetry c1  #important for SAPT in psi4, default
}

set PROPERTIES_ORIGIN ["COM"]
properties('MP2/aug-cc-pvtz', properties = ['dipole'])
--------------------------------------------------------------------------

    Molecular point group: c1
  Charge       = -1
  Multiplicity = 1
  Basis Set: AUG-CC-PVTZ
    Blend: AUG-CC-PVTZ
  Basis Set: (AUG-CC-PVTZ AUX)
    Blend: AUG-CC-PVTZ-JKFIT

    Orbital Energies [Eh]
    ---------------------

    Doubly Occupied:

       1A    -20.308977     2A    -20.308765     3A    -11.156649
       4A    -11.117316     5A    -11.115969     6A    -11.115230
       7A    -11.111810     8A    -11.106454     9A    -11.102163
      10A    -11.092282    11A    -11.073248    12A     -1.179011
      13A     -1.083164    14A     -1.032328    15A     -0.926265
      16A     -0.910666    17A     -0.822409    18A     -0.787652
      19A     -0.698081    20A     -0.663800    21A     -0.566949
      22A     -0.532760    23A     -0.523157    24A     -0.508067
      25A     -0.461527    26A     -0.455706    27A     -0.439597
      28A     -0.428174    29A     -0.426813    30A     -0.413647
      31A     -0.383832    32A     -0.374971    33A     -0.364055
      34A     -0.352694    35A     -0.332551    36A     -0.234719
      37A     -0.225315    38A     -0.211013    39A     -0.206625
      40A     -0.175695

  @DF-RHF Final Energy:  -495.99164846608437

   => Energetics <=

    Nuclear Repulsion Energy =            572.5777587501639800
    One-Electron Energy =               -1824.4786019321734329
    Two-Electron Energy =                 755.9091947159249685
    Total Energy =                       -495.9916484660843707
  Basis Set: (AUG-CC-PVTZ AUX)
    Blend: AUG-CC-PVTZ-RI
    Molecular point group: c1

    Geometry (in Angstrom), charge = -1, multiplicity = 1:

       Center              X                  Y                   Z               Mass
    ------------   -----------------  -----------------  -----------------  -----------------
         O           -2.434232408993    -1.444568490184    -0.516691558310    15.994914619570
         O           -2.540265408993     0.839053509816    -0.689531558310    15.994914619570
         C            0.220350591007    -0.171024490184     0.555158441690    12.000000000000
         C            0.896233591007     1.000234509816     0.145968441690    12.000000000000
         C           -1.194518408993    -0.133125490184     1.050784441690    12.000000000000
         C            0.869053591007    -1.406730490184     0.410956441690    12.000000000000
         C            2.208795591007     0.899774509816    -0.330972558310    12.000000000000
         C            0.204670591007     2.337777509816     0.220757441690    12.000000000000
         C            2.173221591007    -1.495101490184    -0.076736558310    12.000000000000
         C            2.853753591007    -0.333859490184    -0.446798558310    12.000000000000
         C           -2.175099408993    -0.260487490184    -0.181842558310    12.000000000000
         H           -1.369285408993    -0.980427490184     1.722592441690     1.007825032230
         H           -1.397976408993     0.796667509816     1.591609441690     1.007825032230
         H            0.319043591007    -2.307735490184     0.675878441690     1.007825032230
         H            2.679694191007     1.724854509816    -0.612121658310     1.007825032230
         H           -0.805757408993     2.244289509816    -0.190891558310     1.007825032230
         H            0.116866591007     2.685360509816     1.258520441690     1.007825032230
         H            0.767915591007     3.092706509816    -0.339059558310     1.007825032230
         H            2.651540591007    -2.468397490184    -0.179186558310     1.007825032230
         H            3.873601591007    -0.386088490184    -0.825477558310     1.007825032230

  Basis Set: AUG-CC-PVTZ
    Blend: AUG-CC-PVTZ
  Basis Set: (AUG-CC-PVTZ AUX)
    Blend: AUG-CC-PVTZ-JKFIT
	 Reference Energy          =    -495.9916484660843707 [Eh]
	 Singles Energy            =      -0.0000000000000000 [Eh]
	 Same-Spin Energy          =      -0.5328340971630754 [Eh]
	 Opposite-Spin Energy      =      -1.6349678068286182 [Eh]
	 Correlation Energy        =      -2.1678019039916938 [Eh]
	 Total Energy              =    -498.1594503700760583 [Eh]

	 ================> DF-SCS-MP2 Energies <==================
	-----------------------------------------------------------
	 SCS Same-Spin Scale       =       0.3333333333333333 [-]
	 SCS Opposite-Spin Scale   =       1.2000000000000000 [-]
	 SCS Same-Spin Energy      =      -0.1776113657210251 [Eh]
	 SCS Opposite-Spin Energy  =      -1.9619613681943417 [Eh]
	 SCS Correlation Energy    =      -2.1395727339153670 [Eh]
	 SCS Total Energy          =    -498.1312211999997430 [Eh]
	-----------------------------------------------------------

  Dipole Moment: [D]
     X:     8.5221      Y:     1.4453      Z:     2.9527     Total:     9.1342

*** Psi4 exiting successfully. Buy a developer a beer!
