                               Psi4 1.4a3.dev225

  ==> Input File <==

--------------------------------------------------------------------------
#psi4
#
memory 32 gb

molecule  {
-1 1
  O       -2.4775990    -1.4732410    -0.5357720
  O       -2.5836320     0.8103810    -0.7086120
  C        0.1769840    -0.1996970     0.5360780
  C        0.8528670     0.9715620     0.1268880
  C       -1.2378850    -0.1617980     1.0317040
  C        0.8256870    -1.4354030     0.3918760
  C        2.1654290     0.8711020    -0.3500530
  C        0.1613040     2.3091050     0.2016770
  C        2.1298550    -1.5237740    -0.0958170
  C        2.8103870    -0.3625320    -0.4658790
  C       -2.2126924    -0.3065448    -0.1928959
  H       -1.4126520    -1.0091000     1.7035120
  H       -1.4413430     0.7679950     1.5725290
  H        0.2756770    -2.3364080     0.6567980
  H        2.6838580     1.7794620    -0.6595800
  H       -0.8491240     2.2156170    -0.2099720
  H        0.0735000     2.6566880     1.2394400
  H        0.7245490     3.0640340    -0.3581400
  H        2.6081740    -2.4970700    -0.1982670
  H        3.8302350    -0.4147610    -0.8445580
units angstrom
no_reorient  #important for SAPT in psi4, default
symmetry c1  #important for SAPT in psi4, default
}

set PROPERTIES_ORIGIN ["COM"]
properties('MP2/aug-cc-pvtz', properties = ['dipole'])
--------------------------------------------------------------------------

    Molecular point group: c1
  Charge       = -1
  Multiplicity = 1
  Basis Set: AUG-CC-PVTZ
    Blend: AUG-CC-PVTZ
  Basis Set: (AUG-CC-PVTZ AUX)
    Blend: AUG-CC-PVTZ-JKFIT

    Orbital Energies [Eh]
    ---------------------

    Doubly Occupied:

       1A    -20.312759     2A    -20.304402     3A    -11.156648
       4A    -11.118850     5A    -11.117509     6A    -11.116456
       7A    -11.114911     8A    -11.113183     9A    -11.107580
      10A    -11.091632    11A    -11.074616    12A     -1.179283
      13A     -1.078735    14A     -1.032591    15A     -0.927266
      16A     -0.908369    17A     -0.821834    18A     -0.788522
      19A     -0.690434    20A     -0.664834    21A     -0.562911
      22A     -0.534039    23A     -0.523378    24A     -0.500173
      25A     -0.460759    26A     -0.453639    27A     -0.440057
      28A     -0.428923    29A     -0.425599    30A     -0.412729
      31A     -0.383674    32A     -0.374185    33A     -0.364712
      34A     -0.351532    35A     -0.332382    36A     -0.234635
      37A     -0.224777    38A     -0.210438    39A     -0.206774
      40A     -0.177497

  @DF-RHF Final Energy:  -495.99630110621592

   => Energetics <=

    Nuclear Repulsion Energy =            572.0391904607945435
    One-Electron Energy =               -1823.4245318297828362
    Two-Electron Energy =                 755.3890402627723688
    Total Energy =                       -495.9963011062159239
  Basis Set: (AUG-CC-PVTZ AUX)
    Blend: AUG-CC-PVTZ-RI
    Molecular point group: c1

    Geometry (in Angstrom), charge = -1, multiplicity = 1:

       Center              X                  Y                   Z               Mass
    ------------   -----------------  -----------------  -----------------  -----------------
         O           -2.435018571121    -1.443732010120    -0.517145906401    15.994914619570
         O           -2.541051571121     0.839889989880    -0.689985906401    15.994914619570
         C            0.219564428879    -0.170188010120     0.554704093599    12.000000000000
         C            0.895447428879     1.001070989880     0.145514093599    12.000000000000
         C           -1.195304571121    -0.132289010120     1.050330093599    12.000000000000
         C            0.868267428879    -1.405894010120     0.410502093599    12.000000000000
         C            2.208009428879     0.900610989880    -0.331426906401    12.000000000000
         C            0.203884428879     2.338613989880     0.220303093599    12.000000000000
         C            2.172435428879    -1.494265010120    -0.077190906401    12.000000000000
         C            2.852967428879    -0.333023010120    -0.447252906401    12.000000000000
         C           -2.170111971121    -0.277035810120    -0.174269806401    12.000000000000
         H           -1.370071571121    -0.979591010120     1.722138093599     1.007825032230
         H           -1.398762571121     0.797503989880     1.591155093599     1.007825032230
         H            0.318257428879    -2.306899010120     0.675424093599     1.007825032230
         H            2.726438428879     1.808970989880    -0.640953906401     1.007825032230
         H           -0.806543571121     2.245125989880    -0.191345906401     1.007825032230
         H            0.116080428879     2.686196989880     1.258066093599     1.007825032230
         H            0.767129428879     3.093542989880    -0.339513906401     1.007825032230
         H            2.650754428879    -2.467561010120    -0.179640906401     1.007825032230
         H            3.872815428879    -0.385252010120    -0.825931906401     1.007825032230

  Basis Set: AUG-CC-PVTZ
    Blend: AUG-CC-PVTZ
  Basis Set: (AUG-CC-PVTZ AUX)
    Blend: AUG-CC-PVTZ-JKFIT
	 Reference Energy          =    -495.9963011062159239 [Eh]
	 Singles Energy            =      -0.0000000000000000 [Eh]
	 Same-Spin Energy          =      -0.5330981863351202 [Eh]
	 Opposite-Spin Energy      =      -1.6357434805528281 [Eh]
	 Correlation Energy        =      -2.1688416668879484 [Eh]
	 Total Energy              =    -498.1651427731038666 [Eh]

	 ================> DF-SCS-MP2 Energies <==================
	-----------------------------------------------------------
	 SCS Same-Spin Scale       =       0.3333333333333333 [-]
	 SCS Opposite-Spin Scale   =       1.2000000000000000 [-]
	 SCS Same-Spin Energy      =      -0.1776993954450400 [Eh]
	 SCS Opposite-Spin Energy  =      -1.9628921766633938 [Eh]
	 SCS Correlation Energy    =      -2.1405915721084336 [Eh]
	 SCS Total Energy          =    -498.1368926783243296 [Eh]
	-----------------------------------------------------------

  Dipole Moment: [D]
     X:     8.5467      Y:     1.2181      Z:     3.0190     Total:     9.1457

*** Psi4 exiting successfully. Buy a developer a beer!
