                               Psi4 1.4a3.dev225

  ==> Input File <==

--------------------------------------------------------------------------
#psi4
#
memory 32 gb

molecule  {
-1 1
  O       -2.4775990    -1.4732410    -0.5357720
  O       -2.5836320     0.8103810    -0.7086120
  C        0.1769840    -0.1996970     0.5360780
  C        0.8528670     0.9715620     0.1268880
  C       -1.2378850    -0.1617980     1.0317040
  C        0.8256870    -1.4354030     0.3918760
  C        2.1654290     0.8711020    -0.3500530
  C        0.1613040     2.3091050     0.2016770
  C        2.1271844    -1.5722284    -0.0917473
  C        2.8103870    -0.3625320    -0.4658790
  C       -2.2184660    -0.2891600    -0.2009230
  H       -1.4126520    -1.0091000     1.7035120
  H       -1.4413430     0.7679950     1.5725290
  H        0.2756770    -2.3364080     0.6567980
  H        2.6838580     1.7794620    -0.6595800
  H       -0.8491240     2.2156170    -0.2099720
  H        0.0735000     2.6566880     1.2394400
  H        0.7245490     3.0640340    -0.3581400
  H        2.6081740    -2.4970700    -0.1982670
  H        3.8302350    -0.4147610    -0.8445580
units angstrom
no_reorient  #important for SAPT in psi4, default
symmetry c1  #important for SAPT in psi4, default
}

set PROPERTIES_ORIGIN ["COM"]
properties('MP2/aug-cc-pvtz', properties = ['dipole'])
--------------------------------------------------------------------------

    Molecular point group: c1
  Charge       = -1
  Multiplicity = 1
  Basis Set: AUG-CC-PVTZ
    Blend: AUG-CC-PVTZ
  Basis Set: (AUG-CC-PVTZ AUX)
    Blend: AUG-CC-PVTZ-JKFIT

    Orbital Energies [Eh]
    ---------------------

    Doubly Occupied:

       1A    -20.309132     2A    -20.308910     3A    -11.156817
       4A    -11.122959     5A    -11.117826     6A    -11.117094
       7A    -11.115317     8A    -11.112867     9A    -11.108126
      10A    -11.092499    11A    -11.073881    12A     -1.179171
      13A     -1.083317    14A     -1.029066    15A     -0.923474
      16A     -0.908175    17A     -0.822640    18A     -0.786148
      19A     -0.687842    20A     -0.668710    21A     -0.564018
      22A     -0.532653    23A     -0.521006    24A     -0.502723
      25A     -0.461305    26A     -0.458869    27A     -0.438682
      28A     -0.427394    29A     -0.426095    30A     -0.411835
      31A     -0.385368    32A     -0.371797    33A     -0.361179
      34A     -0.352666    35A     -0.333534    36A     -0.234034
      37A     -0.225456    38A     -0.211817    39A     -0.207871
      40A     -0.174107

  @DF-RHF Final Energy:  -495.99370793965056

   => Energetics <=

    Nuclear Repulsion Energy =            571.2777192629055207
    One-Electron Energy =               -1821.8900938273386600
    Two-Electron Energy =                 754.6186666247825769
    Total Energy =                       -495.9937079396505624
  Basis Set: (AUG-CC-PVTZ AUX)
    Blend: AUG-CC-PVTZ-RI
    Molecular point group: c1

    Geometry (in Angstrom), charge = -1, multiplicity = 1:

       Center              X                  Y                   Z               Mass
    ------------   -----------------  -----------------  -----------------  -----------------
         O           -2.434338776227    -1.441230771938    -0.516827318457    15.994914619570
         O           -2.540371776227     0.842391228062    -0.689667318457    15.994914619570
         C            0.220244223773    -0.167686771938     0.555022681543    12.000000000000
         C            0.896127223773     1.003572228062     0.145832681543    12.000000000000
         C           -1.194624776227    -0.129787771938     1.050648681543    12.000000000000
         C            0.868947223773    -1.403392771938     0.410820681543    12.000000000000
         C            2.208689223773     0.903112228062    -0.331108318457    12.000000000000
         C            0.204564223773     2.341115228062     0.220621681543    12.000000000000
         C            2.170444623773    -1.540218171938    -0.072802618457    12.000000000000
         C            2.853647223773    -0.330521771938    -0.446934318457    12.000000000000
         C           -2.175205776227    -0.257149771938    -0.181978318457    12.000000000000
         H           -1.369391776227    -0.977089771938     1.722456681543     1.007825032230
         H           -1.398082776227     0.800005228062     1.591473681543     1.007825032230
         H            0.318937223773    -2.304397771938     0.675742681543     1.007825032230
         H            2.727118223773     1.811472228062    -0.640635318457     1.007825032230
         H           -0.805863776227     2.247627228062    -0.191027318457     1.007825032230
         H            0.116760223773     2.688698228062     1.258384681543     1.007825032230
         H            0.767809223773     3.096044228062    -0.339195318457     1.007825032230
         H            2.651434223773    -2.465059771938    -0.179322318457     1.007825032230
         H            3.873495223773    -0.382750771938    -0.825613318457     1.007825032230

  Basis Set: AUG-CC-PVTZ
    Blend: AUG-CC-PVTZ
  Basis Set: (AUG-CC-PVTZ AUX)
    Blend: AUG-CC-PVTZ-JKFIT
	 Reference Energy          =    -495.9937079396505624 [Eh]
	 Singles Energy            =      -0.0000000000000000 [Eh]
	 Same-Spin Energy          =      -0.5330468727178901 [Eh]
	 Opposite-Spin Energy      =      -1.6359840302274362 [Eh]
	 Correlation Energy        =      -2.1690309029453263 [Eh]
	 Total Energy              =    -498.1627388425958998 [Eh]

	 ================> DF-SCS-MP2 Energies <==================
	-----------------------------------------------------------
	 SCS Same-Spin Scale       =       0.3333333333333333 [-]
	 SCS Opposite-Spin Scale   =       1.2000000000000000 [-]
	 SCS Same-Spin Energy      =      -0.1776822909059634 [Eh]
	 SCS Opposite-Spin Energy  =      -1.9631808362729233 [Eh]
	 SCS Correlation Energy    =      -2.1408631271788865 [Eh]
	 SCS Total Energy          =    -498.1345710668294373 [Eh]
	-----------------------------------------------------------

  Dipole Moment: [D]
     X:     8.4767      Y:     1.3653      Z:     2.9728     Total:     9.0861

*** Psi4 exiting successfully. Buy a developer a beer!
