                               Psi4 1.4a3.dev225

  ==> Input File <==

--------------------------------------------------------------------------
#psi4
#
memory 32 gb

molecule  {
-1 1
  O       -2.4775990    -1.4732410    -0.5357720
  O       -2.5836320     0.8103810    -0.7086120
  C        0.1769840    -0.1996970     0.5360780
  C        0.7290307     1.0452762     0.1600617
  C       -1.2378850    -0.1617980     1.0317040
  C        0.8256870    -1.4354030     0.3918760
  C        2.1654290     0.8711020    -0.3500530
  C        0.1613040     2.3091050     0.2016770
  C        2.1298550    -1.5237740    -0.0958170
  C        2.8103870    -0.3625320    -0.4658790
  C       -2.2184660    -0.2891600    -0.2009230
  H       -1.4126520    -1.0091000     1.7035120
  H       -1.4413430     0.7679950     1.5725290
  H        0.2756770    -2.3364080     0.6567980
  H        2.6838580     1.7794620    -0.6595800
  H       -0.8491240     2.2156170    -0.2099720
  H        0.0735000     2.6566880     1.2394400
  H        0.7245490     3.0640340    -0.3581400
  H        2.6081740    -2.4970700    -0.1982670
  H        3.8302350    -0.4147610    -0.8445580
units angstrom
no_reorient  #important for SAPT in psi4, default
symmetry c1  #important for SAPT in psi4, default
}

set PROPERTIES_ORIGIN ["COM"]
properties('MP2/aug-cc-pvtz', properties = ['dipole'])
--------------------------------------------------------------------------

    Molecular point group: c1
  Charge       = -1
  Multiplicity = 1
  Basis Set: AUG-CC-PVTZ
    Blend: AUG-CC-PVTZ
  Basis Set: (AUG-CC-PVTZ AUX)
    Blend: AUG-CC-PVTZ-JKFIT

    Orbital Energies [Eh]
    ---------------------

    Doubly Occupied:

       1A    -20.308818     2A    -20.308007     3A    -11.155583
       4A    -11.126546     5A    -11.125535     6A    -11.118857
       7A    -11.115579     8A    -11.111661     9A    -11.109500
      10A    -11.089905    11A    -11.069744    12A     -1.178541
      13A     -1.082769    14A     -1.025852    15A     -0.943329
      16A     -0.905067    17A     -0.828626    18A     -0.780894
      19A     -0.691497    20A     -0.652741    21A     -0.560954
      22A     -0.533646    23A     -0.523910    24A     -0.507528
      25A     -0.470808    26A     -0.450048    27A     -0.448333
      28A     -0.431969    29A     -0.426905    30A     -0.415757
      31A     -0.392895    32A     -0.365569    33A     -0.361600
      34A     -0.356598    35A     -0.316472    36A     -0.236044
      37A     -0.224728    38A     -0.209956    39A     -0.195013
      40A     -0.173563

  @DF-RHF Final Energy:  -495.96732352869179

   => Energetics <=

    Nuclear Repulsion Energy =            571.8146871832128681
    One-Electron Energy =               -1822.9013230762548119
    Two-Electron Energy =                 755.1193123643503213
    Total Energy =                       -495.9673235286917361
  Basis Set: (AUG-CC-PVTZ AUX)
    Blend: AUG-CC-PVTZ-RI
    Molecular point group: c1

    Geometry (in Angstrom), charge = -1, multiplicity = 1:

       Center              X                  Y                   Z               Mass
    ------------   -----------------  -----------------  -----------------  -----------------
         O           -2.424584409413    -1.451065876571    -0.519170317274    15.994914619570
         O           -2.530617409413     0.832556123429    -0.692010317274    15.994914619570
         C            0.229998590587    -0.177521876571     0.552679682726    12.000000000000
         C            0.782045290587     1.067451323429     0.176663382726    12.000000000000
         C           -1.184870409413    -0.139622876571     1.048305682726    12.000000000000
         C            0.878701590587    -1.413227876571     0.408477682726    12.000000000000
         C            2.218443590587     0.893277123429    -0.333451317274    12.000000000000
         C            0.214318590587     2.331280123429     0.218278682726    12.000000000000
         C            2.182869590587    -1.501598876571    -0.079215317274    12.000000000000
         C            2.863401590587    -0.340356876571    -0.449277317274    12.000000000000
         C           -2.165451409413    -0.266984876571    -0.184321317274    12.000000000000
         H           -1.359637409413    -0.986924876571     1.720113682726     1.007825032230
         H           -1.388328409413     0.790170123429     1.589130682726     1.007825032230
         H            0.328691590587    -2.314232876571     0.673399682726     1.007825032230
         H            2.736872590587     1.801637123429    -0.642978317274     1.007825032230
         H           -0.796109409413     2.237792123429    -0.193370317274     1.007825032230
         H            0.126514590587     2.678863123429     1.256041682726     1.007825032230
         H            0.777563590587     3.086209123429    -0.341538317274     1.007825032230
         H            2.661188590587    -2.474894876571    -0.181665317274     1.007825032230
         H            3.883249590587    -0.392585876571    -0.827956317274     1.007825032230

  Basis Set: AUG-CC-PVTZ
    Blend: AUG-CC-PVTZ
  Basis Set: (AUG-CC-PVTZ AUX)
    Blend: AUG-CC-PVTZ-JKFIT
	 Reference Energy          =    -495.9673235286917929 [Eh]
	 Singles Energy            =      -0.0000000000000000 [Eh]
	 Same-Spin Energy          =      -0.5349866127428050 [Eh]
	 Opposite-Spin Energy      =      -1.6388717892435976 [Eh]
	 Correlation Energy        =      -2.1738584019864025 [Eh]
	 Total Energy              =    -498.1411819306782149 [Eh]

	 ================> DF-SCS-MP2 Energies <==================
	-----------------------------------------------------------
	 SCS Same-Spin Scale       =       0.3333333333333333 [-]
	 SCS Opposite-Spin Scale   =       1.2000000000000000 [-]
	 SCS Same-Spin Energy      =      -0.1783288709142683 [Eh]
	 SCS Opposite-Spin Energy  =      -1.9666461470923169 [Eh]
	 SCS Correlation Energy    =      -2.1449750180065852 [Eh]
	 SCS Total Energy          =    -498.1122985466983550 [Eh]
	-----------------------------------------------------------

  Dipole Moment: [D]
     X:     8.3987      Y:     1.5999      Z:     2.9866     Total:     9.0563

*** Psi4 exiting successfully. Buy a developer a beer!
