                               Psi4 1.4a3.dev225

  ==> Input File <==

--------------------------------------------------------------------------
#psi4
#
memory 32 gb

molecule  {
-1 1
  O       -2.4775990    -1.4732410    -0.5357720
  O       -2.5836320     0.8103810    -0.7086120
  C        0.1769840    -0.1996970     0.5360780
  C        0.8528670     0.9715620     0.1268880
  C       -1.2378850    -0.1617980     1.0317040
  C        0.8256870    -1.4354030     0.3918760
  C        2.1654290     0.8711020    -0.3500530
  C        0.1613040     2.3091050     0.2016770
  C        2.1298550    -1.5237740    -0.0958170
  C        2.8859658    -0.4188081    -0.4906579
  C       -2.2184660    -0.2891600    -0.2009230
  H       -1.4126520    -1.0091000     1.7035120
  H       -1.4413430     0.7679950     1.5725290
  H        0.2756770    -2.3364080     0.6567980
  H        2.6838580     1.7794620    -0.6595800
  H       -0.8491240     2.2156170    -0.2099720
  H        0.0735000     2.6566880     1.2394400
  H        0.7245490     3.0640340    -0.3581400
  H        2.6081740    -2.4970700    -0.1982670
  H        3.8302350    -0.4147610    -0.8445580
units angstrom
no_reorient  #important for SAPT in psi4, default
symmetry c1  #important for SAPT in psi4, default
}

set PROPERTIES_ORIGIN ["COM"]
properties('MP2/aug-cc-pvtz', properties = ['dipole'])
--------------------------------------------------------------------------

    Molecular point group: c1
  Charge       = -1
  Multiplicity = 1
  Basis Set: AUG-CC-PVTZ
    Blend: AUG-CC-PVTZ
  Basis Set: (AUG-CC-PVTZ AUX)
    Blend: AUG-CC-PVTZ-JKFIT

    Orbital Energies [Eh]
    ---------------------

    Doubly Occupied:

       1A    -20.310049     2A    -20.309800     3A    -11.158010
       4A    -11.123574     5A    -11.119837     6A    -11.118599
       7A    -11.117811     8A    -11.115892     9A    -11.106328
      10A    -11.092658    11A    -11.074881    12A     -1.180077
      13A     -1.084201    14A     -1.026183    15A     -0.927236
      16A     -0.902930    17A     -0.817046    18A     -0.792001
      19A     -0.690948    20A     -0.668676    21A     -0.563204
      22A     -0.537864    23A     -0.519947    24A     -0.505371
      25A     -0.462216    26A     -0.453776    27A     -0.440059
      28A     -0.428616    29A     -0.425181    30A     -0.412444
      31A     -0.384525    32A     -0.379555    33A     -0.359131
      34A     -0.345691    35A     -0.334063    36A     -0.234010
      37A     -0.226208    38A     -0.211396    39A     -0.205544
      40A     -0.176442

  @DF-RHF Final Energy:  -495.98413294377610

   => Energetics <=

    Nuclear Repulsion Energy =            570.3375004854653980
    One-Electron Energy =               -1819.9593095372197240
    Two-Electron Energy =                 753.6376761079782227
    Total Energy =                       -495.9841329437761033
  Basis Set: (AUG-CC-PVTZ AUX)
    Blend: AUG-CC-PVTZ-RI
    Molecular point group: c1

    Geometry (in Angstrom), charge = -1, multiplicity = 1:

       Center              X                  Y                   Z               Mass
    ------------   -----------------  -----------------  -----------------  -----------------
         O           -2.440638193888    -1.440601091006    -0.514504880453    15.994914619570
         O           -2.546671193888     0.843020908994    -0.687344880453    15.994914619570
         C            0.213944806112    -0.167057091006     0.557345119547    12.000000000000
         C            0.889827806112     1.004201908994     0.148155119547    12.000000000000
         C           -1.200924193888    -0.129158091006     1.052971119547    12.000000000000
         C            0.862647806112    -1.402763091006     0.413143119547    12.000000000000
         C            2.202389806112     0.903741908994    -0.328785880453    12.000000000000
         C            0.198264806112     2.341744908994     0.222944119547    12.000000000000
         C            2.166815806112    -1.491134091006    -0.074549880453    12.000000000000
         C            2.922926606112    -0.386168191006    -0.469390780453    12.000000000000
         C           -2.181505193888    -0.256520091006    -0.179655880453    12.000000000000
         H           -1.375691193888    -0.976460091006     1.724779119547     1.007825032230
         H           -1.404382193888     0.800634908994     1.593796119547     1.007825032230
         H            0.312637806112    -2.303768091006     0.678065119547     1.007825032230
         H            2.720818806112     1.812101908994    -0.638312880453     1.007825032230
         H           -0.812163193888     2.248256908994    -0.188704880453     1.007825032230
         H            0.110460806112     2.689327908994     1.260707119547     1.007825032230
         H            0.761509806112     3.096673908994    -0.336872880453     1.007825032230
         H            2.645134806112    -2.464430091006    -0.176999880453     1.007825032230
         H            3.867195806112    -0.382121091006    -0.823290880453     1.007825032230

  Basis Set: AUG-CC-PVTZ
    Blend: AUG-CC-PVTZ
  Basis Set: (AUG-CC-PVTZ AUX)
    Blend: AUG-CC-PVTZ-JKFIT
	 Reference Energy          =    -495.9841329437761033 [Eh]
	 Singles Energy            =      -0.0000000000000000 [Eh]
	 Same-Spin Energy          =      -0.5330617007696328 [Eh]
	 Opposite-Spin Energy      =      -1.6366925936368359 [Eh]
	 Correlation Energy        =      -2.1697542944064687 [Eh]
	 Total Energy              =    -498.1538872381825627 [Eh]

	 ================> DF-SCS-MP2 Energies <==================
	-----------------------------------------------------------
	 SCS Same-Spin Scale       =       0.3333333333333333 [-]
	 SCS Opposite-Spin Scale   =       1.2000000000000000 [-]
	 SCS Same-Spin Energy      =      -0.1776872335898776 [Eh]
	 SCS Opposite-Spin Energy  =      -1.9640311123642031 [Eh]
	 SCS Correlation Energy    =      -2.1417183459540805 [Eh]
	 SCS Total Energy          =    -498.1258512897301785 [Eh]
	-----------------------------------------------------------

  Dipole Moment: [D]
     X:     8.4549      Y:     1.3912      Z:     2.9627     Total:     9.0664

*** Psi4 exiting successfully. Buy a developer a beer!
