                               Psi4 1.4a3.dev225

  ==> Input File <==

--------------------------------------------------------------------------
#psi4
#
memory 32 gb

molecule  {
-1 1
  O       -2.4775990    -1.4732410    -0.5357720
  O       -2.5836320     0.8103810    -0.7086120
  C        0.1769840    -0.1996970     0.5360780
  C        0.8528670     0.9715620     0.1268880
  C       -1.2378850    -0.1617980     1.0317040
  C        0.8256870    -1.4354030     0.3918760
  C        2.1654290     0.8711020    -0.3500530
  C        0.1613040     2.3091050     0.2016770
  C        2.1298550    -1.5237740    -0.0958170
  C        2.8103870    -0.3625320    -0.4658790
  C       -2.2040319    -0.3326220    -0.1808554
  H       -1.4126520    -1.0091000     1.7035120
  H       -1.4413430     0.7679950     1.5725290
  H        0.2756770    -2.3364080     0.6567980
  H        2.6838580     1.7794620    -0.6595800
  H       -0.8491240     2.2156170    -0.2099720
  H        0.0735000     2.6566880     1.2394400
  H        0.7245490     3.0640340    -0.3581400
  H        2.6081740    -2.4970700    -0.1982670
  H        3.8302350    -0.4147610    -0.8445580
units angstrom
no_reorient  #important for SAPT in psi4, default
symmetry c1  #important for SAPT in psi4, default
}

set PROPERTIES_ORIGIN ["COM"]
properties('MP2/aug-cc-pvtz', properties = ['dipole'])
--------------------------------------------------------------------------

    Molecular point group: c1
  Charge       = -1
  Multiplicity = 1
  Basis Set: AUG-CC-PVTZ
    Blend: AUG-CC-PVTZ
  Basis Set: (AUG-CC-PVTZ AUX)
    Blend: AUG-CC-PVTZ-JKFIT

    Orbital Energies [Eh]
    ---------------------

    Doubly Occupied:

       1A    -20.318388     2A    -20.297353     3A    -11.156065
       4A    -11.119433     5A    -11.117950     6A    -11.116984
       7A    -11.115220     8A    -11.113856     9A    -11.108452
      10A    -11.090768    11A    -11.075912    12A     -1.184922
      13A     -1.067421    14A     -1.033022    15A     -0.927766
      16A     -0.909219    17A     -0.822933    18A     -0.789522
      19A     -0.691267    20A     -0.665591    21A     -0.563794
      22A     -0.535855    23A     -0.523576    24A     -0.500881
      25A     -0.460556    26A     -0.454224    27A     -0.440695
      28A     -0.430109    29A     -0.425548    30A     -0.413149
      31A     -0.382675    32A     -0.373917    33A     -0.364815
      34A     -0.351174    35A     -0.332719    36A     -0.235254
      37A     -0.220889    38A     -0.209670    39A     -0.204460
      40A     -0.178833

  @DF-RHF Final Energy:  -495.99295478926268

   => Energetics <=

    Nuclear Repulsion Energy =            572.0803205135412099
    One-Electron Energy =               -1823.4968755788781891
    Two-Electron Energy =                 755.4236002760743531
    Total Energy =                       -495.9929547892626260
  Basis Set: (AUG-CC-PVTZ AUX)
    Blend: AUG-CC-PVTZ-RI
    Molecular point group: c1

    Geometry (in Angstrom), charge = -1, multiplicity = 1:

       Center              X                  Y                   Z               Mass
    ------------   -----------------  -----------------  -----------------  -----------------
         O           -2.435715779108    -1.441632681892    -0.518115219116    15.994914619570
         O           -2.541748779108     0.841989318108    -0.690955219116    15.994914619570
         C            0.218867220892    -0.168088681892     0.553734780884    12.000000000000
         C            0.894750220892     1.003170318108     0.144544780884    12.000000000000
         C           -1.196001779108    -0.130189681892     1.049360780884    12.000000000000
         C            0.867570220892    -1.403794681892     0.409532780884    12.000000000000
         C            2.207312220892     0.902710318108    -0.332396219116    12.000000000000
         C            0.203187220892     2.340713318108     0.219333780884    12.000000000000
         C            2.171738220892    -1.492165681892    -0.078160219116    12.000000000000
         C            2.852270220892    -0.330923681892    -0.448222219116    12.000000000000
         C           -2.162148679108    -0.301013681892    -0.163198619116    12.000000000000
         H           -1.370768779108    -0.977491681892     1.721168780884     1.007825032230
         H           -1.399459779108     0.799603318108     1.590185780884     1.007825032230
         H            0.317560220892    -2.304799681892     0.674454780884     1.007825032230
         H            2.725741220892     1.811070318108    -0.641923219116     1.007825032230
         H           -0.807240779108     2.247225318108    -0.192315219116     1.007825032230
         H            0.115383220892     2.688296318108     1.257096780884     1.007825032230
         H            0.766432220892     3.095642318108    -0.340483219116     1.007825032230
         H            2.650057220892    -2.465461681892    -0.180610219116     1.007825032230
         H            3.872118220892    -0.383152681892    -0.826901219116     1.007825032230

  Basis Set: AUG-CC-PVTZ
    Blend: AUG-CC-PVTZ
  Basis Set: (AUG-CC-PVTZ AUX)
    Blend: AUG-CC-PVTZ-JKFIT
	 Reference Energy          =    -495.9929547892626829 [Eh]
	 Singles Energy            =      -0.0000000000000000 [Eh]
	 Same-Spin Energy          =      -0.5332327804843237 [Eh]
	 Opposite-Spin Energy      =      -1.6361133375788444 [Eh]
	 Correlation Energy        =      -2.1693461180631681 [Eh]
	 Total Energy              =    -498.1623009073258572 [Eh]

	 ================> DF-SCS-MP2 Energies <==================
	-----------------------------------------------------------
	 SCS Same-Spin Scale       =       0.3333333333333333 [-]
	 SCS Opposite-Spin Scale   =       1.2000000000000000 [-]
	 SCS Same-Spin Energy      =      -0.1777442601614412 [Eh]
	 SCS Opposite-Spin Energy  =      -1.9633360050946131 [Eh]
	 SCS Correlation Energy    =      -2.1410802652560545 [Eh]
	 SCS Total Energy          =    -498.1340350545187334 [Eh]
	-----------------------------------------------------------

  Dipole Moment: [D]
     X:     8.6394      Y:     0.9588      Z:     3.0921     Total:     9.2260

*** Psi4 exiting successfully. Buy a developer a beer!
