                               Psi4 1.4a3.dev225

  ==> Input File <==

--------------------------------------------------------------------------
#psi4
#
memory 32 gb

molecule  {
-1 1
  O       -2.4775990    -1.4732410    -0.5357720
  O       -2.5836320     0.8103810    -0.7086120
  C        0.1769840    -0.1996970     0.5360780
  C        0.8528670     0.9715620     0.1268880
  C       -1.2378850    -0.1617980     1.0317040
  C        0.8256870    -1.4354030     0.3918760
  C        2.1654290     0.8711020    -0.3500530
  C        0.1613040     2.3091050     0.2016770
  C        2.1287181    -1.5480183    -0.0938561
  C        2.8103870    -0.3625320    -0.4658790
  C       -2.2184660    -0.2891600    -0.2009230
  H       -1.4126520    -1.0091000     1.7035120
  H       -1.4413430     0.7679950     1.5725290
  H        0.2756770    -2.3364080     0.6567980
  H        2.6838580     1.7794620    -0.6595800
  H       -0.8491240     2.2156170    -0.2099720
  H        0.0735000     2.6566880     1.2394400
  H        0.7245490     3.0640340    -0.3581400
  H        2.6081740    -2.4970700    -0.1982670
  H        3.8302350    -0.4147610    -0.8445580
units angstrom
no_reorient  #important for SAPT in psi4, default
symmetry c1  #important for SAPT in psi4, default
}

set PROPERTIES_ORIGIN ["COM"]
properties('MP2/aug-cc-pvtz', properties = ['dipole'])
--------------------------------------------------------------------------

    Molecular point group: c1
  Charge       = -1
  Multiplicity = 1
  Basis Set: AUG-CC-PVTZ
    Blend: AUG-CC-PVTZ
  Basis Set: (AUG-CC-PVTZ AUX)
    Blend: AUG-CC-PVTZ-JKFIT

    Orbital Energies [Eh]
    ---------------------

    Doubly Occupied:

       1A    -20.309162     2A    -20.308964     3A    -11.156870
       4A    -11.120685     5A    -11.117498     6A    -11.116600
       7A    -11.115001     8A    -11.112781     9A    -11.107506
      10A    -11.092347    11A    -11.073794    12A     -1.179212
      13A     -1.083357    14A     -1.030567    15A     -0.925118
      16A     -0.907983    17A     -0.821868    18A     -0.786927
      19A     -0.688810    20A     -0.666474    21A     -0.563079
      22A     -0.532880    23A     -0.522035    24A     -0.501149
      25A     -0.461291    26A     -0.456009    27A     -0.439428
      28A     -0.427898    29A     -0.426106    30A     -0.412171
      31A     -0.384855    32A     -0.373245    33A     -0.362871
      34A     -0.352348    35A     -0.333326    36A     -0.234560
      37A     -0.225511    38A     -0.211548    39A     -0.207517
      40A     -0.175175

  @DF-RHF Final Energy:  -495.99624627612104

   => Energetics <=

    Nuclear Repulsion Energy =            571.6453659851587190
    One-Electron Energy =               -1822.6341726752712020
    Two-Electron Energy =                 754.9925604139915549
    Total Energy =                       -495.9962462761210418
  Basis Set: (AUG-CC-PVTZ AUX)
    Blend: AUG-CC-PVTZ-RI
    Molecular point group: c1

    Geometry (in Angstrom), charge = -1, multiplicity = 1:

       Center              X                  Y                   Z               Mass
    ------------   -----------------  -----------------  -----------------  -----------------
         O           -2.434462245760    -1.443179790480    -0.516657550868    15.994914619570
         O           -2.540495245760     0.840442209520    -0.689497550868    15.994914619570
         C            0.220120754240    -0.169635790480     0.555192449132    12.000000000000
         C            0.896003754240     1.001623209520     0.146002449132    12.000000000000
         C           -1.194748245760    -0.131736790480     1.050818449132    12.000000000000
         C            0.868823754240    -1.405341790480     0.410990449132    12.000000000000
         C            2.208565754240     0.901163209520    -0.330938550868    12.000000000000
         C            0.204440754240     2.339166209520     0.220791449132    12.000000000000
         C            2.171854854240    -1.517957090480    -0.074741650868    12.000000000000
         C            2.853523754240    -0.332470790480    -0.446764550868    12.000000000000
         C           -2.175329245760    -0.259098790480    -0.181808550868    12.000000000000
         H           -1.369515245760    -0.979038790480     1.722626449132     1.007825032230
         H           -1.398206245760     0.798056209520     1.591643449132     1.007825032230
         H            0.318813754240    -2.306346790480     0.675912449132     1.007825032230
         H            2.726994754240     1.809523209520    -0.640465550868     1.007825032230
         H           -0.805987245760     2.245678209520    -0.190857550868     1.007825032230
         H            0.116636754240     2.686749209520     1.258554449132     1.007825032230
         H            0.767685754240     3.094095209520    -0.339025550868     1.007825032230
         H            2.651310754240    -2.467008790480    -0.179152550868     1.007825032230
         H            3.873371754240    -0.384699790480    -0.825443550868     1.007825032230

  Basis Set: AUG-CC-PVTZ
    Blend: AUG-CC-PVTZ
  Basis Set: (AUG-CC-PVTZ AUX)
    Blend: AUG-CC-PVTZ-JKFIT
	 Reference Energy          =    -495.9962462761210418 [Eh]
	 Singles Energy            =      -0.0000000000000000 [Eh]
	 Same-Spin Energy          =      -0.5330227391139433 [Eh]
	 Opposite-Spin Energy      =      -1.6357056919378701 [Eh]
	 Correlation Energy        =      -2.1687284310518136 [Eh]
	 Total Energy              =    -498.1649747071728598 [Eh]

	 ================> DF-SCS-MP2 Energies <==================
	-----------------------------------------------------------
	 SCS Same-Spin Scale       =       0.3333333333333333 [-]
	 SCS Opposite-Spin Scale   =       1.2000000000000000 [-]
	 SCS Same-Spin Energy      =      -0.1776742463713144 [Eh]
	 SCS Opposite-Spin Energy  =      -1.9628468303254440 [Eh]
	 SCS Correlation Energy    =      -2.1405210766967584 [Eh]
	 SCS Total Energy          =    -498.1367673528177988 [Eh]
	-----------------------------------------------------------

  Dipole Moment: [D]
     X:     8.4809      Y:     1.3774      Z:     2.9709     Total:     9.0911

*** Psi4 exiting successfully. Buy a developer a beer!
