                               Psi4 1.4a3.dev225

  ==> Input File <==

--------------------------------------------------------------------------
#psi4
#
memory 32 gb

molecule  {
-1 1
  O       -2.4775990    -1.4732410    -0.5357720
  O       -2.5836320     0.8103810    -0.7086120
  C        0.1769840    -0.1996970     0.5360780
  C        0.8528670     0.9715620     0.1268880
  C       -1.2378850    -0.1617980     1.0317040
  C        0.8256870    -1.4354030     0.3918760
  C        2.1654290     0.8711020    -0.3500530
  C        0.1613040     2.3091050     0.2016770
  C        2.1298550    -1.5237740    -0.0958170
  C        2.8103870    -0.3625320    -0.4658790
  C       -2.2184660    -0.2891600    -0.2009230
  H       -1.4126520    -1.0091000     1.7035120
  H       -1.4413430     0.7679950     1.5725290
  H        0.2756770    -2.3364080     0.6567980
  H        2.7789189     1.9460219    -0.7163359
  H       -0.8491240     2.2156170    -0.2099720
  H        0.0735000     2.6566880     1.2394400
  H        0.7245490     3.0640340    -0.3581400
  H        2.6081740    -2.4970700    -0.1982670
  H        3.8302350    -0.4147610    -0.8445580
units angstrom
no_reorient  #important for SAPT in psi4, default
symmetry c1  #important for SAPT in psi4, default
}

set PROPERTIES_ORIGIN ["COM"]
properties('MP2/aug-cc-pvtz', properties = ['dipole'])
--------------------------------------------------------------------------

    Molecular point group: c1
  Charge       = -1
  Multiplicity = 1
  Basis Set: AUG-CC-PVTZ
    Blend: AUG-CC-PVTZ
  Basis Set: (AUG-CC-PVTZ AUX)
    Blend: AUG-CC-PVTZ-JKFIT

    Orbital Energies [Eh]
    ---------------------

    Doubly Occupied:

       1A    -20.309894     2A    -20.309813     3A    -11.157775
       4A    -11.138316     5A    -11.121415     6A    -11.120284
       7A    -11.118422     8A    -11.115218     9A    -11.108693
      10A    -11.092263    11A    -11.075055    12A     -1.180021
      13A     -1.084145    14A     -1.033618    15A     -0.928851
      16A     -0.905501    17A     -0.820549    18A     -0.788940
      19A     -0.680699    20A     -0.665865    21A     -0.557986
      22A     -0.534221    23A     -0.524618    24A     -0.487482
      25A     -0.461773    26A     -0.447000    27A     -0.439956
      28A     -0.429353    29A     -0.423894    30A     -0.406941
      31A     -0.385713    32A     -0.373760    33A     -0.366474
      34A     -0.347265    35A     -0.333672    36A     -0.236529
      37A     -0.226367    38A     -0.212625    39A     -0.208728
      40A     -0.177780

  @DF-RHF Final Energy:  -495.97543085246195

   => Energetics <=

    Nuclear Repulsion Energy =            571.0791412694733253
    One-Electron Energy =               -1821.4341927819320972
    Two-Electron Energy =                 754.3796206599969310
    Total Energy =                       -495.9754308524619546
  Basis Set: (AUG-CC-PVTZ AUX)
    Blend: AUG-CC-PVTZ-RI
    Molecular point group: c1

    Geometry (in Angstrom), charge = -1, multiplicity = 1:

       Center              X                  Y                   Z               Mass
    ------------   -----------------  -----------------  -----------------  -----------------
         O           -2.435196496181    -1.446257705770    -0.516115952325    15.994914619570
         O           -2.541229496181     0.837364294230    -0.688955952325    15.994914619570
         C            0.219386503819    -0.172713705770     0.555734047675    12.000000000000
         C            0.895269503819     0.998545294230     0.146544047675    12.000000000000
         C           -1.195482496181    -0.134814705770     1.051360047675    12.000000000000
         C            0.868089503819    -1.408419705770     0.411532047675    12.000000000000
         C            2.207831503819     0.898085294230    -0.330396952325    12.000000000000
         C            0.203706503819     2.336088294230     0.221333047675    12.000000000000
         C            2.172257503819    -1.496790705770    -0.076160952325    12.000000000000
         C            2.852789503819    -0.335548705770    -0.446222952325    12.000000000000
         C           -2.176063496181    -0.262176705770    -0.181266952325    12.000000000000
         H           -1.370249496181    -0.982116705770     1.723168047675     1.007825032230
         H           -1.398940496181     0.794978294230     1.592185047675     1.007825032230
         H            0.318079503819    -2.309424705770     0.676454047675     1.007825032230
         H            2.821321403819     1.973005194230    -0.696679852325     1.007825032230
         H           -0.806721496181     2.242600294230    -0.190315952325     1.007825032230
         H            0.115902503819     2.683671294230     1.259096047675     1.007825032230
         H            0.766951503819     3.091017294230    -0.338483952325     1.007825032230
         H            2.650576503819    -2.470086705770    -0.178610952325     1.007825032230
         H            3.872637503819    -0.387777705770    -0.824901952325     1.007825032230

  Basis Set: AUG-CC-PVTZ
    Blend: AUG-CC-PVTZ
  Basis Set: (AUG-CC-PVTZ AUX)
    Blend: AUG-CC-PVTZ-JKFIT
	 Reference Energy          =    -495.9754308524619546 [Eh]
	 Singles Energy            =      -0.0000000000000000 [Eh]
	 Same-Spin Energy          =      -0.5335545316258191 [Eh]
	 Opposite-Spin Energy      =      -1.6377374506406985 [Eh]
	 Correlation Energy        =      -2.1712919822665175 [Eh]
	 Total Energy              =    -498.1467228347284504 [Eh]

	 ================> DF-SCS-MP2 Energies <==================
	-----------------------------------------------------------
	 SCS Same-Spin Scale       =       0.3333333333333333 [-]
	 SCS Opposite-Spin Scale   =       1.2000000000000000 [-]
	 SCS Same-Spin Energy      =      -0.1778515105419397 [Eh]
	 SCS Opposite-Spin Energy  =      -1.9652849407688382 [Eh]
	 SCS Correlation Energy    =      -2.1431364513107778 [Eh]
	 SCS Total Energy          =    -498.1185673037727497 [Eh]
	-----------------------------------------------------------

  Dipole Moment: [D]
     X:     8.3636      Y:     1.2327      Z:     3.0216     Total:     8.9777

*** Psi4 exiting successfully. Buy a developer a beer!
