                               Psi4 1.4a3.dev225

  ==> Input File <==

--------------------------------------------------------------------------
#psi4
#
memory 32 gb

molecule  {
-1 1
  O       -2.4775990    -1.4732410    -0.5357720
  O       -2.5836320     0.8103810    -0.7086120
  C        0.1769840    -0.1996970     0.5360780
  C        0.8767864     1.0130127     0.1124068
  C       -1.2378850    -0.1617980     1.0317040
  C        0.8256870    -1.4354030     0.3918760
  C        2.1654290     0.8711020    -0.3500530
  C        0.1613040     2.3091050     0.2016770
  C        2.1298550    -1.5237740    -0.0958170
  C        2.8103870    -0.3625320    -0.4658790
  C       -2.2184660    -0.2891600    -0.2009230
  H       -1.4126520    -1.0091000     1.7035120
  H       -1.4413430     0.7679950     1.5725290
  H        0.2756770    -2.3364080     0.6567980
  H        2.6838580     1.7794620    -0.6595800
  H       -0.8491240     2.2156170    -0.2099720
  H        0.0735000     2.6566880     1.2394400
  H        0.7245490     3.0640340    -0.3581400
  H        2.6081740    -2.4970700    -0.1982670
  H        3.8302350    -0.4147610    -0.8445580
units angstrom
no_reorient  #important for SAPT in psi4, default
symmetry c1  #important for SAPT in psi4, default
}

set PROPERTIES_ORIGIN ["COM"]
properties('MP2/aug-cc-pvtz', properties = ['dipole'])
--------------------------------------------------------------------------

    Molecular point group: c1
  Charge       = -1
  Multiplicity = 1
  Basis Set: AUG-CC-PVTZ
    Blend: AUG-CC-PVTZ
  Basis Set: (AUG-CC-PVTZ AUX)
    Blend: AUG-CC-PVTZ-JKFIT

    Orbital Energies [Eh]
    ---------------------

    Doubly Occupied:

       1A    -20.309704     2A    -20.309351     3A    -11.157491
       4A    -11.118953     5A    -11.117982     6A    -11.117853
       7A    -11.116500     8A    -11.112035     9A    -11.105138
      10A    -11.092178    11A    -11.074380    12A     -1.179646
      13A     -1.083807    14A     -1.030221    15A     -0.926872
      16A     -0.910438    17A     -0.823956    18A     -0.787688
      19A     -0.682003    20A     -0.667495    21A     -0.561997
      22A     -0.533654    23A     -0.522579    24A     -0.499499
      25A     -0.462218    26A     -0.455218    27A     -0.439804
      28A     -0.429421    29A     -0.427432    30A     -0.413457
      31A     -0.388764    32A     -0.373496    33A     -0.363636
      34A     -0.347989    35A     -0.333461    36A     -0.234184
      37A     -0.225758    38A     -0.212592    39A     -0.209035
      40A     -0.172572

  @DF-RHF Final Energy:  -495.99374163589289

   => Energetics <=

    Nuclear Repulsion Energy =            571.5467916722476502
    One-Electron Energy =               -1822.4201573283924063
    Two-Electron Energy =                 754.8796240202519812
    Total Energy =                       -495.9937416358928886
  Basis Set: (AUG-CC-PVTZ AUX)
    Blend: AUG-CC-PVTZ-RI
    Molecular point group: c1

    Geometry (in Angstrom), charge = -1, multiplicity = 1:

       Center              X                  Y                   Z               Mass
    ------------   -----------------  -----------------  -----------------  -----------------
         O           -2.436479387089    -1.448468524237    -0.515333890174    15.994914619570
         O           -2.542512387089     0.835153475763    -0.688173890174    15.994914619570
         C            0.218103612911    -0.174924524237     0.556516109826    12.000000000000
         C            0.917906012911     1.037785175763     0.132844909826    12.000000000000
         C           -1.196765387089    -0.137025524237     1.052142109826    12.000000000000
         C            0.866806612911    -1.410630524237     0.412314109826    12.000000000000
         C            2.206548612911     0.895874475763    -0.329614890174    12.000000000000
         C            0.202423612911     2.333877475763     0.222115109826    12.000000000000
         C            2.170974612911    -1.499001524237    -0.075378890174    12.000000000000
         C            2.851506612911    -0.337759524237    -0.445440890174    12.000000000000
         C           -2.177346387089    -0.264387524237    -0.180484890174    12.000000000000
         H           -1.371532387089    -0.984327524237     1.723950109826     1.007825032230
         H           -1.400223387089     0.792767475763     1.592967109826     1.007825032230
         H            0.316796612911    -2.311635524237     0.677236109826     1.007825032230
         H            2.724977612911     1.804234475763    -0.639141890174     1.007825032230
         H           -0.808004387089     2.240389475763    -0.189533890174     1.007825032230
         H            0.114619612911     2.681460475763     1.259878109826     1.007825032230
         H            0.765668612911     3.088806475763    -0.337701890174     1.007825032230
         H            2.649293612911    -2.472297524237    -0.177828890174     1.007825032230
         H            3.871354612911    -0.389988524237    -0.824119890174     1.007825032230

  Basis Set: AUG-CC-PVTZ
    Blend: AUG-CC-PVTZ
  Basis Set: (AUG-CC-PVTZ AUX)
    Blend: AUG-CC-PVTZ-JKFIT
	 Reference Energy          =    -495.9937416358928886 [Eh]
	 Singles Energy            =      -0.0000000000000000 [Eh]
	 Same-Spin Energy          =      -0.5332232029092684 [Eh]
	 Opposite-Spin Energy      =      -1.6359064944516915 [Eh]
	 Correlation Energy        =      -2.1691296973609600 [Eh]
	 Total Energy              =    -498.1628713332538609 [Eh]

	 ================> DF-SCS-MP2 Energies <==================
	-----------------------------------------------------------
	 SCS Same-Spin Scale       =       0.3333333333333333 [-]
	 SCS Opposite-Spin Scale   =       1.2000000000000000 [-]
	 SCS Same-Spin Energy      =      -0.1777410676364228 [Eh]
	 SCS Opposite-Spin Energy  =      -1.9630877933420297 [Eh]
	 SCS Correlation Energy    =      -2.1408288609784525 [Eh]
	 SCS Total Energy          =    -498.1345704968713335 [Eh]
	-----------------------------------------------------------

  Dipole Moment: [D]
     X:     8.4231      Y:     1.4309      Z:     2.9786     Total:     9.0481

*** Psi4 exiting successfully. Buy a developer a beer!
