                               Psi4 1.4a3.dev225

  ==> Input File <==

--------------------------------------------------------------------------
#psi4
#
memory 32 gb

molecule  {
-1 1
  O       -2.4775990    -1.4732410    -0.5357720
  O       -2.5836320     0.8103810    -0.7086120
  C        0.1769840    -0.1996970     0.5360780
  C        0.8528670     0.9715620     0.1268880
  C       -1.2378850    -0.1617980     1.0317040
  C        0.8256870    -1.4354030     0.3918760
  C        2.1654290     0.8711020    -0.3500530
  C        0.1613040     2.3091050     0.2016770
  C        2.1298550    -1.5237740    -0.0958170
  C        2.8103870    -0.3625320    -0.4658790
  C       -2.2184660    -0.2891600    -0.2009230
  H       -1.4046743    -0.9704228     1.6728456
  H       -1.4413430     0.7679950     1.5725290
  H        0.2756770    -2.3364080     0.6567980
  H        2.6838580     1.7794620    -0.6595800
  H       -0.8491240     2.2156170    -0.2099720
  H        0.0735000     2.6566880     1.2394400
  H        0.7245490     3.0640340    -0.3581400
  H        2.6081740    -2.4970700    -0.1982670
  H        3.8302350    -0.4147610    -0.8445580
units angstrom
no_reorient  #important for SAPT in psi4, default
symmetry c1  #important for SAPT in psi4, default
}

set PROPERTIES_ORIGIN ["COM"]
properties('MP2/aug-cc-pvtz', properties = ['dipole'])
--------------------------------------------------------------------------

    Molecular point group: c1
  Charge       = -1
  Multiplicity = 1
  Basis Set: AUG-CC-PVTZ
    Blend: AUG-CC-PVTZ
  Basis Set: (AUG-CC-PVTZ AUX)
    Blend: AUG-CC-PVTZ-JKFIT

    Orbital Energies [Eh]
    ---------------------

    Doubly Occupied:

       1A    -20.309102     2A    -20.308693     3A    -11.156483
       4A    -11.118269     5A    -11.116864     6A    -11.116016
       7A    -11.114502     8A    -11.112356     9A    -11.106880
      10A    -11.091953    11A    -11.067407    12A     -1.179071
      13A     -1.083189    14A     -1.032111    15A     -0.927065
      16A     -0.908266    17A     -0.822558    18A     -0.789266
      19A     -0.690401    20A     -0.664527    21A     -0.562174
      22A     -0.534318    23A     -0.524221    24A     -0.500266
      25A     -0.461353    26A     -0.453120    27A     -0.440155
      28A     -0.431481    29A     -0.425716    30A     -0.412186
      31A     -0.386262    32A     -0.375118    33A     -0.364614
      34A     -0.352962    35A     -0.332814    36A     -0.234872
      37A     -0.225720    38A     -0.211207    39A     -0.207000
      40A     -0.175924

  @DF-RHF Final Energy:  -495.99646239546962

   => Energetics <=

    Nuclear Repulsion Energy =            572.2932396376697852
    One-Electron Energy =               -1823.9264763128762752
    Two-Electron Energy =                 755.6367742797368692
    Total Energy =                       -495.9964623954696208
  Basis Set: (AUG-CC-PVTZ AUX)
    Blend: AUG-CC-PVTZ-RI
    Molecular point group: c1

    Geometry (in Angstrom), charge = -1, multiplicity = 1:

       Center              X                  Y                   Z               Mass
    ------------   -----------------  -----------------  -----------------  -----------------
         O           -2.434607709927    -1.445393066255    -0.516292348449    15.994914619570
         O           -2.540640709927     0.838228933745    -0.689132348449    15.994914619570
         C            0.219975290073    -0.171849066255     0.555557651551    12.000000000000
         C            0.895858290073     0.999409933745     0.146367651551    12.000000000000
         C           -1.194893709927    -0.133950066255     1.051183651551    12.000000000000
         C            0.868678290073    -1.407555066255     0.411355651551    12.000000000000
         C            2.208420290073     0.898949933745    -0.330573348449    12.000000000000
         C            0.204295290073     2.336952933745     0.221156651551    12.000000000000
         C            2.172846290073    -1.495926066255    -0.076337348449    12.000000000000
         C            2.853378290073    -0.334684066255    -0.446399348449    12.000000000000
         C           -2.175474709927    -0.261312066255    -0.181443348449    12.000000000000
         H           -1.361683009927    -0.942574866255     1.692325251551     1.007825032230
         H           -1.398351709927     0.795842933745     1.592008651551     1.007825032230
         H            0.318668290073    -2.308560066255     0.676277651551     1.007825032230
         H            2.726849290073     1.807309933745    -0.640100348449     1.007825032230
         H           -0.806132709927     2.243464933745    -0.190492348449     1.007825032230
         H            0.116491290073     2.684535933745     1.258919651551     1.007825032230
         H            0.767540290073     3.091881933745    -0.338660348449     1.007825032230
         H            2.651165290073    -2.469222066255    -0.178787348449     1.007825032230
         H            3.873226290073    -0.386913066255    -0.825078348449     1.007825032230

  Basis Set: AUG-CC-PVTZ
    Blend: AUG-CC-PVTZ
  Basis Set: (AUG-CC-PVTZ AUX)
    Blend: AUG-CC-PVTZ-JKFIT
	 Reference Energy          =    -495.9964623954696208 [Eh]
	 Singles Energy            =      -0.0000000000000000 [Eh]
	 Same-Spin Energy          =      -0.5329628375955433 [Eh]
	 Opposite-Spin Energy      =      -1.6351578890014340 [Eh]
	 Correlation Energy        =      -2.1681207265969773 [Eh]
	 Total Energy              =    -498.1645831220665741 [Eh]

	 ================> DF-SCS-MP2 Energies <==================
	-----------------------------------------------------------
	 SCS Same-Spin Scale       =       0.3333333333333333 [-]
	 SCS Opposite-Spin Scale   =       1.2000000000000000 [-]
	 SCS Same-Spin Energy      =      -0.1776542791985144 [Eh]
	 SCS Opposite-Spin Energy  =      -1.9621894668017208 [Eh]
	 SCS Correlation Energy    =      -2.1398437460002353 [Eh]
	 SCS Total Energy          =    -498.1363061414698450 [Eh]
	-----------------------------------------------------------

  Dipole Moment: [D]
     X:     8.4720      Y:     1.3751      Z:     3.0000     Total:     9.0921

*** Psi4 exiting successfully. Buy a developer a beer!
