                               Psi4 1.4a3.dev225

  ==> Input File <==

--------------------------------------------------------------------------
#psi4
#
memory 32 gb

molecule  {
-1 1
  O       -2.4775990    -1.4732410    -0.5357720
  O       -2.5836320     0.8103810    -0.7086120
  C        0.1769840    -0.1996970     0.5360780
  C        0.8528670     0.9715620     0.1268880
  C       -1.2378850    -0.1617980     1.0317040
  C        0.8256870    -1.4354030     0.3918760
  C        2.1654290     0.8711020    -0.3500530
  C        0.1613040     2.3091050     0.2016770
  C        2.1298550    -1.5237740    -0.0958170
  C        2.8103870    -0.3625320    -0.4658790
  C       -2.2473341    -0.2022360    -0.2410583
  H       -1.4126520    -1.0091000     1.7035120
  H       -1.4413430     0.7679950     1.5725290
  H        0.2756770    -2.3364080     0.6567980
  H        2.6838580     1.7794620    -0.6595800
  H       -0.8491240     2.2156170    -0.2099720
  H        0.0735000     2.6566880     1.2394400
  H        0.7245490     3.0640340    -0.3581400
  H        2.6081740    -2.4970700    -0.1982670
  H        3.8302350    -0.4147610    -0.8445580
units angstrom
no_reorient  #important for SAPT in psi4, default
symmetry c1  #important for SAPT in psi4, default
}

set PROPERTIES_ORIGIN ["COM"]
properties('MP2/aug-cc-pvtz', properties = ['dipole'])
--------------------------------------------------------------------------

    Molecular point group: c1
  Charge       = -1
  Multiplicity = 1
  Basis Set: AUG-CC-PVTZ
    Blend: AUG-CC-PVTZ
  Basis Set: (AUG-CC-PVTZ AUX)
    Blend: AUG-CC-PVTZ-JKFIT

    Orbital Energies [Eh]
    ---------------------

    Doubly Occupied:

       1A    -20.334300     2A    -20.291111     3A    -11.156925
       4A    -11.116052     5A    -11.115305     6A    -11.114069
       7A    -11.113358     8A    -11.110294     9A    -11.103600
      10A    -11.095172    11A    -11.068558    12A     -1.228743
      13A     -1.067735    14A     -1.029904    15A     -0.925088
      16A     -0.904472    17A     -0.818120    18A     -0.783541
      19A     -0.686987    20A     -0.661435    21A     -0.559936
      22A     -0.534822    23A     -0.521684    24A     -0.497600
      25A     -0.471482    26A     -0.451805    27A     -0.442248
      28A     -0.430438    29A     -0.428514    30A     -0.412352
      31A     -0.389130    32A     -0.383038    33A     -0.364783
      34A     -0.351340    35A     -0.341034    36A     -0.242191
      37A     -0.215914    38A     -0.209716    39A     -0.205134
      40A     -0.165623

  @DF-RHF Final Energy:  -495.98305580394663

   => Energetics <=

    Nuclear Repulsion Energy =            572.1046442545052741
    One-Electron Energy =               -1823.4882978664109032
    Two-Electron Energy =                 755.4005978079590022
    Total Energy =                       -495.9830558039466268
  Basis Set: (AUG-CC-PVTZ AUX)
    Blend: AUG-CC-PVTZ-RI
    Molecular point group: c1

    Geometry (in Angstrom), charge = -1, multiplicity = 1:

       Center              X                  Y                   Z               Mass
    ------------   -----------------  -----------------  -----------------  -----------------
         O           -2.432229763325    -1.452129323031    -0.513268623339    15.994914619570
         O           -2.538262763325     0.831492676969    -0.686108623339    15.994914619570
         C            0.222353236675    -0.178585323031     0.558581376661    12.000000000000
         C            0.898236236675     0.992673676969     0.149391376661    12.000000000000
         C           -1.192515763325    -0.140686323031     1.054207376661    12.000000000000
         C            0.871056236675    -1.414291323031     0.414379376661    12.000000000000
         C            2.210798236675     0.892213676969    -0.327549623339    12.000000000000
         C            0.206673236675     2.330216676969     0.224180376661    12.000000000000
         C            2.175224236675    -1.502662323031    -0.073313623339    12.000000000000
         C            2.855756236675    -0.341420323031    -0.443375623339    12.000000000000
         C           -2.201964863325    -0.181124323031    -0.218554923339    12.000000000000
         H           -1.367282763325    -0.987988323031     1.726015376661     1.007825032230
         H           -1.395973763325     0.789106676969     1.595032376661     1.007825032230
         H            0.321046236675    -2.315296323031     0.679301376661     1.007825032230
         H            2.729227236675     1.800573676969    -0.637076623339     1.007825032230
         H           -0.803754763325     2.236728676969    -0.187468623339     1.007825032230
         H            0.118869236675     2.677799676969     1.261943376661     1.007825032230
         H            0.769918236675     3.085145676969    -0.335636623339     1.007825032230
         H            2.653543236675    -2.475958323031    -0.175763623339     1.007825032230
         H            3.875604236675    -0.393649323031    -0.822054623339     1.007825032230

  Basis Set: AUG-CC-PVTZ
    Blend: AUG-CC-PVTZ
  Basis Set: (AUG-CC-PVTZ AUX)
    Blend: AUG-CC-PVTZ-JKFIT
	 Reference Energy          =    -495.9830558039466268 [Eh]
	 Singles Energy            =      -0.0000000000000000 [Eh]
	 Same-Spin Energy          =      -0.5326273297528190 [Eh]
	 Opposite-Spin Energy      =      -1.6344791597308519 [Eh]
	 Correlation Energy        =      -2.1671064894836709 [Eh]
	 Total Energy              =    -498.1501622934302986 [Eh]

	 ================> DF-SCS-MP2 Energies <==================
	-----------------------------------------------------------
	 SCS Same-Spin Scale       =       0.3333333333333333 [-]
	 SCS Opposite-Spin Scale   =       1.2000000000000000 [-]
	 SCS Same-Spin Energy      =      -0.1775424432509397 [Eh]
	 SCS Opposite-Spin Energy  =      -1.9613749916770222 [Eh]
	 SCS Correlation Energy    =      -2.1389174349279618 [Eh]
	 SCS Total Energy          =    -498.1219732388746024 [Eh]
	-----------------------------------------------------------

  Dipole Moment: [D]
     X:     8.1326      Y:     2.2914      Z:     2.7044     Total:     8.8715

*** Psi4 exiting successfully. Buy a developer a beer!
