                               Psi4 1.4a3.dev225

  ==> Input File <==

--------------------------------------------------------------------------
#psi4
#
memory 32 gb

molecule  {
-1 1
  O       -2.4775990    -1.4732410    -0.5357720
  O       -2.5836320     0.8103810    -0.7086120
  C        0.1769840    -0.1996970     0.5360780
  C        0.8528670     0.9715620     0.1268880
  C       -1.2378850    -0.1617980     1.0317040
  C        0.8256870    -1.4354030     0.3918760
  C        2.1654290     0.8711020    -0.3500530
  C        0.1613040     2.3091050     0.2016770
  C        2.1298550    -1.5237740    -0.0958170
  C        2.8103870    -0.3625320    -0.4658790
  C       -2.2286775    -0.3123777    -0.1900920
  H       -1.4126520    -1.0091000     1.7035120
  H       -1.4413430     0.7679950     1.5725290
  H        0.2756770    -2.3364080     0.6567980
  H        2.6838580     1.7794620    -0.6595800
  H       -0.8491240     2.2156170    -0.2099720
  H        0.0735000     2.6566880     1.2394400
  H        0.7245490     3.0640340    -0.3581400
  H        2.6081740    -2.4970700    -0.1982670
  H        3.8302350    -0.4147610    -0.8445580
units angstrom
no_reorient  #important for SAPT in psi4, default
symmetry c1  #important for SAPT in psi4, default
}

set PROPERTIES_ORIGIN ["COM"]
properties('MP2/aug-cc-pvtz', properties = ['dipole'])
--------------------------------------------------------------------------

    Molecular point group: c1
  Charge       = -1
  Multiplicity = 1
  Basis Set: AUG-CC-PVTZ
    Blend: AUG-CC-PVTZ
  Basis Set: (AUG-CC-PVTZ AUX)
    Blend: AUG-CC-PVTZ-JKFIT

    Orbital Energies [Eh]
    ---------------------

    Doubly Occupied:

       1A    -20.314680     2A    -20.303779     3A    -11.156788
       4A    -11.118521     5A    -11.117107     6A    -11.116173
       7A    -11.114585     8A    -11.112795     9A    -11.107244
      10A    -11.091232    11A    -11.073763    12A     -1.182759
      13A     -1.080364    14A     -1.032164    15A     -0.926657
      16A     -0.907782    17A     -0.820917    18A     -0.787544
      19A     -0.690013    20A     -0.664306    21A     -0.562514
      22A     -0.533277    23A     -0.522794    24A     -0.499718
      25A     -0.460536    26A     -0.453390    27A     -0.440007
      28A     -0.429202    29A     -0.425511    30A     -0.412445
      31A     -0.384417    32A     -0.374586    33A     -0.364428
      34A     -0.351276    35A     -0.333653    36A     -0.234172
      37A     -0.226028    38A     -0.210811    39A     -0.207116
      40A     -0.176205

  @DF-RHF Final Energy:  -495.99623422456244

   => Energetics <=

    Nuclear Repulsion Energy =            571.9024848527640188
    One-Electron Energy =               -1823.1549229867193844
    Two-Electron Energy =                 755.2562039093929798
    Total Energy =                       -495.9962342245623859
  Basis Set: (AUG-CC-PVTZ AUX)
    Blend: AUG-CC-PVTZ-RI
    Molecular point group: c1

    Geometry (in Angstrom), charge = -1, multiplicity = 1:

       Center              X                  Y                   Z               Mass
    ------------   -----------------  -----------------  -----------------  -----------------
         O           -2.433731700918    -1.443262436253    -0.517371632568    15.994914619570
         O           -2.539764700918     0.840359563747    -0.690211632568    15.994914619570
         C            0.220851299082    -0.169718436253     0.554478367432    12.000000000000
         C            0.896734299082     1.001540563747     0.145288367432    12.000000000000
         C           -1.194017700918    -0.131819436253     1.050104367432    12.000000000000
         C            0.869554299082    -1.405424436253     0.410276367432    12.000000000000
         C            2.209296299082     0.901080563747    -0.331652632568    12.000000000000
         C            0.205171299082     2.339083563747     0.220077367432    12.000000000000
         C            2.173722299082    -1.493795436253    -0.077416632568    12.000000000000
         C            2.854254299082    -0.332553436253    -0.447478632568    12.000000000000
         C           -2.184810200918    -0.282399136253    -0.171691632568    12.000000000000
         H           -1.368784700918    -0.979121436253     1.721912367432     1.007825032230
         H           -1.397475700918     0.797973563747     1.590929367432     1.007825032230
         H            0.319544299082    -2.306429436253     0.675198367432     1.007825032230
         H            2.727725299082     1.809440563747    -0.641179632568     1.007825032230
         H           -0.805256700918     2.245595563747    -0.191571632568     1.007825032230
         H            0.117367299082     2.686666563747     1.257840367432     1.007825032230
         H            0.768416299082     3.094012563747    -0.339739632568     1.007825032230
         H            2.652041299082    -2.467091436253    -0.179866632568     1.007825032230
         H            3.874102299082    -0.384782436253    -0.826157632568     1.007825032230

  Basis Set: AUG-CC-PVTZ
    Blend: AUG-CC-PVTZ
  Basis Set: (AUG-CC-PVTZ AUX)
    Blend: AUG-CC-PVTZ-JKFIT
	 Reference Energy          =    -495.9962342245624427 [Eh]
	 Singles Energy            =      -0.0000000000000000 [Eh]
	 Same-Spin Energy          =      -0.5329975609384596 [Eh]
	 Opposite-Spin Energy      =      -1.6355033818613585 [Eh]
	 Correlation Energy        =      -2.1685009427998181 [Eh]
	 Total Energy              =    -498.1647351673622666 [Eh]

	 ================> DF-SCS-MP2 Energies <==================
	-----------------------------------------------------------
	 SCS Same-Spin Scale       =       0.3333333333333333 [-]
	 SCS Opposite-Spin Scale   =       1.2000000000000000 [-]
	 SCS Same-Spin Energy      =      -0.1776658536461532 [Eh]
	 SCS Opposite-Spin Energy  =      -1.9626040582336302 [Eh]
	 SCS Correlation Energy    =      -2.1402699118797832 [Eh]
	 SCS Total Energy          =    -498.1365041364422268 [Eh]
	-----------------------------------------------------------

  Dipole Moment: [D]
     X:     8.4894      Y:     1.1580      Z:     2.9852     Total:     9.0732

*** Psi4 exiting successfully. Buy a developer a beer!
