                               Psi4 1.4a3.dev225

  ==> Input File <==

--------------------------------------------------------------------------
#psi4
#
memory 32 gb

molecule  {
-1 1
  O       -2.4775990    -1.4732410    -0.5357720
  O       -2.5836320     0.8103810    -0.7086120
  C        0.1769840    -0.1996970     0.5360780
  C        0.8327061     0.9847624     0.1321149
  C       -1.2378850    -0.1617980     1.0317040
  C        0.8256870    -1.4354030     0.3918760
  C        2.1654290     0.8711020    -0.3500530
  C        0.1613040     2.3091050     0.2016770
  C        2.1298550    -1.5237740    -0.0958170
  C        2.8103870    -0.3625320    -0.4658790
  C       -2.2184660    -0.2891600    -0.2009230
  H       -1.4126520    -1.0091000     1.7035120
  H       -1.4413430     0.7679950     1.5725290
  H        0.2756770    -2.3364080     0.6567980
  H        2.6838580     1.7794620    -0.6595800
  H       -0.8491240     2.2156170    -0.2099720
  H        0.0735000     2.6566880     1.2394400
  H        0.7245490     3.0640340    -0.3581400
  H        2.6081740    -2.4970700    -0.1982670
  H        3.8302350    -0.4147610    -0.8445580
units angstrom
no_reorient  #important for SAPT in psi4, default
symmetry c1  #important for SAPT in psi4, default
}

set PROPERTIES_ORIGIN ["COM"]
properties('MP2/aug-cc-pvtz', properties = ['dipole'])
--------------------------------------------------------------------------

    Molecular point group: c1
  Charge       = -1
  Multiplicity = 1
  Basis Set: AUG-CC-PVTZ
    Blend: AUG-CC-PVTZ
  Basis Set: (AUG-CC-PVTZ AUX)
    Blend: AUG-CC-PVTZ-JKFIT

    Orbital Energies [Eh]
    ---------------------

    Doubly Occupied:

       1A    -20.309122     2A    -20.308856     3A    -11.156712
       4A    -11.118850     5A    -11.118516     6A    -11.116730
       7A    -11.116013     8A    -11.112477     9A    -11.107393
      10A    -11.091826    11A    -11.073039    12A     -1.179133
      13A     -1.083292    14A     -1.030725    15A     -0.929122
      16A     -0.906850    17A     -0.822610    18A     -0.786882
      19A     -0.689981    20A     -0.662502    21A     -0.562036
      22A     -0.533119    23A     -0.523071    24A     -0.500448
      25A     -0.462424    26A     -0.452816    27A     -0.441097
      28A     -0.428176    29A     -0.427076    30A     -0.413100
      31A     -0.385269    32A     -0.373093    33A     -0.363213
      34A     -0.354867    35A     -0.331271    36A     -0.235283
      37A     -0.225439    38A     -0.210767    39A     -0.205107
      40A     -0.176096

  @DF-RHF Final Energy:  -495.99590781769678

   => Energetics <=

    Nuclear Repulsion Energy =            571.9586159808516186
    One-Electron Energy =               -1823.2602486345551824
    Two-Electron Energy =                 755.3057248360067888
    Total Energy =                       -495.9959078176967751
  Basis Set: (AUG-CC-PVTZ AUX)
    Blend: AUG-CC-PVTZ-RI
    Molecular point group: c1

    Geometry (in Angstrom), charge = -1, multiplicity = 1:

       Center              X                  Y                   Z               Mass
    ------------   -----------------  -----------------  -----------------  -----------------
         O           -2.432930730865    -1.446194251990    -0.516920478099    15.994914619570
         O           -2.538963730865     0.837427748010    -0.689760478099    15.994914619570
         C            0.221652269135    -0.172650251990     0.554929521901    12.000000000000
         C            0.877374369135     1.011809148010     0.150966421901    12.000000000000
         C           -1.193216730865    -0.134751251990     1.050555521901    12.000000000000
         C            0.870355269135    -1.408356251990     0.410727521901    12.000000000000
         C            2.210097269135     0.898148748010    -0.331201478099    12.000000000000
         C            0.205972269135     2.336151748010     0.220528521901    12.000000000000
         C            2.174523269135    -1.496727251990    -0.076965478099    12.000000000000
         C            2.855055269135    -0.335485251990    -0.447027478099    12.000000000000
         C           -2.173797730865    -0.262113251990    -0.182071478099    12.000000000000
         H           -1.367983730865    -0.982053251990     1.722363521901     1.007825032230
         H           -1.396674730865     0.795041748010     1.591380521901     1.007825032230
         H            0.320345269135    -2.309361251990     0.675649521901     1.007825032230
         H            2.728526269135     1.806508748010    -0.640728478099     1.007825032230
         H           -0.804455730865     2.242663748010    -0.191120478099     1.007825032230
         H            0.118168269135     2.683734748010     1.258291521901     1.007825032230
         H            0.769217269135     3.091080748010    -0.339288478099     1.007825032230
         H            2.652842269135    -2.470023251990    -0.179415478099     1.007825032230
         H            3.874903269135    -0.387714251990    -0.825706478099     1.007825032230

  Basis Set: AUG-CC-PVTZ
    Blend: AUG-CC-PVTZ
  Basis Set: (AUG-CC-PVTZ AUX)
    Blend: AUG-CC-PVTZ-JKFIT
	 Reference Energy          =    -495.9959078176967751 [Eh]
	 Singles Energy            =      -0.0000000000000000 [Eh]
	 Same-Spin Energy          =      -0.5332433506694048 [Eh]
	 Opposite-Spin Energy      =      -1.6358316210319495 [Eh]
	 Correlation Energy        =      -2.1690749717013542 [Eh]
	 Total Energy              =    -498.1649827893981524 [Eh]

	 ================> DF-SCS-MP2 Energies <==================
	-----------------------------------------------------------
	 SCS Same-Spin Scale       =       0.3333333333333333 [-]
	 SCS Opposite-Spin Scale   =       1.2000000000000000 [-]
	 SCS Same-Spin Energy      =      -0.1777477835564683 [Eh]
	 SCS Opposite-Spin Energy  =      -1.9629979452383393 [Eh]
	 SCS Correlation Energy    =      -2.1407457287948075 [Eh]
	 SCS Total Energy          =    -498.1366535464915728 [Eh]
	-----------------------------------------------------------

  Dipole Moment: [D]
     X:     8.4719      Y:     1.4253      Z:     2.9718     Total:     9.0905

*** Psi4 exiting successfully. Buy a developer a beer!
