                               Psi4 1.4a3.dev225

  ==> Input File <==

--------------------------------------------------------------------------
#psi4
#
memory 32 gb

molecule  {
-1 1
  O       -2.4775990    -1.4732410    -0.5357720
  O       -2.5836320     0.8103810    -0.7086120
  C        0.1769840    -0.1996970     0.5360780
  C        0.8528670     0.9715620     0.1268880
  C       -1.2378850    -0.1617980     1.0317040
  C        0.8256870    -1.4354030     0.3918760
  C        2.1654290     0.8711020    -0.3500530
  C        0.1613040     2.3091050     0.2016770
  C        2.1298550    -1.5237740    -0.0958170
  C        2.8103870    -0.3625320    -0.4658790
  C       -2.1971500    -0.2426152    -0.2214555
  H       -1.4126520    -1.0091000     1.7035120
  H       -1.4413430     0.7679950     1.5725290
  H        0.2756770    -2.3364080     0.6567980
  H        2.6838580     1.7794620    -0.6595800
  H       -0.8491240     2.2156170    -0.2099720
  H        0.0735000     2.6566880     1.2394400
  H        0.7245490     3.0640340    -0.3581400
  H        2.6081740    -2.4970700    -0.1982670
  H        3.8302350    -0.4147610    -0.8445580
units angstrom
no_reorient  #important for SAPT in psi4, default
symmetry c1  #important for SAPT in psi4, default
}

set PROPERTIES_ORIGIN ["COM"]
properties('MP2/aug-cc-pvtz', properties = ['dipole'])
--------------------------------------------------------------------------

    Molecular point group: c1
  Charge       = -1
  Multiplicity = 1
  Basis Set: AUG-CC-PVTZ
    Blend: AUG-CC-PVTZ
  Basis Set: (AUG-CC-PVTZ AUX)
    Blend: AUG-CC-PVTZ-JKFIT

    Orbital Energies [Eh]
    ---------------------

    Doubly Occupied:

       1A    -20.320124     2A    -20.297811     3A    -11.156709
       4A    -11.118283     5A    -11.117394     6A    -11.115947
       7A    -11.114928     8A    -11.112658     9A    -11.106450
      10A    -11.094247    11A    -11.073898    12A     -1.189516
      13A     -1.074117    14A     -1.032283    15A     -0.927470
      16A     -0.907782    17A     -0.821669    18A     -0.788406
      19A     -0.689659    20A     -0.664378    21A     -0.562220
      22A     -0.534421    23A     -0.523823    24A     -0.499825
      25A     -0.464929    26A     -0.453404    27A     -0.440597
      28A     -0.428626    29A     -0.427335    30A     -0.412762
      31A     -0.383395    32A     -0.376387    33A     -0.365356
      34A     -0.352426    35A     -0.334366    36A     -0.238927
      37A     -0.219252    38A     -0.210448    39A     -0.205572
      40A     -0.175278

  @DF-RHF Final Energy:  -495.99340501119275

   => Energetics <=

    Nuclear Repulsion Energy =            572.3009934335467506
    One-Electron Energy =               -1823.9226328252686926
    Two-Electron Energy =                 755.6282343805293067
    Total Energy =                       -495.9934050111927490
  Basis Set: (AUG-CC-PVTZ AUX)
    Blend: AUG-CC-PVTZ-RI
    Molecular point group: c1

    Geometry (in Angstrom), charge = -1, multiplicity = 1:

       Center              X                  Y                   Z               Mass
    ------------   -----------------  -----------------  -----------------  -----------------
         O           -2.436269802045    -1.448878621484    -0.514846734156    15.994914619570
         O           -2.542302802045     0.834743378516    -0.687686734156    15.994914619570
         C            0.218313197955    -0.175334621484     0.557003265844    12.000000000000
         C            0.894196197955     0.995924378516     0.147813265844    12.000000000000
         C           -1.196555802045    -0.137435621484     1.052629265844    12.000000000000
         C            0.867016197955    -1.411040621484     0.412801265844    12.000000000000
         C            2.206758197955     0.895464378516    -0.329127734156    12.000000000000
         C            0.202633197955     2.333467378516     0.222602265844    12.000000000000
         C            2.171184197955    -1.499411621484    -0.074891734156    12.000000000000
         C            2.851716197955    -0.338169621484    -0.444953734156    12.000000000000
         C           -2.155820802045    -0.218252821484    -0.200530234156    12.000000000000
         H           -1.371322802045    -0.984737621484     1.724437265844     1.007825032230
         H           -1.400013802045     0.792357378516     1.593454265844     1.007825032230
         H            0.317006197955    -2.312045621484     0.677723265844     1.007825032230
         H            2.725187197955     1.803824378516    -0.638654734156     1.007825032230
         H           -0.807794802045     2.239979378516    -0.189046734156     1.007825032230
         H            0.114829197955     2.681050378516     1.260365265844     1.007825032230
         H            0.765878197955     3.088396378516    -0.337214734156     1.007825032230
         H            2.649503197955    -2.472707621484    -0.177341734156     1.007825032230
         H            3.871564197955    -0.390398621484    -0.823632734156     1.007825032230

  Basis Set: AUG-CC-PVTZ
    Blend: AUG-CC-PVTZ
  Basis Set: (AUG-CC-PVTZ AUX)
    Blend: AUG-CC-PVTZ-JKFIT
	 Reference Energy          =    -495.9934050111927490 [Eh]
	 Singles Energy            =      -0.0000000000000000 [Eh]
	 Same-Spin Energy          =      -0.5330809558121840 [Eh]
	 Opposite-Spin Energy      =      -1.6356644309856301 [Eh]
	 Correlation Energy        =      -2.1687453867978141 [Eh]
	 Total Energy              =    -498.1621503979905583 [Eh]

	 ================> DF-SCS-MP2 Energies <==================
	-----------------------------------------------------------
	 SCS Same-Spin Scale       =       0.3333333333333333 [-]
	 SCS Opposite-Spin Scale   =       1.2000000000000000 [-]
	 SCS Same-Spin Energy      =      -0.1776936519373946 [Eh]
	 SCS Opposite-Spin Energy  =      -1.9627973171827560 [Eh]
	 SCS Correlation Energy    =      -2.1404909691201506 [Eh]
	 SCS Total Energy          =    -498.1338959803129001 [Eh]
	-----------------------------------------------------------

  Dipole Moment: [D]
     X:     8.4800      Y:     1.8624      Z:     2.9451     Total:     9.1680

*** Psi4 exiting successfully. Buy a developer a beer!
