                               Psi4 1.4a3.dev225

  ==> Input File <==

--------------------------------------------------------------------------
#psi4
#
memory 32 gb

molecule  {
-1 1
  O       -2.4775990    -1.4732410    -0.5357720
  O       -2.5836320     0.8103810    -0.7086120
  C        0.1769840    -0.1996970     0.5360780
  C        0.8528670     0.9715620     0.1268880
  C       -1.2378850    -0.1617980     1.0317040
  C        0.8256870    -1.4354030     0.3918760
  C        2.1654290     0.8711020    -0.3500530
  C        0.1613040     2.3091050     0.2016770
  C        2.1298550    -1.5237740    -0.0958170
  C        2.8103870    -0.3625320    -0.4658790
  C       -2.2184660    -0.2891600    -0.2009230
  H       -1.4126520    -1.0091000     1.7035120
  H       -1.4506357     0.8104623     1.5972306
  H        0.2756770    -2.3364080     0.6567980
  H        2.6838580     1.7794620    -0.6595800
  H       -0.8491240     2.2156170    -0.2099720
  H        0.0735000     2.6566880     1.2394400
  H        0.7245490     3.0640340    -0.3581400
  H        2.6081740    -2.4970700    -0.1982670
  H        3.8302350    -0.4147610    -0.8445580
units angstrom
no_reorient  #important for SAPT in psi4, default
symmetry c1  #important for SAPT in psi4, default
}

set PROPERTIES_ORIGIN ["COM"]
properties('MP2/aug-cc-pvtz', properties = ['dipole'])
--------------------------------------------------------------------------

    Molecular point group: c1
  Charge       = -1
  Multiplicity = 1
  Basis Set: AUG-CC-PVTZ
    Blend: AUG-CC-PVTZ
  Basis Set: (AUG-CC-PVTZ AUX)
    Blend: AUG-CC-PVTZ-JKFIT

    Orbital Energies [Eh]
    ---------------------

    Doubly Occupied:

       1A    -20.309643     2A    -20.309210     3A    -11.157504
       4A    -11.118676     5A    -11.117405     6A    -11.116325
       7A    -11.114835     8A    -11.113198     9A    -11.107392
      10A    -11.092047    11A    -11.079830    12A     -1.179562
      13A     -1.083693    14A     -1.032406    15A     -0.926673
      16A     -0.907723    17A     -0.820133    18A     -0.786084
      19A     -0.690021    20A     -0.663754    21A     -0.562585
      22A     -0.531753    23A     -0.522960    24A     -0.499397
      25A     -0.460881    26A     -0.452824    27A     -0.440176
      28A     -0.428358    29A     -0.423883    30A     -0.412104
      31A     -0.382616    32A     -0.374489    33A     -0.364787
      34A     -0.350554    35A     -0.332086    36A     -0.235377
      37A     -0.225647    38A     -0.211591    39A     -0.207349
      40A     -0.176622

  @DF-RHF Final Energy:  -495.99490589078545

   => Energetics <=

    Nuclear Repulsion Energy =            571.7816102822114317
    One-Electron Energy =               -1822.9087308207549540
    Two-Electron Energy =                 755.1322146477580191
    Total Energy =                       -495.9949058907855033
  Basis Set: (AUG-CC-PVTZ AUX)
    Blend: AUG-CC-PVTZ-RI
    Molecular point group: c1

    Geometry (in Angstrom), charge = -1, multiplicity = 1:

       Center              X                  Y                   Z               Mass
    ------------   -----------------  -----------------  -----------------  -----------------
         O           -2.434490941433    -1.445418691850    -0.516666702139    15.994914619570
         O           -2.540523941433     0.838203308150    -0.689506702139    15.994914619570
         C            0.220092058567    -0.171874691850     0.555183297861    12.000000000000
         C            0.895975058567     0.999384308150     0.145993297861    12.000000000000
         C           -1.194776941433    -0.133975691850     1.050809297861    12.000000000000
         C            0.868795058567    -1.407580691850     0.410981297861    12.000000000000
         C            2.208537058567     0.898924308150    -0.330947702139    12.000000000000
         C            0.204412058567     2.336927308150     0.220782297861    12.000000000000
         C            2.172963058567    -1.495951691850    -0.076711702139    12.000000000000
         C            2.853495058567    -0.334709691850    -0.446773702139    12.000000000000
         C           -2.175357941433    -0.261337691850    -0.181817702139    12.000000000000
         H           -1.369543941433    -0.981277691850     1.722617297861     1.007825032230
         H           -1.407527641433     0.838284608150     1.616335897861     1.007825032230
         H            0.318785058567    -2.308585691850     0.675903297861     1.007825032230
         H            2.726966058567     1.807284308150    -0.640474702139     1.007825032230
         H           -0.806015941433     2.243439308150    -0.190866702139     1.007825032230
         H            0.116608058567     2.684510308150     1.258545297861     1.007825032230
         H            0.767657058567     3.091856308150    -0.339034702139     1.007825032230
         H            2.651282058567    -2.469247691850    -0.179161702139     1.007825032230
         H            3.873343058567    -0.386938691850    -0.825452702139     1.007825032230

  Basis Set: AUG-CC-PVTZ
    Blend: AUG-CC-PVTZ
  Basis Set: (AUG-CC-PVTZ AUX)
    Blend: AUG-CC-PVTZ-JKFIT
	 Reference Energy          =    -495.9949058907854464 [Eh]
	 Singles Energy            =      -0.0000000000000000 [Eh]
	 Same-Spin Energy          =      -0.5331058926515642 [Eh]
	 Opposite-Spin Energy      =      -1.6359446462939675 [Eh]
	 Correlation Energy        =      -2.1690505389455317 [Eh]
	 Total Energy              =    -498.1639564297310017 [Eh]

	 ================> DF-SCS-MP2 Energies <==================
	-----------------------------------------------------------
	 SCS Same-Spin Scale       =       0.3333333333333333 [-]
	 SCS Opposite-Spin Scale   =       1.2000000000000000 [-]
	 SCS Same-Spin Energy      =      -0.1777019642171880 [Eh]
	 SCS Opposite-Spin Energy  =      -1.9631335755527610 [Eh]
	 SCS Correlation Energy    =      -2.1408355397699492 [Eh]
	 SCS Total Energy          =    -498.1357414305554130 [Eh]
	-----------------------------------------------------------

  Dipole Moment: [D]
     X:     8.4957      Y:     1.3669      Z:     2.9367     Total:     9.0923

*** Psi4 exiting successfully. Buy a developer a beer!
