                               Psi4 1.4a3.dev225

  ==> Input File <==

--------------------------------------------------------------------------
#psi4
#
memory 32 gb

molecule  {
-1 1
  O       -2.4775990    -1.4732410    -0.5357720
  O       -2.5836320     0.8103810    -0.7086120
  C        0.1769840    -0.1996970     0.5360780
  C        0.8528670     0.9715620     0.1268880
  C       -1.2378850    -0.1617980     1.0317040
  C        0.8256870    -1.4354030     0.3918760
  C        2.1654290     0.8711020    -0.3500530
  C        0.1613040     2.3091050     0.2016770
  C        2.1298550    -1.5237740    -0.0958170
  C        2.8103870    -0.3625320    -0.4658790
  C       -2.2079558    -0.2659035    -0.2113786
  H       -1.4126520    -1.0091000     1.7035120
  H       -1.4413430     0.7679950     1.5725290
  H        0.2756770    -2.3364080     0.6567980
  H        2.6838580     1.7794620    -0.6595800
  H       -0.8491240     2.2156170    -0.2099720
  H        0.0735000     2.6566880     1.2394400
  H        0.7245490     3.0640340    -0.3581400
  H        2.6081740    -2.4970700    -0.1982670
  H        3.8302350    -0.4147610    -0.8445580
units angstrom
no_reorient  #important for SAPT in psi4, default
symmetry c1  #important for SAPT in psi4, default
}

set PROPERTIES_ORIGIN ["COM"]
properties('MP2/aug-cc-pvtz', properties = ['dipole'])
--------------------------------------------------------------------------

    Molecular point group: c1
  Charge       = -1
  Multiplicity = 1
  Basis Set: AUG-CC-PVTZ
    Blend: AUG-CC-PVTZ
  Basis Set: (AUG-CC-PVTZ AUX)
    Blend: AUG-CC-PVTZ-JKFIT

    Orbital Energies [Eh]
    ---------------------

    Doubly Occupied:

       1A    -20.314657     2A    -20.303397     3A    -11.156907
       4A    -11.118359     5A    -11.117291     6A    -11.116015
       7A    -11.114806     8A    -11.112681     9A    -11.106711
      10A    -11.093222    11A    -11.073765    12A     -1.181762
      13A     -1.081076    14A     -1.032276    15A     -0.927193
      16A     -0.907777    17A     -0.821393    18A     -0.788089
      19A     -0.689758    20A     -0.664334    21A     -0.562254
      22A     -0.533507    23A     -0.523558    24A     -0.499751
      25A     -0.462873    26A     -0.453316    27A     -0.440102
      28A     -0.427875    29A     -0.426963    30A     -0.412492
      31A     -0.383935    32A     -0.375271    33A     -0.365009
      34A     -0.352089    35A     -0.333194    36A     -0.237157
      37A     -0.222912    38A     -0.211126    39A     -0.206721
      40A     -0.175940

  @DF-RHF Final Energy:  -495.99627682754465

   => Energetics <=

    Nuclear Repulsion Energy =            572.1559380904254795
    One-Electron Energy =               -1823.6494016643778195
    Two-Electron Energy =                 755.4971867464076922
    Total Energy =                       -495.9962768275446479
  Basis Set: (AUG-CC-PVTZ AUX)
    Blend: AUG-CC-PVTZ-RI
    Molecular point group: c1

    Geometry (in Angstrom), charge = -1, multiplicity = 1:

       Center              X                  Y                   Z               Mass
    ------------   -----------------  -----------------  -----------------  -----------------
         O           -2.435399888061    -1.447003811859    -0.515657968515    15.994914619570
         O           -2.541432888061     0.836618188141    -0.688497968515    15.994914619570
         C            0.219183111939    -0.173459811859     0.556192031485    12.000000000000
         C            0.895066111939     0.997799188141     0.147002031485    12.000000000000
         C           -1.195685888061    -0.135560811859     1.051818031485    12.000000000000
         C            0.867886111939    -1.409165811859     0.411990031485    12.000000000000
         C            2.207628111939     0.897339188141    -0.329938968515    12.000000000000
         C            0.203503111939     2.335342188141     0.221791031485    12.000000000000
         C            2.172054111939    -1.497536811859    -0.075702968515    12.000000000000
         C            2.852586111939    -0.336294811859    -0.445764968515    12.000000000000
         C           -2.165756688061    -0.239666311859    -0.191264568515    12.000000000000
         H           -1.370452888061    -0.982862811859     1.723626031485     1.007825032230
         H           -1.399143888061     0.794232188141     1.592643031485     1.007825032230
         H            0.317876111939    -2.310170811859     0.676912031485     1.007825032230
         H            2.726057111939     1.805699188141    -0.639465968515     1.007825032230
         H           -0.806924888061     2.241854188141    -0.189857968515     1.007825032230
         H            0.115699111939     2.682925188141     1.259554031485     1.007825032230
         H            0.766748111939     3.090271188141    -0.338025968515     1.007825032230
         H            2.650373111939    -2.470832811859    -0.178152968515     1.007825032230
         H            3.872434111939    -0.388523811859    -0.824443968515     1.007825032230

  Basis Set: AUG-CC-PVTZ
    Blend: AUG-CC-PVTZ
  Basis Set: (AUG-CC-PVTZ AUX)
    Blend: AUG-CC-PVTZ-JKFIT
	 Reference Energy          =    -495.9962768275446479 [Eh]
	 Singles Energy            =      -0.0000000000000000 [Eh]
	 Same-Spin Energy          =      -0.5330415515250593 [Eh]
	 Opposite-Spin Energy      =      -1.6355653916717925 [Eh]
	 Correlation Energy        =      -2.1686069431968518 [Eh]
	 Total Energy              =    -498.1648837707414827 [Eh]

	 ================> DF-SCS-MP2 Energies <==================
	-----------------------------------------------------------
	 SCS Same-Spin Scale       =       0.3333333333333333 [-]
	 SCS Opposite-Spin Scale   =       1.2000000000000000 [-]
	 SCS Same-Spin Energy      =      -0.1776805171750198 [Eh]
	 SCS Opposite-Spin Energy  =      -1.9626784700061508 [Eh]
	 SCS Correlation Energy    =      -2.1403589871811706 [Eh]
	 SCS Total Energy          =    -498.1366358147258211 [Eh]
	-----------------------------------------------------------

  Dipole Moment: [D]
     X:     8.4799      Y:     1.6271      Z:     2.9559     Total:     9.1265

*** Psi4 exiting successfully. Buy a developer a beer!
