                               Psi4 1.4a3.dev225

  ==> Input File <==

--------------------------------------------------------------------------
#psi4
#
memory 32 gb

molecule  {
-1 1
  O       -2.4775990    -1.4732410    -0.5357720
  O       -2.5836320     0.8103810    -0.7086120
  C        0.1769840    -0.1996970     0.5360780
  C        0.8528670     0.9715620     0.1268880
  C       -1.2378850    -0.1617980     1.0317040
  C        0.8256870    -1.4354030     0.3918760
  C        2.1654290     0.8711020    -0.3500530
  C        0.1613040     2.3091050     0.2016770
  C        2.1298550    -1.5237740    -0.0958170
  C        2.8103870    -0.3625320    -0.4658790
  C       -2.2184660    -0.2891600    -0.2009230
  H       -1.4126520    -1.0091000     1.7035120
  H       -1.4413430     0.7679950     1.5725290
  H        0.2756770    -2.3364080     0.6567980
  H        2.6743519     1.7628060    -0.6539044
  H       -0.8491240     2.2156170    -0.2099720
  H        0.0735000     2.6566880     1.2394400
  H        0.7245490     3.0640340    -0.3581400
  H        2.6081740    -2.4970700    -0.1982670
  H        3.8302350    -0.4147610    -0.8445580
units angstrom
no_reorient  #important for SAPT in psi4, default
symmetry c1  #important for SAPT in psi4, default
}

set PROPERTIES_ORIGIN ["COM"]
properties('MP2/aug-cc-pvtz', properties = ['dipole'])
--------------------------------------------------------------------------

    Molecular point group: c1
  Charge       = -1
  Multiplicity = 1
  Basis Set: AUG-CC-PVTZ
    Blend: AUG-CC-PVTZ
  Basis Set: (AUG-CC-PVTZ AUX)
    Blend: AUG-CC-PVTZ-JKFIT

    Orbital Energies [Eh]
    ---------------------

    Doubly Occupied:

       1A    -20.309151     2A    -20.308968     3A    -11.156870
       4A    -11.118161     5A    -11.116879     6A    -11.115894
       7A    -11.112554     8A    -11.112272     9A    -11.106854
      10A    -11.092225    11A    -11.073616    12A     -1.179205
      13A     -1.083352    14A     -1.032204    15A     -0.926774
      16A     -0.908240    17A     -0.821333    18A     -0.787748
      19A     -0.691300    20A     -0.664194    21A     -0.563124
      22A     -0.533047    23A     -0.523150    24A     -0.501375
      25A     -0.461414    26A     -0.453872    27A     -0.439831
      28A     -0.428323    29A     -0.426209    30A     -0.412719
      31A     -0.384202    32A     -0.374750    33A     -0.364547
      34A     -0.351938    35A     -0.332846    36A     -0.235066
      37A     -0.225519    38A     -0.211275    39A     -0.207022
      40A     -0.176125

  @DF-RHF Final Energy:  -495.99737284971428

   => Energetics <=

    Nuclear Repulsion Energy =            572.1288442972245321
    One-Electron Energy =               -1823.6041331985481975
    Two-Electron Energy =                 755.4779160516093270
    Total Energy =                       -495.9973728497143384
  Basis Set: (AUG-CC-PVTZ AUX)
    Blend: AUG-CC-PVTZ-RI
    Molecular point group: c1

    Geometry (in Angstrom), charge = -1, multiplicity = 1:

       Center              X                  Y                   Z               Mass
    ------------   -----------------  -----------------  -----------------  -----------------
         O           -2.434489498594    -1.445018947854    -0.516538063696    15.994914619570
         O           -2.540522498594     0.838603052146    -0.689378063696    15.994914619570
         C            0.220093501406    -0.171474947854     0.555311936304    12.000000000000
         C            0.895976501406     0.999784052146     0.146121936304    12.000000000000
         C           -1.194775498594    -0.133575947854     1.050937936304    12.000000000000
         C            0.868796501406    -1.407180947854     0.411109936304    12.000000000000
         C            2.208538501406     0.899324052146    -0.330819063696    12.000000000000
         C            0.204413501406     2.337327052146     0.220910936304    12.000000000000
         C            2.172964501406    -1.495551947854    -0.076583063696    12.000000000000
         C            2.853496501406    -0.334309947854    -0.446645063696    12.000000000000
         C           -2.175356498594    -0.260937947854    -0.181689063696    12.000000000000
         H           -1.369542498594    -0.980877947854     1.722745936304     1.007825032230
         H           -1.398233498594     0.796217052146     1.591762936304     1.007825032230
         H            0.318786501406    -2.308185947854     0.676031936304     1.007825032230
         H            2.717461401406     1.791028052146    -0.634670463696     1.007825032230
         H           -0.806014498594     2.243839052146    -0.190738063696     1.007825032230
         H            0.116609501406     2.684910052146     1.258673936304     1.007825032230
         H            0.767658501406     3.092256052146    -0.338906063696     1.007825032230
         H            2.651283501406    -2.468847947854    -0.179033063696     1.007825032230
         H            3.873344501406    -0.386538947854    -0.825324063696     1.007825032230

  Basis Set: AUG-CC-PVTZ
    Blend: AUG-CC-PVTZ
  Basis Set: (AUG-CC-PVTZ AUX)
    Blend: AUG-CC-PVTZ-JKFIT
	 Reference Energy          =    -495.9973728497142815 [Eh]
	 Singles Energy            =      -0.0000000000000000 [Eh]
	 Same-Spin Energy          =      -0.5329708888041624 [Eh]
	 Opposite-Spin Energy      =      -1.6353676663870695 [Eh]
	 Correlation Energy        =      -2.1683385551912320 [Eh]
	 Total Energy              =    -498.1657114049054940 [Eh]

	 ================> DF-SCS-MP2 Energies <==================
	-----------------------------------------------------------
	 SCS Same-Spin Scale       =       0.3333333333333333 [-]
	 SCS Opposite-Spin Scale   =       1.2000000000000000 [-]
	 SCS Same-Spin Energy      =      -0.1776569629347208 [Eh]
	 SCS Opposite-Spin Energy  =      -1.9624411996644833 [Eh]
	 SCS Correlation Energy    =      -2.1400981625992039 [Eh]
	 SCS Total Energy          =    -498.1374710123134832 [Eh]
	-----------------------------------------------------------

  Dipole Moment: [D]
     X:     8.4920      Y:     1.4044      Z:     2.9655     Total:     9.1038

*** Psi4 exiting successfully. Buy a developer a beer!
