                               Psi4 1.4a3.dev225

  ==> Input File <==

--------------------------------------------------------------------------
#psi4
#
memory 32 gb

molecule  {
-1 1
  O       -2.4775990    -1.4732410    -0.5357720
  O       -2.5836320     0.8103810    -0.7086120
  C        0.1769840    -0.1996970     0.5360780
  C        0.8528670     0.9715620     0.1268880
  C       -1.2378850    -0.1617980     1.0317040
  C        0.8256870    -1.4354030     0.3918760
  C        2.1654290     0.8711020    -0.3500530
  C        0.1613040     2.3091050     0.2016770
  C        2.1298550    -1.5237740    -0.0958170
  C        2.8103870    -0.3625320    -0.4658790
  C       -2.2184660    -0.2891600    -0.2009230
  H       -1.4126520    -1.0091000     1.7035120
  H       -1.4376259     0.7510081     1.5626483
  H        0.2756770    -2.3364080     0.6567980
  H        2.6838580     1.7794620    -0.6595800
  H       -0.8491240     2.2156170    -0.2099720
  H        0.0735000     2.6566880     1.2394400
  H        0.7245490     3.0640340    -0.3581400
  H        2.6081740    -2.4970700    -0.1982670
  H        3.8302350    -0.4147610    -0.8445580
units angstrom
no_reorient  #important for SAPT in psi4, default
symmetry c1  #important for SAPT in psi4, default
}

set PROPERTIES_ORIGIN ["COM"]
properties('MP2/aug-cc-pvtz', properties = ['dipole'])
--------------------------------------------------------------------------

    Molecular point group: c1
  Charge       = -1
  Multiplicity = 1
  Basis Set: AUG-CC-PVTZ
    Blend: AUG-CC-PVTZ
  Basis Set: (AUG-CC-PVTZ AUX)
    Blend: AUG-CC-PVTZ-JKFIT

    Orbital Energies [Eh]
    ---------------------

    Doubly Occupied:

       1A    -20.309207     2A    -20.308800     3A    -11.156726
       4A    -11.118354     5A    -11.117122     6A    -11.116006
       7A    -11.114641     8A    -11.112553     9A    -11.106824
      10A    -11.092280    11A    -11.071232    12A     -1.179158
      13A     -1.083306    14A     -1.032179    15A     -0.927058
      16A     -0.907832    17A     -0.821647    18A     -0.788551
      19A     -0.689835    20A     -0.664573    21A     -0.562274
      22A     -0.533860    23A     -0.523280    24A     -0.499863
      25A     -0.461685    26A     -0.453527    27A     -0.439791
      28A     -0.428664    29A     -0.426689    30A     -0.412508
      31A     -0.384992    32A     -0.374724    33A     -0.364655
      34A     -0.352108    35A     -0.333163    36A     -0.235099
      37A     -0.225552    38A     -0.211272    39A     -0.207069
      40A     -0.176108

  @DF-RHF Final Energy:  -495.99734131618254

   => Energetics <=

    Nuclear Repulsion Energy =            572.1231774722518821
    One-Electron Energy =               -1823.5915010668284140
    Two-Electron Energy =                 755.4709822783939899
    Total Energy =                       -495.9973413161825420
  Basis Set: (AUG-CC-PVTZ AUX)
    Blend: AUG-CC-PVTZ-RI
    Molecular point group: c1

    Geometry (in Angstrom), charge = -1, multiplicity = 1:

       Center              X                  Y                   Z               Mass
    ------------   -----------------  -----------------  -----------------  -----------------
         O           -2.434578903191    -1.445016710575    -0.516432884562    15.994914619570
         O           -2.540611903191     0.838605289425    -0.689272884562    15.994914619570
         C            0.220004096809    -0.171472710575     0.555417115438    12.000000000000
         C            0.895887096809     0.999786289425     0.146227115438    12.000000000000
         C           -1.194864903191    -0.133573710575     1.051043115438    12.000000000000
         C            0.868707096809    -1.407178710575     0.411215115438    12.000000000000
         C            2.208449096809     0.899326289425    -0.330713884562    12.000000000000
         C            0.204324096809     2.337329289425     0.221016115438    12.000000000000
         C            2.172875096809    -1.495549710575    -0.076477884562    12.000000000000
         C            2.853407096809    -0.334307710575    -0.446539884562    12.000000000000
         C           -2.175445903191    -0.260935710575    -0.181583884562    12.000000000000
         H           -1.369631903191    -0.980875710575     1.722851115438     1.007825032230
         H           -1.394605803191     0.779232389425     1.581987415438     1.007825032230
         H            0.318697096809    -2.308183710575     0.676137115438     1.007825032230
         H            2.726878096809     1.807686289425    -0.640240884562     1.007825032230
         H           -0.806103903191     2.243841289425    -0.190632884562     1.007825032230
         H            0.116520096809     2.684912289425     1.258779115438     1.007825032230
         H            0.767569096809     3.092258289425    -0.338800884562     1.007825032230
         H            2.651194096809    -2.468845710575    -0.178927884562     1.007825032230
         H            3.873255096809    -0.386536710575    -0.825218884562     1.007825032230

  Basis Set: AUG-CC-PVTZ
    Blend: AUG-CC-PVTZ
  Basis Set: (AUG-CC-PVTZ AUX)
    Blend: AUG-CC-PVTZ-JKFIT
	 Reference Energy          =    -495.9973413161825420 [Eh]
	 Singles Energy            =      -0.0000000000000000 [Eh]
	 Same-Spin Energy          =      -0.5329794723551009 [Eh]
	 Opposite-Spin Energy      =      -1.6353586241543250 [Eh]
	 Correlation Energy        =      -2.1683380965094257 [Eh]
	 Total Energy              =    -498.1656794126919863 [Eh]

	 ================> DF-SCS-MP2 Energies <==================
	-----------------------------------------------------------
	 SCS Same-Spin Scale       =       0.3333333333333333 [-]
	 SCS Opposite-Spin Scale   =       1.2000000000000000 [-]
	 SCS Same-Spin Energy      =      -0.1776598241183669 [Eh]
	 SCS Opposite-Spin Energy  =      -1.9624303489851900 [Eh]
	 SCS Correlation Energy    =      -2.1400901731035571 [Eh]
	 SCS Total Energy          =    -498.1374314892860866 [Eh]
	-----------------------------------------------------------

  Dipole Moment: [D]
     X:     8.4786      Y:     1.4015      Z:     2.9811     Total:     9.0960

*** Psi4 exiting successfully. Buy a developer a beer!
