                               Psi4 1.4a3.dev225

  ==> Input File <==

--------------------------------------------------------------------------
#psi4
#
memory 32 gb

molecule  {
-1 1
  O       -2.4775990    -1.4732410    -0.5357720
  O       -2.5836320     0.8103810    -0.7086120
  C        0.1769840    -0.1996970     0.5360780
  C        0.8432992     0.9549817     0.1326805
  C       -1.2378850    -0.1617980     1.0317040
  C        0.8256870    -1.4354030     0.3918760
  C        2.1654290     0.8711020    -0.3500530
  C        0.1613040     2.3091050     0.2016770
  C        2.1298550    -1.5237740    -0.0958170
  C        2.8103870    -0.3625320    -0.4658790
  C       -2.2184660    -0.2891600    -0.2009230
  H       -1.4126520    -1.0091000     1.7035120
  H       -1.4413430     0.7679950     1.5725290
  H        0.2756770    -2.3364080     0.6567980
  H        2.6838580     1.7794620    -0.6595800
  H       -0.8491240     2.2156170    -0.2099720
  H        0.0735000     2.6566880     1.2394400
  H        0.7245490     3.0640340    -0.3581400
  H        2.6081740    -2.4970700    -0.1982670
  H        3.8302350    -0.4147610    -0.8445580
units angstrom
no_reorient  #important for SAPT in psi4, default
symmetry c1  #important for SAPT in psi4, default
}

set PROPERTIES_ORIGIN ["COM"]
properties('MP2/aug-cc-pvtz', properties = ['dipole'])
--------------------------------------------------------------------------

    Molecular point group: c1
  Charge       = -1
  Multiplicity = 1
  Basis Set: AUG-CC-PVTZ
    Blend: AUG-CC-PVTZ
  Basis Set: (AUG-CC-PVTZ AUX)
    Blend: AUG-CC-PVTZ-JKFIT

    Orbital Energies [Eh]
    ---------------------

    Doubly Occupied:

       1A    -20.308999     2A    -20.308894     3A    -11.156706
       4A    -11.118745     5A    -11.116699     6A    -11.115921
       7A    -11.115507     8A    -11.110368     9A    -11.107659
      10A    -11.092257    11A    -11.073447    12A     -1.179106
      13A     -1.083245    14A     -1.033230    15A     -0.927510
      16A     -0.906281    17A     -0.820054    18A     -0.787959
      19A     -0.693052    20A     -0.662947    21A     -0.562580
      22A     -0.532957    23A     -0.523358    24A     -0.499793
      25A     -0.461193    26A     -0.452771    27A     -0.440085
      28A     -0.427874    29A     -0.425452    30A     -0.411987
      31A     -0.382672    32A     -0.375484    33A     -0.365221
      34A     -0.352639    35A     -0.331791    36A     -0.235811
      37A     -0.225514    38A     -0.211017    39A     -0.206218
      40A     -0.177774

  @DF-RHF Final Energy:  -495.99702734875115

   => Energetics <=

    Nuclear Repulsion Energy =            572.2219852410535168
    One-Electron Energy =               -1823.7964674121944881
    Two-Electron Energy =                 755.5774548223898819
    Total Energy =                       -495.9970273487510894
  Basis Set: (AUG-CC-PVTZ AUX)
    Blend: AUG-CC-PVTZ-RI
    Molecular point group: c1

    Geometry (in Angstrom), charge = -1, multiplicity = 1:

       Center              X                  Y                   Z               Mass
    ------------   -----------------  -----------------  -----------------  -----------------
         O           -2.433783521573    -1.443796775875    -0.516966011364    15.994914619570
         O           -2.539816521573     0.839825224125    -0.689806011364    15.994914619570
         C            0.220799478427    -0.170252775875     0.554883988636    12.000000000000
         C            0.887114678427     0.984425924125     0.151486488636    12.000000000000
         C           -1.194069521573    -0.132353775875     1.050509988636    12.000000000000
         C            0.869502478427    -1.405958775875     0.410681988636    12.000000000000
         C            2.209244478427     0.900546224125    -0.331247011364    12.000000000000
         C            0.205119478427     2.338549224125     0.220482988636    12.000000000000
         C            2.173670478427    -1.494329775875    -0.077011011364    12.000000000000
         C            2.854202478427    -0.333087775875    -0.447073011364    12.000000000000
         C           -2.174650521573    -0.259715775875    -0.182117011364    12.000000000000
         H           -1.368836521573    -0.979655775875     1.722317988636     1.007825032230
         H           -1.397527521573     0.797439224125     1.591334988636     1.007825032230
         H            0.319492478427    -2.306963775875     0.675603988636     1.007825032230
         H            2.727673478427     1.808906224125    -0.640774011364     1.007825032230
         H           -0.805308521573     2.245061224125    -0.191166011364     1.007825032230
         H            0.117315478427     2.686132224125     1.258245988636     1.007825032230
         H            0.768364478427     3.093478224125    -0.339334011364     1.007825032230
         H            2.651989478427    -2.467625775875    -0.179461011364     1.007825032230
         H            3.874050478427    -0.385316775875    -0.825752011364     1.007825032230

  Basis Set: AUG-CC-PVTZ
    Blend: AUG-CC-PVTZ
  Basis Set: (AUG-CC-PVTZ AUX)
    Blend: AUG-CC-PVTZ-JKFIT
	 Reference Energy          =    -495.9970273487511463 [Eh]
	 Singles Energy            =      -0.0000000000000000 [Eh]
	 Same-Spin Energy          =      -0.5329098567713196 [Eh]
	 Opposite-Spin Energy      =      -1.6354229801539253 [Eh]
	 Correlation Energy        =      -2.1683328369252450 [Eh]
	 Total Energy              =    -498.1653601856763771 [Eh]

	 ================> DF-SCS-MP2 Energies <==================
	-----------------------------------------------------------
	 SCS Same-Spin Scale       =       0.3333333333333333 [-]
	 SCS Opposite-Spin Scale   =       1.2000000000000000 [-]
	 SCS Same-Spin Energy      =      -0.1776366189237732 [Eh]
	 SCS Opposite-Spin Energy  =      -1.9625075761847102 [Eh]
	 SCS Correlation Energy    =      -2.1401441951084834 [Eh]
	 SCS Total Energy          =    -498.1371715438596084 [Eh]
	-----------------------------------------------------------

  Dipole Moment: [D]
     X:     8.5088      Y:     1.3761      Z:     2.9653     Total:     9.1152

*** Psi4 exiting successfully. Buy a developer a beer!
