                               Psi4 1.4a3.dev225

  ==> Input File <==

--------------------------------------------------------------------------
#psi4
#
memory 32 gb

molecule  {
-1 1
  O       -2.4775990    -1.4732410    -0.5357720
  O       -2.5836320     0.8103810    -0.7086120
  C        0.1769840    -0.1996970     0.5360780
  C        0.8528670     0.9715620     0.1268880
  C       -1.2378850    -0.1617980     1.0317040
  C        0.8256870    -1.4354030     0.3918760
  C        2.1654290     0.8711020    -0.3500530
  C        0.1613040     2.3091050     0.2016770
  C        2.1298550    -1.5237740    -0.0958170
  C        2.6909217    -0.2888038    -0.4253703
  C       -2.2184660    -0.2891600    -0.2009230
  H       -1.4126520    -1.0091000     1.7035120
  H       -1.4413430     0.7679950     1.5725290
  H        0.2756770    -2.3364080     0.6567980
  H        2.6838580     1.7794620    -0.6595800
  H       -0.8491240     2.2156170    -0.2099720
  H        0.0735000     2.6566880     1.2394400
  H        0.7245490     3.0640340    -0.3581400
  H        2.6081740    -2.4970700    -0.1982670
  H        3.8302350    -0.4147610    -0.8445580
units angstrom
no_reorient  #important for SAPT in psi4, default
symmetry c1  #important for SAPT in psi4, default
}

set PROPERTIES_ORIGIN ["COM"]
properties('MP2/aug-cc-pvtz', properties = ['dipole'])
--------------------------------------------------------------------------

    Molecular point group: c1
  Charge       = -1
  Multiplicity = 1
  Basis Set: AUG-CC-PVTZ
    Blend: AUG-CC-PVTZ
  Basis Set: (AUG-CC-PVTZ AUX)
    Blend: AUG-CC-PVTZ-JKFIT

    Orbital Energies [Eh]
    ---------------------

    Doubly Occupied:

       1A    -20.308479     2A    -20.308398     3A    -11.155908
       4A    -11.117766     5A    -11.117184     6A    -11.114774
       7A    -11.109520     8A    -11.108335     9A    -11.101164
      10A    -11.092235    11A    -11.072724    12A     -1.178585
      13A     -1.082754    14A     -1.046943    15A     -0.929132
      16A     -0.917347    17A     -0.829505    18A     -0.781939
      19A     -0.691811    20A     -0.660952    21A     -0.564131
      22A     -0.532939    23A     -0.528793    24A     -0.492688
      25A     -0.467064    26A     -0.461583    27A     -0.431229
      28A     -0.427215    29A     -0.423922    30A     -0.411189
      31A     -0.384812    32A     -0.377955    33A     -0.357501
      34A     -0.355770    35A     -0.324802    36A     -0.240760
      37A     -0.225194    38A     -0.213920    39A     -0.208718
      40A     -0.175106

  @DF-RHF Final Energy:  -495.96963682120065

   => Energetics <=

    Nuclear Repulsion Energy =            574.8392954247608486
    One-Electron Energy =               -1828.9563747099155080
    Two-Electron Energy =                 758.1474424639540075
    Total Energy =                       -495.9696368212006519
  Basis Set: (AUG-CC-PVTZ AUX)
    Blend: AUG-CC-PVTZ-RI
    Molecular point group: c1

    Geometry (in Angstrom), charge = -1, multiplicity = 1:

       Center              X                  Y                   Z               Mass
    ------------   -----------------  -----------------  -----------------  -----------------
         O           -2.424936293959    -1.451067003632    -0.519760816735    15.994914619570
         O           -2.530969293959     0.832554996368    -0.692600816735    15.994914619570
         C            0.229646706041    -0.177523003632     0.552089183265    12.000000000000
         C            0.905529706041     0.993735996368     0.142899183265    12.000000000000
         C           -1.185222293959    -0.139624003632     1.047715183265    12.000000000000
         C            0.878349706041    -1.413229003632     0.407887183265    12.000000000000
         C            2.218091706041     0.893275996368    -0.334041816735    12.000000000000
         C            0.213966706041     2.331278996368     0.217688183265    12.000000000000
         C            2.182517706041    -1.501600003632    -0.079805816735    12.000000000000
         C            2.743584406041    -0.266629803632    -0.409359116735    12.000000000000
         C           -2.165803293959    -0.266986003632    -0.184911816735    12.000000000000
         H           -1.359989293959    -0.986926003632     1.719523183265     1.007825032230
         H           -1.388680293959     0.790168996368     1.588540183265     1.007825032230
         H            0.328339706041    -2.314234003632     0.672809183265     1.007825032230
         H            2.736520706041     1.801635996368    -0.643568816735     1.007825032230
         H           -0.796461293959     2.237790996368    -0.193960816735     1.007825032230
         H            0.126162706041     2.678861996368     1.255451183265     1.007825032230
         H            0.777211706041     3.086207996368    -0.342128816735     1.007825032230
         H            2.660836706041    -2.474896003632    -0.182255816735     1.007825032230
         H            3.882897706041    -0.392587003632    -0.828546816735     1.007825032230

  Basis Set: AUG-CC-PVTZ
    Blend: AUG-CC-PVTZ
  Basis Set: (AUG-CC-PVTZ AUX)
    Blend: AUG-CC-PVTZ-JKFIT
	 Reference Energy          =    -495.9696368212006519 [Eh]
	 Singles Energy            =      -0.0000000000000000 [Eh]
	 Same-Spin Energy          =      -0.5333586098036251 [Eh]
	 Opposite-Spin Energy      =      -1.6361389715075645 [Eh]
	 Correlation Energy        =      -2.1694975813111896 [Eh]
	 Total Energy              =    -498.1391344025118428 [Eh]

	 ================> DF-SCS-MP2 Energies <==================
	-----------------------------------------------------------
	 SCS Same-Spin Scale       =       0.3333333333333333 [-]
	 SCS Opposite-Spin Scale   =       1.2000000000000000 [-]
	 SCS Same-Spin Energy      =      -0.1777862032678750 [Eh]
	 SCS Opposite-Spin Energy  =      -1.9633667658090772 [Eh]
	 SCS Correlation Energy    =      -2.1411529690769524 [Eh]
	 SCS Total Energy          =    -498.1107897902775790 [Eh]
	-----------------------------------------------------------

  Dipole Moment: [D]
     X:     8.4029      Y:     1.4091      Z:     3.0196     Total:     9.0395

*** Psi4 exiting successfully. Buy a developer a beer!
