                               Psi4 1.4a3.dev225

  ==> Input File <==

--------------------------------------------------------------------------
#psi4
#
memory 32 gb

molecule  {
-1 1
  O       -2.4775990    -1.4732410    -0.5357720
  O       -2.5836320     0.8103810    -0.7086120
  C        0.1769840    -0.1996970     0.5360780
  C        0.8528670     0.9715620     0.1268880
  C       -1.2378850    -0.1617980     1.0317040
  C        0.8256870    -1.4354030     0.3918760
  C        2.1654290     0.8711020    -0.3500530
  C        0.1613040     2.3091050     0.2016770
  C        2.1111596    -1.5225072    -0.0888259
  C        2.8103870    -0.3625320    -0.4658790
  C       -2.2184660    -0.2891600    -0.2009230
  H       -1.4126520    -1.0091000     1.7035120
  H       -1.4413430     0.7679950     1.5725290
  H        0.2756770    -2.3364080     0.6567980
  H        2.6838580     1.7794620    -0.6595800
  H       -0.8491240     2.2156170    -0.2099720
  H        0.0735000     2.6566880     1.2394400
  H        0.7245490     3.0640340    -0.3581400
  H        2.6081740    -2.4970700    -0.1982670
  H        3.8302350    -0.4147610    -0.8445580
units angstrom
no_reorient  #important for SAPT in psi4, default
symmetry c1  #important for SAPT in psi4, default
}

set PROPERTIES_ORIGIN ["COM"]
properties('MP2/aug-cc-pvtz', properties = ['dipole'])
--------------------------------------------------------------------------

    Molecular point group: c1
  Charge       = -1
  Multiplicity = 1
  Basis Set: AUG-CC-PVTZ
    Blend: AUG-CC-PVTZ
  Basis Set: (AUG-CC-PVTZ AUX)
    Blend: AUG-CC-PVTZ-JKFIT

    Orbital Energies [Eh]
    ---------------------

    Doubly Occupied:

       1A    -20.309246     2A    -20.309128     3A    -11.157048
       4A    -11.119001     5A    -11.116578     6A    -11.115970
       7A    -11.114935     8A    -11.112856     9A    -11.104917
      10A    -11.092006    11A    -11.073777    12A     -1.179339
      13A     -1.083480    14A     -1.033078    15A     -0.926240
      16A     -0.909143    17A     -0.822437    18A     -0.786688
      19A     -0.689675    20A     -0.664208    21A     -0.561866
      22A     -0.533238    23A     -0.523842    24A     -0.499140
      25A     -0.461590    26A     -0.454709    27A     -0.437848
      28A     -0.428495    29A     -0.425697    30A     -0.412669
      31A     -0.384109    32A     -0.375272    33A     -0.365351
      34A     -0.350189    35A     -0.333423    36A     -0.234665
      37A     -0.225640    38A     -0.212487    39A     -0.208505
      40A     -0.175230

  @DF-RHF Final Energy:  -495.99673748859158

   => Energetics <=

    Nuclear Repulsion Energy =            572.2785239061108769
    One-Electron Energy =               -1823.9030899023682650
    Two-Electron Energy =                 755.6278285076657539
    Total Energy =                       -495.9967374885916342
  Basis Set: (AUG-CC-PVTZ AUX)
    Blend: AUG-CC-PVTZ-RI
    Molecular point group: c1

    Geometry (in Angstrom), charge = -1, multiplicity = 1:

       Center              X                  Y                   Z               Mass
    ------------   -----------------  -----------------  -----------------  -----------------
         O           -2.433048710001    -1.445233545191    -0.517062503887    15.994914619570
         O           -2.539081710001     0.838388454809    -0.689902503887    15.994914619570
         C            0.221534289999    -0.171689545191     0.554787496113    12.000000000000
         C            0.897417289999     0.999569454809     0.145597496113    12.000000000000
         C           -1.193334710001    -0.133790545191     1.050413496113    12.000000000000
         C            0.870237289999    -1.407395545191     0.410585496113    12.000000000000
         C            2.209979289999     0.899109454809    -0.331343503887    12.000000000000
         C            0.205854289999     2.337112454809     0.220386496113    12.000000000000
         C            2.155709889999    -1.494499745191    -0.070116403887    12.000000000000
         C            2.854937289999    -0.334524545191    -0.447169503887    12.000000000000
         C           -2.173915710001    -0.261152545191    -0.182213503887    12.000000000000
         H           -1.368101710001    -0.981092545191     1.722221496113     1.007825032230
         H           -1.396792710001     0.796002454809     1.591238496113     1.007825032230
         H            0.320227289999    -2.308400545191     0.675507496113     1.007825032230
         H            2.728408289999     1.807469454809    -0.640870503887     1.007825032230
         H           -0.804573710001     2.243624454809    -0.191262503887     1.007825032230
         H            0.118050289999     2.684695454809     1.258149496113     1.007825032230
         H            0.769099289999     3.092041454809    -0.339430503887     1.007825032230
         H            2.652724289999    -2.469062545191    -0.179557503887     1.007825032230
         H            3.874785289999    -0.386753545191    -0.825848503887     1.007825032230

  Basis Set: AUG-CC-PVTZ
    Blend: AUG-CC-PVTZ
  Basis Set: (AUG-CC-PVTZ AUX)
    Blend: AUG-CC-PVTZ-JKFIT
	 Reference Energy          =    -495.9967374885915774 [Eh]
	 Singles Energy            =      -0.0000000000000000 [Eh]
	 Same-Spin Energy          =      -0.5330478106528282 [Eh]
	 Opposite-Spin Energy      =      -1.6355216393482888 [Eh]
	 Correlation Energy        =      -2.1685694500011170 [Eh]
	 Total Energy              =    -498.1653069385927211 [Eh]

	 ================> DF-SCS-MP2 Energies <==================
	-----------------------------------------------------------
	 SCS Same-Spin Scale       =       0.3333333333333333 [-]
	 SCS Opposite-Spin Scale   =       1.2000000000000000 [-]
	 SCS Same-Spin Energy      =      -0.1776826035509427 [Eh]
	 SCS Opposite-Spin Energy  =      -1.9626259672179465 [Eh]
	 SCS Correlation Energy    =      -2.1403085707688891 [Eh]
	 SCS Total Energy          =    -498.1370460593604435 [Eh]
	-----------------------------------------------------------

  Dipole Moment: [D]
     X:     8.4731      Y:     1.3948      Z:     2.9733     Total:     9.0873

*** Psi4 exiting successfully. Buy a developer a beer!
