                               Psi4 1.4a3.dev225

  ==> Input File <==

--------------------------------------------------------------------------
#psi4
#
memory 32 gb

molecule  {
-1 1
  O       -2.4775990    -1.4732410    -0.5357720
  O       -2.5836320     0.8103810    -0.7086120
  C        0.1769840    -0.1996970     0.5360780
  C        0.8528670     0.9715620     0.1268880
  C       -1.2378850    -0.1617980     1.0317040
  C        0.8256870    -1.4354030     0.3918760
  C        2.1654290     0.8711020    -0.3500530
  C        0.1613040     2.3091050     0.2016770
  C        2.1298550    -1.5237740    -0.0958170
  C        2.8103870    -0.3625320    -0.4658790
  C       -2.2184660    -0.2891600    -0.2009230
  H       -1.4126520    -1.0091000     1.7035120
  H       -1.4413430     0.7679950     1.5725290
  H        0.2756770    -2.3364080     0.6567980
  H        2.6838580     1.7794620    -0.6595800
  H       -0.8491240     2.2156170    -0.2099720
  H        0.0735000     2.6566880     1.2394400
  H        0.7245490     3.0640340    -0.3581400
  H        2.6959948    -2.6757700    -0.2170771
  H        3.8302350    -0.4147610    -0.8445580
units angstrom
no_reorient  #important for SAPT in psi4, default
symmetry c1  #important for SAPT in psi4, default
}

set PROPERTIES_ORIGIN ["COM"]
properties('MP2/aug-cc-pvtz', properties = ['dipole'])
--------------------------------------------------------------------------

    Molecular point group: c1
  Charge       = -1
  Multiplicity = 1
  Basis Set: AUG-CC-PVTZ
    Blend: AUG-CC-PVTZ
  Basis Set: (AUG-CC-PVTZ AUX)
    Blend: AUG-CC-PVTZ-JKFIT

    Orbital Energies [Eh]
    ---------------------

    Doubly Occupied:

       1A    -20.310016     2A    -20.309788     3A    -11.157813
       4A    -11.139529     5A    -11.121330     6A    -11.118871
       7A    -11.116900     8A    -11.114985     9A    -11.110082
      10A    -11.093359    11A    -11.075061    12A     -1.180064
      13A     -1.084195    14A     -1.033774    15A     -0.926133
      16A     -0.909073    17A     -0.820642    18A     -0.786974
      19A     -0.691379    20A     -0.657121    21A     -0.551834
      22A     -0.534140    23A     -0.525255    24A     -0.495286
      25A     -0.462641    26A     -0.449750    27A     -0.430665
      28A     -0.429377    29A     -0.422653    30A     -0.413607
      31A     -0.382784    32A     -0.376381    33A     -0.367031
      34A     -0.347924    35A     -0.332684    36A     -0.236553
      37A     -0.226386    38A     -0.212609    39A     -0.208716
      40A     -0.177740

  @DF-RHF Final Energy:  -495.97538282411335

   => Energetics <=

    Nuclear Repulsion Energy =            571.0854412617944718
    One-Electron Energy =               -1821.4394335861977652
    Two-Electron Energy =                 754.3786095002900538
    Total Energy =                       -495.9753828241133533
  Basis Set: (AUG-CC-PVTZ AUX)
    Blend: AUG-CC-PVTZ-RI
    Molecular point group: c1

    Geometry (in Angstrom), charge = -1, multiplicity = 1:

       Center              X                  Y                   Z               Mass
    ------------   -----------------  -----------------  -----------------  -----------------
         O           -2.435147544473    -1.443923337223    -0.516372511172    15.994914619570
         O           -2.541180544473     0.839698662777    -0.689212511172    15.994914619570
         C            0.219435455527    -0.170379337223     0.555477488828    12.000000000000
         C            0.895318455527     1.000879662777     0.146287488828    12.000000000000
         C           -1.195433544473    -0.132480337223     1.051103488828    12.000000000000
         C            0.868138455527    -1.406085337223     0.411275488828    12.000000000000
         C            2.207880455527     0.900419662777    -0.330653511172    12.000000000000
         C            0.203755455527     2.338422662777     0.221076488828    12.000000000000
         C            2.172306455527    -1.494456337223    -0.076417511172    12.000000000000
         C            2.852838455527    -0.333214337223    -0.446479511172    12.000000000000
         C           -2.176014544473    -0.259842337223    -0.181523511172    12.000000000000
         H           -1.370200544473    -0.979782337223     1.722911488828     1.007825032230
         H           -1.398891544473     0.797312662777     1.591928488828     1.007825032230
         H            0.318128455527    -2.307090337223     0.676197488828     1.007825032230
         H            2.726309455527     1.808779662777    -0.640180511172     1.007825032230
         H           -0.806672544473     2.244934662777    -0.190572511172     1.007825032230
         H            0.115951455527     2.686005662777     1.258839488828     1.007825032230
         H            0.767000455527     3.093351662777    -0.338740511172     1.007825032230
         H            2.738446255527    -2.646452337223    -0.197677611172     1.007825032230
         H            3.872686455527    -0.385443337223    -0.825158511172     1.007825032230

  Basis Set: AUG-CC-PVTZ
    Blend: AUG-CC-PVTZ
  Basis Set: (AUG-CC-PVTZ AUX)
    Blend: AUG-CC-PVTZ-JKFIT
	 Reference Energy          =    -495.9753828241133533 [Eh]
	 Singles Energy            =      -0.0000000000000000 [Eh]
	 Same-Spin Energy          =      -0.5334342645992841 [Eh]
	 Opposite-Spin Energy      =      -1.6377047910553411 [Eh]
	 Correlation Energy        =      -2.1711390556546251 [Eh]
	 Total Energy              =    -498.1465218797679881 [Eh]

	 ================> DF-SCS-MP2 Energies <==================
	-----------------------------------------------------------
	 SCS Same-Spin Scale       =       0.3333333333333333 [-]
	 SCS Opposite-Spin Scale   =       1.2000000000000000 [-]
	 SCS Same-Spin Energy      =      -0.1778114215330947 [Eh]
	 SCS Opposite-Spin Energy  =      -1.9652457492664093 [Eh]
	 SCS Correlation Energy    =      -2.1430571707995041 [Eh]
	 SCS Total Energy          =    -498.1184399949128760 [Eh]
	-----------------------------------------------------------

  Dipole Moment: [D]
     X:     8.3661      Y:     1.5696      Z:     2.9856     Total:     9.0205

*** Psi4 exiting successfully. Buy a developer a beer!
