                               Psi4 1.4a3.dev225

  ==> Input File <==

--------------------------------------------------------------------------
#psi4
#
memory 32 gb

molecule  {
-1 1
  O       -2.4775990    -1.4732410    -0.5357720
  O       -2.5836320     0.8103810    -0.7086120
  C        0.1769840    -0.1996970     0.5360780
  C        0.8528670     0.9715620     0.1268880
  C       -1.2378850    -0.1617980     1.0317040
  C        0.8256870    -1.4354030     0.3918760
  C        2.1654290     0.8711020    -0.3500530
  C        0.1613040     2.3091050     0.2016770
  C        2.1298550    -1.5237740    -0.0958170
  C        2.8103870    -0.3625320    -0.4658790
  C       -2.2060554    -0.2875481    -0.1853224
  H       -1.4126520    -1.0091000     1.7035120
  H       -1.4413430     0.7679950     1.5725290
  H        0.2756770    -2.3364080     0.6567980
  H        2.6838580     1.7794620    -0.6595800
  H       -0.8491240     2.2156170    -0.2099720
  H        0.0735000     2.6566880     1.2394400
  H        0.7245490     3.0640340    -0.3581400
  H        2.6081740    -2.4970700    -0.1982670
  H        3.8302350    -0.4147610    -0.8445580
units angstrom
no_reorient  #important for SAPT in psi4, default
symmetry c1  #important for SAPT in psi4, default
}

set PROPERTIES_ORIGIN ["COM"]
properties('MP2/aug-cc-pvtz', properties = ['dipole'])
--------------------------------------------------------------------------

    Molecular point group: c1
  Charge       = -1
  Multiplicity = 1
  Basis Set: AUG-CC-PVTZ
    Blend: AUG-CC-PVTZ
  Basis Set: (AUG-CC-PVTZ AUX)
    Blend: AUG-CC-PVTZ-JKFIT

    Orbital Energies [Eh]
    ---------------------

    Doubly Occupied:

       1A    -20.307785     2A    -20.307619     3A    -11.156543
       4A    -11.119407     5A    -11.118239     6A    -11.116797
       7A    -11.115402     8A    -11.113809     9A    -11.108067
      10A    -11.092624    11A    -11.075792    12A     -1.173834
      13A     -1.076302    14A     -1.033198    15A     -0.928166
      16A     -0.909106    17A     -0.823195    18A     -0.790070
      19A     -0.691052    20A     -0.665804    21A     -0.563736
      22A     -0.534674    23A     -0.524329    24A     -0.500719
      25A     -0.461254    26A     -0.454037    27A     -0.440484
      28A     -0.428315    29A     -0.425878    30A     -0.412903
      31A     -0.382208    32A     -0.373774    33A     -0.365235
      34A     -0.351951    35A     -0.330229    36A     -0.235714
      37A     -0.222332    38A     -0.210435    39A     -0.205609
      40A     -0.179510

  @DF-RHF Final Energy:  -495.99599347399896

   => Energetics <=

    Nuclear Repulsion Energy =            572.0913686018511726
    One-Electron Energy =               -1823.5224531635062704
    Two-Electron Energy =                 755.4350910876561329
    Total Energy =                       -495.9959934739989649
  Basis Set: (AUG-CC-PVTZ AUX)
    Blend: AUG-CC-PVTZ-RI
    Molecular point group: c1

    Geometry (in Angstrom), charge = -1, multiplicity = 1:

       Center              X                  Y                   Z               Mass
    ------------   -----------------  -----------------  -----------------  -----------------
         O           -2.435552878541    -1.445261327245    -0.517755606151    15.994914619570
         O           -2.541585878541     0.838360672755    -0.690595606151    15.994914619570
         C            0.219030121459    -0.171717327245     0.554094393849    12.000000000000
         C            0.894913121459     0.999541672755     0.144904393849    12.000000000000
         C           -1.195838878541    -0.133818327245     1.049720393849    12.000000000000
         C            0.867733121459    -1.407423327245     0.409892393849    12.000000000000
         C            2.207475121459     0.899081672755    -0.332036606151    12.000000000000
         C            0.203350121459     2.337084672755     0.219693393849    12.000000000000
         C            2.171901121459    -1.495794327245    -0.077800606151    12.000000000000
         C            2.852433121459    -0.334552327245    -0.447862606151    12.000000000000
         C           -2.164009278541    -0.259568427245    -0.167306006151    12.000000000000
         H           -1.370605878541    -0.981120327245     1.721528393849     1.007825032230
         H           -1.399296878541     0.795974672755     1.590545393849     1.007825032230
         H            0.317723121459    -2.308428327245     0.674814393849     1.007825032230
         H            2.725904121459     1.807441672755    -0.641563606151     1.007825032230
         H           -0.807077878541     2.243596672755    -0.191955606151     1.007825032230
         H            0.115546121459     2.684667672755     1.257456393849     1.007825032230
         H            0.766595121459     3.092013672755    -0.340123606151     1.007825032230
         H            2.650220121459    -2.469090327245    -0.180250606151     1.007825032230
         H            3.872281121459    -0.386781327245    -0.826541606151     1.007825032230

  Basis Set: AUG-CC-PVTZ
    Blend: AUG-CC-PVTZ
  Basis Set: (AUG-CC-PVTZ AUX)
    Blend: AUG-CC-PVTZ-JKFIT
	 Reference Energy          =    -495.9959934739989649 [Eh]
	 Singles Energy            =      -0.0000000000000000 [Eh]
	 Same-Spin Energy          =      -0.5332476664761718 [Eh]
	 Opposite-Spin Energy      =      -1.6361529622762578 [Eh]
	 Correlation Energy        =      -2.1694006287524297 [Eh]
	 Total Energy              =    -498.1653941027514065 [Eh]

	 ================> DF-SCS-MP2 Energies <==================
	-----------------------------------------------------------
	 SCS Same-Spin Scale       =       0.3333333333333333 [-]
	 SCS Opposite-Spin Scale   =       1.2000000000000000 [-]
	 SCS Same-Spin Energy      =      -0.1777492221587239 [Eh]
	 SCS Opposite-Spin Energy  =      -1.9633835547315093 [Eh]
	 SCS Correlation Energy    =      -2.1411327768902333 [Eh]
	 SCS Total Energy          =    -498.1371262508891959 [Eh]
	-----------------------------------------------------------

  Dipole Moment: [D]
     X:     8.6297      Y:     1.4056      Z:     3.0590     Total:     9.2631

*** Psi4 exiting successfully. Buy a developer a beer!
