                               Psi4 1.4a3.dev225

  ==> Input File <==

--------------------------------------------------------------------------
#psi4
#
memory 32 gb

molecule  {
-1 1
  O       -2.4775990    -1.4732410    -0.5357720
  O       -2.5836320     0.8103810    -0.7086120
  C        0.1769840    -0.1996970     0.5360780
  C        0.9692982     0.8850153     0.0981974
  C       -1.2378850    -0.1617980     1.0317040
  C        0.8256870    -1.4354030     0.3918760
  C        2.1654290     0.8711020    -0.3500530
  C        0.1613040     2.3091050     0.2016770
  C        2.1298550    -1.5237740    -0.0958170
  C        2.8103870    -0.3625320    -0.4658790
  C       -2.2184660    -0.2891600    -0.2009230
  H       -1.4126520    -1.0091000     1.7035120
  H       -1.4413430     0.7679950     1.5725290
  H        0.2756770    -2.3364080     0.6567980
  H        2.6838580     1.7794620    -0.6595800
  H       -0.8491240     2.2156170    -0.2099720
  H        0.0735000     2.6566880     1.2394400
  H        0.7245490     3.0640340    -0.3581400
  H        2.6081740    -2.4970700    -0.1982670
  H        3.8302350    -0.4147610    -0.8445580
units angstrom
no_reorient  #important for SAPT in psi4, default
symmetry c1  #important for SAPT in psi4, default
}

set PROPERTIES_ORIGIN ["COM"]
properties('MP2/aug-cc-pvtz', properties = ['dipole'])
--------------------------------------------------------------------------

    Molecular point group: c1
  Charge       = -1
  Multiplicity = 1
  Basis Set: AUG-CC-PVTZ
    Blend: AUG-CC-PVTZ
  Basis Set: (AUG-CC-PVTZ AUX)
    Blend: AUG-CC-PVTZ-JKFIT

    Orbital Energies [Eh]
    ---------------------

    Doubly Occupied:

       1A    -20.310013     2A    -20.309688     3A    -11.158169
       4A    -11.117917     5A    -11.116045     6A    -11.115329
       7A    -11.108820     8A    -11.104945     9A    -11.100965
      10A    -11.093352    11A    -11.077851    12A     -1.180020
      13A     -1.084087    14A     -1.045258    15A     -0.920724
      16A     -0.914131    17A     -0.812803    18A     -0.789927
      19A     -0.692859    20A     -0.671408    21A     -0.565344
      22A     -0.534085    23A     -0.526024    24A     -0.497796
      25A     -0.460958    26A     -0.453769    27A     -0.437159
      28A     -0.427169    29A     -0.420100    30A     -0.408313
      31A     -0.389261    32A     -0.376327    33A     -0.374353
      34A     -0.342637    35A     -0.314619    36A     -0.235394
      37A     -0.226370    38A     -0.224683    39A     -0.210243
      40A     -0.176223

  @DF-RHF Final Energy:  -495.97190670715014

   => Energetics <=

    Nuclear Repulsion Energy =            572.6643126774337134
    One-Electron Energy =               -1824.6221602452553725
    Two-Electron Energy =                 755.9859408606716897
    Total Energy =                       -495.9719067071500831
  Basis Set: (AUG-CC-PVTZ AUX)
    Blend: AUG-CC-PVTZ-RI
    Molecular point group: c1

    Geometry (in Angstrom), charge = -1, multiplicity = 1:

       Center              X                  Y                   Z               Mass
    ------------   -----------------  -----------------  -----------------  -----------------
         O           -2.443926990097    -1.438164175806    -0.514189971558    15.994914619570
         O           -2.549959990097     0.845457824194    -0.687029971558    15.994914619570
         C            0.210656009903    -0.164620175806     0.557660028442    12.000000000000
         C            1.002970209903     0.920092124194     0.119779428442    12.000000000000
         C           -1.204212990097    -0.126721175806     1.053286028442    12.000000000000
         C            0.859359009903    -1.400326175806     0.413458028442    12.000000000000
         C            2.199101009903     0.906178824194    -0.328470971558    12.000000000000
         C            0.194976009903     2.344181824194     0.223259028442    12.000000000000
         C            2.163527009903    -1.488697175806    -0.074234971558    12.000000000000
         C            2.844059009903    -0.327455175806    -0.444296971558    12.000000000000
         C           -2.184793990097    -0.254083175806    -0.179340971558    12.000000000000
         H           -1.378979990097    -0.974023175806     1.725094028442     1.007825032230
         H           -1.407670990097     0.803071824194     1.594111028442     1.007825032230
         H            0.309349009903    -2.301331175806     0.678380028442     1.007825032230
         H            2.717530009903     1.814538824194    -0.637997971558     1.007825032230
         H           -0.815451990097     2.250693824194    -0.188389971558     1.007825032230
         H            0.107172009903     2.691764824194     1.261022028442     1.007825032230
         H            0.758221009903     3.099110824194    -0.336557971558     1.007825032230
         H            2.641846009903    -2.461993175806    -0.176684971558     1.007825032230
         H            3.863907009903    -0.379684175806    -0.822975971558     1.007825032230

  Basis Set: AUG-CC-PVTZ
    Blend: AUG-CC-PVTZ
  Basis Set: (AUG-CC-PVTZ AUX)
    Blend: AUG-CC-PVTZ-JKFIT
	 Reference Energy          =    -495.9719067071501399 [Eh]
	 Singles Energy            =      -0.0000000000000000 [Eh]
	 Same-Spin Energy          =      -0.5325333441774138 [Eh]
	 Opposite-Spin Energy      =      -1.6356484995265426 [Eh]
	 Correlation Energy        =      -2.1681818437039562 [Eh]
	 Total Energy              =    -498.1400885508541023 [Eh]

	 ================> DF-SCS-MP2 Energies <==================
	-----------------------------------------------------------
	 SCS Same-Spin Scale       =       0.3333333333333333 [-]
	 SCS Opposite-Spin Scale   =       1.2000000000000000 [-]
	 SCS Same-Spin Energy      =      -0.1775111147258046 [Eh]
	 SCS Opposite-Spin Energy  =      -1.9627781994318509 [Eh]
	 SCS Correlation Energy    =      -2.1402893141576556 [Eh]
	 SCS Total Energy          =    -498.1121960213077955 [Eh]
	-----------------------------------------------------------

  Dipole Moment: [D]
     X:     8.5429      Y:     1.1884      Z:     2.9556     Total:     9.1175

*** Psi4 exiting successfully. Buy a developer a beer!
