                               Psi4 1.4a3.dev225

  ==> Input File <==

--------------------------------------------------------------------------
#psi4
#
memory 32 gb

molecule  {
-1 1
  O       -2.4775990    -1.4732410    -0.5357720
  O       -2.5836320     0.8103810    -0.7086120
  C        0.1769840    -0.1996970     0.5360780
  C        0.8528670     0.9715620     0.1268880
  C       -1.2378850    -0.1617980     1.0317040
  C        0.8256870    -1.4354030     0.3918760
  C        2.1654290     0.8711020    -0.3500530
  C        0.1613040     2.3091050     0.2016770
  C        1.9429007    -1.5111059    -0.0259055
  C        2.8103870    -0.3625320    -0.4658790
  C       -2.2184660    -0.2891600    -0.2009230
  H       -1.4126520    -1.0091000     1.7035120
  H       -1.4413430     0.7679950     1.5725290
  H        0.2756770    -2.3364080     0.6567980
  H        2.6838580     1.7794620    -0.6595800
  H       -0.8491240     2.2156170    -0.2099720
  H        0.0735000     2.6566880     1.2394400
  H        0.7245490     3.0640340    -0.3581400
  H        2.6081740    -2.4970700    -0.1982670
  H        3.8302350    -0.4147610    -0.8445580
units angstrom
no_reorient  #important for SAPT in psi4, default
symmetry c1  #important for SAPT in psi4, default
}

set PROPERTIES_ORIGIN ["COM"]
properties('MP2/aug-cc-pvtz', properties = ['dipole'])
--------------------------------------------------------------------------

    Molecular point group: c1
  Charge       = -1
  Multiplicity = 1
  Basis Set: AUG-CC-PVTZ
    Blend: AUG-CC-PVTZ
  Basis Set: (AUG-CC-PVTZ AUX)
    Blend: AUG-CC-PVTZ-JKFIT

    Orbital Energies [Eh]
    ---------------------

    Doubly Occupied:

       1A    -20.310318     2A    -20.309885     3A    -11.158330
       4A    -11.124357     5A    -11.118349     6A    -11.115047
       7A    -11.111966     8A    -11.110212     9A    -11.090502
      10A    -11.081531    11A    -11.074608    12A     -1.180293
      13A     -1.084393    14A     -1.047187    15A     -0.938469
      16A     -0.910426    17A     -0.834010    18A     -0.775803
      19A     -0.689805    20A     -0.660304    21A     -0.559455
      22A     -0.534515    23A     -0.531433    24A     -0.494736
      25A     -0.472314    26A     -0.460185    27A     -0.431235
      28A     -0.427614    29A     -0.416586    30A     -0.411284
      31A     -0.385462    32A     -0.377633    33A     -0.374515
      34A     -0.337336    35A     -0.320879    36A     -0.240614
      37A     -0.229825    38A     -0.226236    39A     -0.210794
      40A     -0.166246

  @DF-RHF Final Energy:  -495.93440699790102

   => Energetics <=

    Nuclear Repulsion Energy =            574.8985910027056434
    One-Electron Energy =               -1828.9966136285017910
    Two-Electron Energy =                 758.1636156278950693
    Total Energy =                       -495.9344069979010783
  Basis Set: (AUG-CC-PVTZ AUX)
    Blend: AUG-CC-PVTZ-RI
    Molecular point group: c1

    Geometry (in Angstrom), charge = -1, multiplicity = 1:

       Center              X                  Y                   Z               Mass
    ------------   -----------------  -----------------  -----------------  -----------------
         O           -2.419503135385    -1.446151399521    -0.522127870254    15.994914619570
         O           -2.525536135385     0.837470600479    -0.694967870254    15.994914619570
         C            0.235079864615    -0.172607399521     0.549722129746    12.000000000000
         C            0.910962864615     0.998651600479     0.140532129746    12.000000000000
         C           -1.179789135385    -0.134708399521     1.045348129746    12.000000000000
         C            0.883782864615    -1.408313399521     0.405520129746    12.000000000000
         C            2.223524864615     0.898191600479    -0.336408870254    12.000000000000
         C            0.219399864615     2.336194600479     0.215321129746    12.000000000000
         C            2.000996564615    -1.484016299521    -0.012261370254    12.000000000000
         C            2.868482864615    -0.335442399521    -0.452234870254    12.000000000000
         C           -2.160370135385    -0.262070399521    -0.187278870254    12.000000000000
         H           -1.354556135385    -0.982010399521     1.717156129746     1.007825032230
         H           -1.383247135385     0.795084600479     1.586173129746     1.007825032230
         H            0.333772864615    -2.309318399521     0.670442129746     1.007825032230
         H            2.741953864615     1.806551600479    -0.645935870254     1.007825032230
         H           -0.791028135385     2.242706600479    -0.196327870254     1.007825032230
         H            0.131595864615     2.683777600479     1.253084129746     1.007825032230
         H            0.782644864615     3.091123600479    -0.344495870254     1.007825032230
         H            2.666269864615    -2.469980399521    -0.184622870254     1.007825032230
         H            3.888330864615    -0.387671399521    -0.830913870254     1.007825032230

  Basis Set: AUG-CC-PVTZ
    Blend: AUG-CC-PVTZ
  Basis Set: (AUG-CC-PVTZ AUX)
    Blend: AUG-CC-PVTZ-JKFIT
	 Reference Energy          =    -495.9344069979010214 [Eh]
	 Singles Energy            =      -0.0000000000000000 [Eh]
	 Same-Spin Energy          =      -0.5328600152847753 [Eh]
	 Opposite-Spin Energy      =      -1.6372975450602381 [Eh]
	 Correlation Energy        =      -2.1701575603450136 [Eh]
	 Total Energy              =    -498.1045645582460111 [Eh]

	 ================> DF-SCS-MP2 Energies <==================
	-----------------------------------------------------------
	 SCS Same-Spin Scale       =       0.3333333333333333 [-]
	 SCS Opposite-Spin Scale   =       1.2000000000000000 [-]
	 SCS Same-Spin Energy      =      -0.1776200050949251 [Eh]
	 SCS Opposite-Spin Energy  =      -1.9647570540722856 [Eh]
	 SCS Correlation Energy    =      -2.1423770591672109 [Eh]
	 SCS Total Energy          =    -498.0767840570682097 [Eh]
	-----------------------------------------------------------

  Dipole Moment: [D]
     X:     8.3488      Y:     1.4503      Z:     3.0168     Total:     8.9948

*** Psi4 exiting successfully. Buy a developer a beer!
