                               Psi4 1.4a3.dev225

  ==> Input File <==

--------------------------------------------------------------------------
#psi4
#
memory 32 gb

molecule  {
-1 1
  O       -2.4775990    -1.4732410    -0.5357720
  O       -2.5836320     0.8103810    -0.7086120
  C        0.1769840    -0.1996970     0.5360780
  C        0.8528670     0.9715620     0.1268880
  C       -1.2378850    -0.1617980     1.0317040
  C        0.8256870    -1.4354030     0.3918760
  C        2.1654290     0.8711020    -0.3500530
  C        0.1613040     2.3091050     0.2016770
  C        2.1298550    -1.5237740    -0.0958170
  C        2.8103870    -0.3625320    -0.4658790
  C       -2.2184660    -0.2891600    -0.2009230
  H       -1.4126520    -1.0091000     1.7035120
  H       -1.4413430     0.7679950     1.5725290
  H        0.2756770    -2.3364080     0.6567980
  H        2.6838580     1.7794620    -0.6595800
  H       -0.8491240     2.2156170    -0.2099720
  H        0.0735000     2.6566880     1.2394400
  H        0.7245490     3.0640340    -0.3581400
  H        2.6081740    -2.4970700    -0.1982670
  H        3.8302350    -0.4147610    -0.8445580
units angstrom
no_reorient  #important for SAPT in psi4, default
symmetry c1  #important for SAPT in psi4, default
}

set PROPERTIES_ORIGIN ["COM"]
properties('MP2/aug-cc-pvtz', properties = ['dipole'])
--------------------------------------------------------------------------

    Molecular point group: c1
  Charge       = -1
  Multiplicity = 1
  Basis Set: AUG-CC-PVTZ
    Blend: AUG-CC-PVTZ
  Basis Set: (AUG-CC-PVTZ AUX)
    Blend: AUG-CC-PVTZ-JKFIT

    Orbital Energies [Eh]
    ---------------------

    Doubly Occupied:

       1A    -20.309202     2A    -20.309027     3A    -11.156933
       4A    -11.118439     5A    -11.117195     6A    -11.116091
       7A    -11.114692     8A    -11.112727     9A    -11.106976
      10A    -11.092216    11A    -11.073720    12A     -1.179262
      13A     -1.083407    14A     -1.032234    15A     -0.926922
      16A     -0.907777    17A     -0.821142    18A     -0.787802
      19A     -0.689876    20A     -0.664310    21A     -0.562353
      22A     -0.533130    23A     -0.523209    24A     -0.499712
      25A     -0.461406    26A     -0.453302    27A     -0.439890
      28A     -0.428384    29A     -0.426023    30A     -0.412416
      31A     -0.384310    32A     -0.374685    33A     -0.364689
      34A     -0.351699    35A     -0.332927    36A     -0.235168
      37A     -0.225578    38A     -0.211356    39A     -0.207143
      40A     -0.176246

  @DF-RHF Final Energy:  -495.99721996251969

   => Energetics <=

    Nuclear Repulsion Energy =            572.0230907691839093
    One-Electron Energy =               -1823.3934774858589662
    Two-Electron Energy =                 755.3731667541553634
    Total Energy =                       -495.9972199625196936
  Basis Set: (AUG-CC-PVTZ AUX)
    Blend: AUG-CC-PVTZ-RI
    Molecular point group: c1

    Geometry (in Angstrom), charge = -1, multiplicity = 1:

       Center              X                  Y                   Z               Mass
    ------------   -----------------  -----------------  -----------------  -----------------
         O           -2.434553771164    -1.445131562271    -0.516499689874    15.994914619570
         O           -2.540586771164     0.838490437729    -0.689339689874    15.994914619570
         C            0.220029228836    -0.171587562271     0.555350310126    12.000000000000
         C            0.895912228836     0.999671437729     0.146160310126    12.000000000000
         C           -1.194839771164    -0.133688562271     1.050976310126    12.000000000000
         C            0.868732228836    -1.407293562271     0.411148310126    12.000000000000
         C            2.208474228836     0.899211437729    -0.330780689874    12.000000000000
         C            0.204349228836     2.337214437729     0.220949310126    12.000000000000
         C            2.172900228836    -1.495664562271    -0.076544689874    12.000000000000
         C            2.853432228836    -0.334422562271    -0.446606689874    12.000000000000
         C           -2.175420771164    -0.261050562271    -0.181650689874    12.000000000000
         H           -1.369606771164    -0.980990562271     1.722784310126     1.007825032230
         H           -1.398297771164     0.796104437729     1.591801310126     1.007825032230
         H            0.318722228836    -2.308298562271     0.676070310126     1.007825032230
         H            2.726903228836     1.807571437729    -0.640307689874     1.007825032230
         H           -0.806078771164     2.243726437729    -0.190699689874     1.007825032230
         H            0.116545228836     2.684797437729     1.258712310126     1.007825032230
         H            0.767594228836     3.092143437729    -0.338867689874     1.007825032230
         H            2.651219228836    -2.468960562271    -0.178994689874     1.007825032230
         H            3.873280228836    -0.386651562271    -0.825285689874     1.007825032230

  Basis Set: AUG-CC-PVTZ
    Blend: AUG-CC-PVTZ
  Basis Set: (AUG-CC-PVTZ AUX)
    Blend: AUG-CC-PVTZ-JKFIT
	 Reference Energy          =    -495.9972199625196936 [Eh]
	 Singles Energy            =      -0.0000000000000000 [Eh]
	 Same-Spin Energy          =      -0.5330136731979098 [Eh]
	 Opposite-Spin Energy      =      -1.6355118306915657 [Eh]
	 Correlation Energy        =      -2.1685255038894757 [Eh]
	 Total Energy              =    -498.1657454664091915 [Eh]

	 ================> DF-SCS-MP2 Energies <==================
	-----------------------------------------------------------
	 SCS Same-Spin Scale       =       0.3333333333333333 [-]
	 SCS Opposite-Spin Scale   =       1.2000000000000000 [-]
	 SCS Same-Spin Energy      =      -0.1776712243993033 [Eh]
	 SCS Opposite-Spin Energy  =      -1.9626141968298787 [Eh]
	 SCS Correlation Energy    =      -2.1402854212291818 [Eh]
	 SCS Total Energy          =    -498.1375053837488736 [Eh]
	-----------------------------------------------------------

  Dipole Moment: [D]
     X:     8.4831      Y:     1.3924      Z:     2.9693     Total:     9.0949

*** Psi4 exiting successfully. Buy a developer a beer!
