                               Psi4 1.4a3.dev225

  ==> Input File <==

--------------------------------------------------------------------------
#psi4
#
memory 32 gb

molecule  {
-1 1
  O       -2.4775990    -1.4732410    -0.5357720
  O       -2.5836320     0.8103810    -0.7086120
  C        0.1769840    -0.1996970     0.5360780
  C        0.8528670     0.9715620     0.1268880
  C       -1.2378850    -0.1617980     1.0317040
  C        0.8256870    -1.4354030     0.3918760
  C        2.1654290     0.8711020    -0.3500530
  C        0.1613040     2.3091050     0.2016770
  C        2.1298550    -1.5237740    -0.0958170
  C        2.8103870    -0.3625320    -0.4658790
  C       -2.2184660    -0.2891600    -0.2009230
  H       -1.4126520    -1.0091000     1.7035120
  H       -1.4413430     0.7679950     1.5725290
  H        0.2756770    -2.3364080     0.6567980
  H        2.6600928     1.7378220    -0.6453910
  H       -0.8491240     2.2156170    -0.2099720
  H        0.0735000     2.6566880     1.2394400
  H        0.7245490     3.0640340    -0.3581400
  H        2.6081740    -2.4970700    -0.1982670
  H        3.8302350    -0.4147610    -0.8445580
units angstrom
no_reorient  #important for SAPT in psi4, default
symmetry c1  #important for SAPT in psi4, default
}

set PROPERTIES_ORIGIN ["COM"]
properties('MP2/aug-cc-pvtz', properties = ['dipole'])
--------------------------------------------------------------------------

    Molecular point group: c1
  Charge       = -1
  Multiplicity = 1
  Basis Set: AUG-CC-PVTZ
    Blend: AUG-CC-PVTZ
  Basis Set: (AUG-CC-PVTZ AUX)
    Blend: AUG-CC-PVTZ-JKFIT

    Orbital Energies [Eh]
    ---------------------

    Doubly Occupied:

       1A    -20.309080     2A    -20.308886     3A    -11.156781
       4A    -11.117810     5A    -11.116498     6A    -11.115628
       7A    -11.112245     8A    -11.108547     9A    -11.106688
      10A    -11.092243    11A    -11.073469    12A     -1.179127
      13A     -1.083276    14A     -1.032203    15A     -0.926568
      16A     -0.909036    17A     -0.821676    18A     -0.787688
      19A     -0.693636    20A     -0.664033    21A     -0.564418
      22A     -0.532931    23A     -0.523103    24A     -0.503911
      25A     -0.461443    26A     -0.454645    27A     -0.439742
      28A     -0.428247    29A     -0.426464    30A     -0.413115
      31A     -0.384052    32A     -0.374839    33A     -0.364348
      34A     -0.352255    35A     -0.332729    36A     -0.234925
      37A     -0.225436    38A     -0.211166    39A     -0.206857
      40A     -0.175953

  @DF-RHF Final Energy:  -495.99652571138461

   => Energetics <=

    Nuclear Repulsion Energy =            572.2921287285886365
    One-Electron Energy =               -1823.9259130792186170
    Two-Electron Energy =                 755.6372586392452604
    Total Energy =                       -495.9965257113846064
  Basis Set: (AUG-CC-PVTZ AUX)
    Blend: AUG-CC-PVTZ-RI
    Molecular point group: c1

    Geometry (in Angstrom), charge = -1, multiplicity = 1:

       Center              X                  Y                   Z               Mass
    ------------   -----------------  -----------------  -----------------  -----------------
         O           -2.434393090079    -1.444850026228    -0.516595624430    15.994914619570
         O           -2.540426090079     0.838771973772    -0.689435624430    15.994914619570
         C            0.220189909921    -0.171306026228     0.555254375570    12.000000000000
         C            0.896072909921     0.999952973772     0.146064375570    12.000000000000
         C           -1.194679090079    -0.133407026228     1.050880375570    12.000000000000
         C            0.868892909921    -1.407012026228     0.411052375570    12.000000000000
         C            2.208634909921     0.899492973772    -0.330876624430    12.000000000000
         C            0.204509909921     2.337495973772     0.220853375570    12.000000000000
         C            2.173060909921    -1.495383026228    -0.076640624430    12.000000000000
         C            2.853592909921    -0.334141026228    -0.446702624430    12.000000000000
         C           -2.175260090079    -0.260769026228    -0.181746624430    12.000000000000
         H           -1.369446090079    -0.980709026228     1.722688375570     1.007825032230
         H           -1.398137090079     0.796385973772     1.591705375570     1.007825032230
         H            0.318882909921    -2.308017026228     0.675974375570     1.007825032230
         H            2.703298709921     1.766212973772    -0.626214624430     1.007825032230
         H           -0.805918090079     2.244007973772    -0.190795624430     1.007825032230
         H            0.116705909921     2.685078973772     1.258616375570     1.007825032230
         H            0.767754909921     3.092424973772    -0.338963624430     1.007825032230
         H            2.651379909921    -2.468679026228    -0.179090624430     1.007825032230
         H            3.873440909921    -0.386370026228    -0.825381624430     1.007825032230

  Basis Set: AUG-CC-PVTZ
    Blend: AUG-CC-PVTZ
  Basis Set: (AUG-CC-PVTZ AUX)
    Blend: AUG-CC-PVTZ-JKFIT
	 Reference Energy          =    -495.9965257113846064 [Eh]
	 Singles Energy            =      -0.0000000000000000 [Eh]
	 Same-Spin Energy          =      -0.5329126772628185 [Eh]
	 Opposite-Spin Energy      =      -1.6351838681523232 [Eh]
	 Correlation Energy        =      -2.1680965454151417 [Eh]
	 Total Energy              =    -498.1646222567997597 [Eh]

	 ================> DF-SCS-MP2 Energies <==================
	-----------------------------------------------------------
	 SCS Same-Spin Scale       =       0.3333333333333333 [-]
	 SCS Opposite-Spin Scale   =       1.2000000000000000 [-]
	 SCS Same-Spin Energy      =      -0.1776375590876062 [Eh]
	 SCS Opposite-Spin Energy  =      -1.9622206417827877 [Eh]
	 SCS Correlation Energy    =      -2.1398582008703939 [Eh]
	 SCS Total Energy          =    -498.1363839122549848 [Eh]
	-----------------------------------------------------------

  Dipole Moment: [D]
     X:     8.5043      Y:     1.4210      Z:     2.9602     Total:     9.1162

*** Psi4 exiting successfully. Buy a developer a beer!
