                               Psi4 1.4a3.dev225

  ==> Input File <==

--------------------------------------------------------------------------
#psi4
#
memory 32 gb

molecule  {
-1 1
  O       -2.4775990    -1.4732410    -0.5357720
  O       -2.5836320     0.8103810    -0.7086120
  C        0.1769840    -0.1996970     0.5360780
  C        0.8528670     0.9715620     0.1268880
  C       -1.2378850    -0.1617980     1.0317040
  C        0.8256870    -1.4354030     0.3918760
  C        2.1654290     0.8711020    -0.3500530
  C        0.1613040     2.3091050     0.2016770
  C        2.1298550    -1.5237740    -0.0958170
  C        2.8103870    -0.3625320    -0.4658790
  C       -2.2184660    -0.2891600    -0.2009230
  H       -1.4126520    -1.0091000     1.7035120
  H       -1.4413430     0.7679950     1.5725290
  H        0.2756770    -2.3364080     0.6567980
  H        2.6838580     1.7794620    -0.6595800
  H       -0.8491240     2.2156170    -0.2099720
  H        0.0750994     2.6503565     1.2205362
  H        0.7245490     3.0640340    -0.3581400
  H        2.6081740    -2.4970700    -0.1982670
  H        3.8302350    -0.4147610    -0.8445580
units angstrom
no_reorient  #important for SAPT in psi4, default
symmetry c1  #important for SAPT in psi4, default
}

set PROPERTIES_ORIGIN ["COM"]
properties('MP2/aug-cc-pvtz', properties = ['dipole'])
--------------------------------------------------------------------------

    Molecular point group: c1
  Charge       = -1
  Multiplicity = 1
  Basis Set: AUG-CC-PVTZ
    Blend: AUG-CC-PVTZ
  Basis Set: (AUG-CC-PVTZ AUX)
    Blend: AUG-CC-PVTZ-JKFIT

    Orbital Energies [Eh]
    ---------------------

    Doubly Occupied:

       1A    -20.309142     2A    -20.308983     3A    -11.156885
       4A    -11.118343     5A    -11.117022     6A    -11.115971
       7A    -11.114535     8A    -11.112609     9A    -11.106900
      10A    -11.089638    11A    -11.073730    12A     -1.179213
      13A     -1.083358    14A     -1.032158    15A     -0.927099
      16A     -0.907818    17A     -0.821884    18A     -0.788362
      19A     -0.689860    20A     -0.664567    21A     -0.562405
      22A     -0.533144    23A     -0.523103    24A     -0.499662
      25A     -0.462716    26A     -0.453801    27A     -0.439941
      28A     -0.428862    29A     -0.426728    30A     -0.412169
      31A     -0.384253    32A     -0.374759    33A     -0.364877
      34A     -0.351620    35A     -0.332881    36A     -0.235119
      37A     -0.225539    38A     -0.211319    39A     -0.207111
      40A     -0.176188

  @DF-RHF Final Energy:  -495.99724399158038

   => Energetics <=

    Nuclear Repulsion Energy =            572.1170818999067933
    One-Electron Energy =               -1823.5801039154707723
    Two-Electron Energy =                 755.4657780239837166
    Total Energy =                       -495.9972439915803761
  Basis Set: (AUG-CC-PVTZ AUX)
    Blend: AUG-CC-PVTZ-RI
    Molecular point group: c1

    Geometry (in Angstrom), charge = -1, multiplicity = 1:

       Center              X                  Y                   Z               Mass
    ------------   -----------------  -----------------  -----------------  -----------------
         O           -2.434564585015    -1.445088753783    -0.516371877648    15.994914619570
         O           -2.540597585015     0.838533246217    -0.689211877648    15.994914619570
         C            0.220018414985    -0.171544753783     0.555478122352    12.000000000000
         C            0.895901414985     0.999714246217     0.146288122352    12.000000000000
         C           -1.194850585015    -0.133645753783     1.051104122352    12.000000000000
         C            0.868721414985    -1.407250753783     0.411276122352    12.000000000000
         C            2.208463414985     0.899254246217    -0.330652877648    12.000000000000
         C            0.204338414985     2.337257246217     0.221077122352    12.000000000000
         C            2.172889414985    -1.495621753783    -0.076416877648    12.000000000000
         C            2.853421414985    -0.334379753783    -0.446478877648    12.000000000000
         C           -2.175431585015    -0.261007753783    -0.181522877648    12.000000000000
         H           -1.369617585015    -0.980947753783     1.722912122352     1.007825032230
         H           -1.398308585015     0.796147246217     1.591929122352     1.007825032230
         H            0.318711414985    -2.308255753783     0.676198122352     1.007825032230
         H            2.726892414985     1.807614246217    -0.640179877648     1.007825032230
         H           -0.806089585015     2.243769246217    -0.190571877648     1.007825032230
         H            0.118133814985     2.678508746217     1.239936322352     1.007825032230
         H            0.767583414985     3.092186246217    -0.338739877648     1.007825032230
         H            2.651208414985    -2.468917753783    -0.178866877648     1.007825032230
         H            3.873269414985    -0.386608753783    -0.825157877648     1.007825032230

  Basis Set: AUG-CC-PVTZ
    Blend: AUG-CC-PVTZ
  Basis Set: (AUG-CC-PVTZ AUX)
    Blend: AUG-CC-PVTZ-JKFIT
	 Reference Energy          =    -495.9972439915803761 [Eh]
	 Singles Energy            =      -0.0000000000000000 [Eh]
	 Same-Spin Energy          =      -0.5330168158629899 [Eh]
	 Opposite-Spin Energy      =      -1.6353994056039662 [Eh]
	 Correlation Energy        =      -2.1684162214669560 [Eh]
	 Total Energy              =    -498.1656602130473175 [Eh]

	 ================> DF-SCS-MP2 Energies <==================
	-----------------------------------------------------------
	 SCS Same-Spin Scale       =       0.3333333333333333 [-]
	 SCS Opposite-Spin Scale   =       1.2000000000000000 [-]
	 SCS Same-Spin Energy      =      -0.1776722719543299 [Eh]
	 SCS Opposite-Spin Energy  =      -1.9624792867247594 [Eh]
	 SCS Correlation Energy    =      -2.1401515586790891 [Eh]
	 SCS Total Energy          =    -498.1373955502594413 [Eh]
	-----------------------------------------------------------

  Dipole Moment: [D]
     X:     8.4797      Y:     1.4043      Z:     2.9810     Total:     9.0975

*** Psi4 exiting successfully. Buy a developer a beer!
