                               Psi4 1.4a3.dev225

  ==> Input File <==

--------------------------------------------------------------------------
#psi4
#
memory 32 gb

molecule  {
-1 1
  O       -2.4775990    -1.4732410    -0.5357720
  O       -2.5836320     0.8103810    -0.7086120
  C        0.1769840    -0.1996970     0.5360780
  C        0.8742664     0.9822735     0.1378273
  C       -1.2378850    -0.1617980     1.0317040
  C        0.8256870    -1.4354030     0.3918760
  C        2.1654290     0.8711020    -0.3500530
  C        0.1613040     2.3091050     0.2016770
  C        2.1298550    -1.5237740    -0.0958170
  C        2.8103870    -0.3625320    -0.4658790
  C       -2.2184660    -0.2891600    -0.2009230
  H       -1.4126520    -1.0091000     1.7035120
  H       -1.4413430     0.7679950     1.5725290
  H        0.2756770    -2.3364080     0.6567980
  H        2.6838580     1.7794620    -0.6595800
  H       -0.8491240     2.2156170    -0.2099720
  H        0.0735000     2.6566880     1.2394400
  H        0.7245490     3.0640340    -0.3581400
  H        2.6081740    -2.4970700    -0.1982670
  H        3.8302350    -0.4147610    -0.8445580
units angstrom
no_reorient  #important for SAPT in psi4, default
symmetry c1  #important for SAPT in psi4, default
}

set PROPERTIES_ORIGIN ["COM"]
properties('MP2/aug-cc-pvtz', properties = ['dipole'])
--------------------------------------------------------------------------

    Molecular point group: c1
  Charge       = -1
  Multiplicity = 1
  Basis Set: AUG-CC-PVTZ
    Blend: AUG-CC-PVTZ
  Basis Set: (AUG-CC-PVTZ AUX)
    Blend: AUG-CC-PVTZ-JKFIT

    Orbital Energies [Eh]
    ---------------------

    Doubly Occupied:

       1A    -20.309397     2A    -20.309194     3A    -11.157183
       4A    -11.118163     5A    -11.117198     6A    -11.116282
       7A    -11.114736     8A    -11.113126     9A    -11.106224
      10A    -11.092418    11A    -11.074184    12A     -1.179433
      13A     -1.083580    14A     -1.032098    15A     -0.925877
      16A     -0.909239    17A     -0.821496    18A     -0.788050
      19A     -0.687351    20A     -0.665999    21A     -0.562348
      22A     -0.533226    23A     -0.523048    24A     -0.499495
      25A     -0.461316    26A     -0.453796    27A     -0.439322
      28A     -0.428762    29A     -0.426530    30A     -0.412542
      31A     -0.385445    32A     -0.374618    33A     -0.364935
      34A     -0.349416    35A     -0.334062    36A     -0.234689
      37A     -0.225636    38A     -0.212109    39A     -0.208414
      40A     -0.175130

  @DF-RHF Final Energy:  -495.99680660728779

   => Energetics <=

    Nuclear Repulsion Energy =            571.8377360342443581
    One-Electron Energy =               -1823.0169537671376929
    Two-Electron Energy =                 755.1824111256056540
    Total Energy =                       -495.9968066072877946
  Basis Set: (AUG-CC-PVTZ AUX)
    Blend: AUG-CC-PVTZ-RI
    Molecular point group: c1

    Geometry (in Angstrom), charge = -1, multiplicity = 1:

       Center              X                  Y                   Z               Mass
    ------------   -----------------  -----------------  -----------------  -----------------
         O           -2.436276516109    -1.445993884695    -0.517380351190    15.994914619570
         O           -2.542309516109     0.837628115305    -0.690220351190    15.994914619570
         C            0.218306483891    -0.172449884695     0.554469648810    12.000000000000
         C            0.915588883891     1.009520615305     0.156218948810    12.000000000000
         C           -1.196562516109    -0.134550884695     1.050095648810    12.000000000000
         C            0.867009483891    -1.408155884695     0.410267648810    12.000000000000
         C            2.206751483891     0.898349115305    -0.331661351190    12.000000000000
         C            0.202626483891     2.336352115305     0.220068648810    12.000000000000
         C            2.171177483891    -1.496526884695    -0.077425351190    12.000000000000
         C            2.851709483891    -0.335284884695    -0.447487351190    12.000000000000
         C           -2.177143516109    -0.261912884695    -0.182531351190    12.000000000000
         H           -1.371329516109    -0.981852884695     1.721903648810     1.007825032230
         H           -1.400020516109     0.795242115305     1.590920648810     1.007825032230
         H            0.316999483891    -2.309160884695     0.675189648810     1.007825032230
         H            2.725180483891     1.806709115305    -0.641188351190     1.007825032230
         H           -0.807801516109     2.242864115305    -0.191580351190     1.007825032230
         H            0.114822483891     2.683935115305     1.257831648810     1.007825032230
         H            0.765871483891     3.091281115305    -0.339748351190     1.007825032230
         H            2.649496483891    -2.469822884695    -0.179875351190     1.007825032230
         H            3.871557483891    -0.387513884695    -0.826166351190     1.007825032230

  Basis Set: AUG-CC-PVTZ
    Blend: AUG-CC-PVTZ
  Basis Set: (AUG-CC-PVTZ AUX)
    Blend: AUG-CC-PVTZ-JKFIT
	 Reference Energy          =    -495.9968066072877946 [Eh]
	 Singles Energy            =      -0.0000000000000000 [Eh]
	 Same-Spin Energy          =      -0.5329891829937561 [Eh]
	 Opposite-Spin Energy      =      -1.6354998795353335 [Eh]
	 Correlation Energy        =      -2.1684890625290896 [Eh]
	 Total Energy              =    -498.1652956698168850 [Eh]

	 ================> DF-SCS-MP2 Energies <==================
	-----------------------------------------------------------
	 SCS Same-Spin Scale       =       0.3333333333333333 [-]
	 SCS Opposite-Spin Scale   =       1.2000000000000000 [-]
	 SCS Same-Spin Energy      =      -0.1776630609979187 [Eh]
	 SCS Opposite-Spin Energy  =      -1.9625998554424000 [Eh]
	 SCS Correlation Energy    =      -2.1402629164403186 [Eh]
	 SCS Total Energy          =    -498.1370695237280870 [Eh]
	-----------------------------------------------------------

  Dipole Moment: [D]
     X:     8.4701      Y:     1.3929      Z:     2.9718     Total:     9.0837

*** Psi4 exiting successfully. Buy a developer a beer!
