                               Psi4 1.4a3.dev225

  ==> Input File <==

--------------------------------------------------------------------------
#psi4
#
memory 32 gb

molecule  {
-1 1
  O       -2.4904598    -1.4656720    -0.5518653
  O       -2.5836320     0.8103810    -0.7086120
  C        0.1769840    -0.1996970     0.5360780
  C        0.8528670     0.9715620     0.1268880
  C       -1.2378850    -0.1617980     1.0317040
  C        0.8256870    -1.4354030     0.3918760
  C        2.1654290     0.8711020    -0.3500530
  C        0.1613040     2.3091050     0.2016770
  C        2.1298550    -1.5237740    -0.0958170
  C        2.8103870    -0.3625320    -0.4658790
  C       -2.2184660    -0.2891600    -0.2009230
  H       -1.4126520    -1.0091000     1.7035120
  H       -1.4413430     0.7679950     1.5725290
  H        0.2756770    -2.3364080     0.6567980
  H        2.6838580     1.7794620    -0.6595800
  H       -0.8491240     2.2156170    -0.2099720
  H        0.0735000     2.6566880     1.2394400
  H        0.7245490     3.0640340    -0.3581400
  H        2.6081740    -2.4970700    -0.1982670
  H        3.8302350    -0.4147610    -0.8445580
units angstrom
no_reorient  #important for SAPT in psi4, default
symmetry c1  #important for SAPT in psi4, default
}

set PROPERTIES_ORIGIN ["COM"]
properties('MP2/aug-cc-pvtz', properties = ['dipole'])
--------------------------------------------------------------------------

    Molecular point group: c1
  Charge       = -1
  Multiplicity = 1
  Basis Set: AUG-CC-PVTZ
    Blend: AUG-CC-PVTZ
  Basis Set: (AUG-CC-PVTZ AUX)
    Blend: AUG-CC-PVTZ-JKFIT

    Orbital Energies [Eh]
    ---------------------

    Doubly Occupied:

       1A    -20.308314     2A    -20.307782     3A    -11.156284
       4A    -11.118805     5A    -11.117575     6A    -11.116438
       7A    -11.115007     8A    -11.113197     9A    -11.107457
      10A    -11.092354    11A    -11.074957    12A     -1.178966
      13A     -1.081479    14A     -1.032633    15A     -0.927334
      16A     -0.908253    17A     -0.821625    18A     -0.788308
      19A     -0.690303    20A     -0.664699    21A     -0.562654
      22A     -0.533121    23A     -0.523589    24A     -0.500079
      25A     -0.461435    26A     -0.453657    27A     -0.440105
      28A     -0.428392    29A     -0.425863    30A     -0.412615
      31A     -0.384040    32A     -0.374699    33A     -0.364987
      34A     -0.351987    35A     -0.332990    36A     -0.235451
      37A     -0.224176    38A     -0.210694    39A     -0.206845
      40A     -0.177024

  @DF-RHF Final Energy:  -495.99736749884238

   => Energetics <=

    Nuclear Repulsion Energy =            571.8735553965935878
    One-Electron Energy =               -1823.0894963730445397
    Two-Electron Energy =                 755.2185734776085155
    Total Energy =                       -495.9973674988423227
  Basis Set: (AUG-CC-PVTZ AUX)
    Blend: AUG-CC-PVTZ-RI
    Molecular point group: c1

    Geometry (in Angstrom), charge = -1, multiplicity = 1:

       Center              X                  Y                   Z               Mass
    ------------   -----------------  -----------------  -----------------  -----------------
         O           -2.446034542674    -1.438374754020    -0.530866097885    15.994914619570
         O           -2.539206742674     0.837678245980    -0.687612797885    15.994914619570
         C            0.221409257326    -0.172399754020     0.557077202115    12.000000000000
         C            0.897292257326     0.998859245980     0.147887202115    12.000000000000
         C           -1.193459742674    -0.134500754020     1.052703202115    12.000000000000
         C            0.870112257326    -1.408105754020     0.412875202115    12.000000000000
         C            2.209854257326     0.898399245980    -0.329053797885    12.000000000000
         C            0.205729257326     2.336402245980     0.222676202115    12.000000000000
         C            2.174280257326    -1.496476754020    -0.074817797885    12.000000000000
         C            2.854812257326    -0.335234754020    -0.444879797885    12.000000000000
         C           -2.174040742674    -0.261862754020    -0.179923797885    12.000000000000
         H           -1.368226742674    -0.981802754020     1.724511202115     1.007825032230
         H           -1.396917742674     0.795292245980     1.593528202115     1.007825032230
         H            0.320102257326    -2.309110754020     0.677797202115     1.007825032230
         H            2.728283257326     1.806759245980    -0.638580797885     1.007825032230
         H           -0.804698742674     2.242914245980    -0.188972797885     1.007825032230
         H            0.117925257326     2.683985245980     1.260439202115     1.007825032230
         H            0.768974257326     3.091331245980    -0.337140797885     1.007825032230
         H            2.652599257326    -2.469772754020    -0.177267797885     1.007825032230
         H            3.874660257326    -0.387463754020    -0.823558797885     1.007825032230

  Basis Set: AUG-CC-PVTZ
    Blend: AUG-CC-PVTZ
  Basis Set: (AUG-CC-PVTZ AUX)
    Blend: AUG-CC-PVTZ-JKFIT
	 Reference Energy          =    -495.9973674988423795 [Eh]
	 Singles Energy            =      -0.0000000000000000 [Eh]
	 Same-Spin Energy          =      -0.5329504346537062 [Eh]
	 Opposite-Spin Energy      =      -1.6354263750360718 [Eh]
	 Correlation Energy        =      -2.1683768096897778 [Eh]
	 Total Energy              =    -498.1657443085321688 [Eh]

	 ================> DF-SCS-MP2 Energies <==================
	-----------------------------------------------------------
	 SCS Same-Spin Scale       =       0.3333333333333333 [-]
	 SCS Opposite-Spin Scale   =       1.2000000000000000 [-]
	 SCS Same-Spin Energy      =      -0.1776501448845687 [Eh]
	 SCS Opposite-Spin Energy  =      -1.9625116500432860 [Eh]
	 SCS Correlation Energy    =      -2.1401617949278546 [Eh]
	 SCS Total Energy          =    -498.1375292937702284 [Eh]
	-----------------------------------------------------------

  Dipole Moment: [D]
     X:     8.5399      Y:     1.3847      Z:     3.0122     Total:     9.1608

*** Psi4 exiting successfully. Buy a developer a beer!
