                               Psi4 1.4a3.dev225

  ==> Input File <==

--------------------------------------------------------------------------
#psi4
#
memory 32 gb

molecule  {
-1 1
  O       -2.4775990    -1.4732410    -0.5357720
  O       -2.5836320     0.8103810    -0.7086120
  C        0.1769840    -0.1996970     0.5360780
  C        0.8528670     0.9715620     0.1268880
  C       -1.2378850    -0.1617980     1.0317040
  C        0.8256870    -1.4354030     0.3918760
  C        2.1654290     0.8711020    -0.3500530
  C        0.1613040     2.3091050     0.2016770
  C        2.1298550    -1.5237740    -0.0958170
  C        2.8103870    -0.3625320    -0.4658790
  C       -2.2184660    -0.2891600    -0.2009230
  H       -1.4126520    -1.0091000     1.7035120
  H       -1.4413430     0.7679950     1.5725290
  H        0.2756770    -2.3364080     0.6567980
  H        2.6838580     1.7794620    -0.6595800
  H       -0.8491240     2.2156170    -0.2099720
  H        0.0735000     2.6566880     1.2394400
  H        0.7245490     3.0640340    -0.3581400
  H        2.6520844    -2.5864200    -0.2076721
  H        3.8302350    -0.4147610    -0.8445580
units angstrom
no_reorient  #important for SAPT in psi4, default
symmetry c1  #important for SAPT in psi4, default
}

set PROPERTIES_ORIGIN ["COM"]
properties('MP2/aug-cc-pvtz', properties = ['dipole'])
--------------------------------------------------------------------------

    Molecular point group: c1
  Charge       = -1
  Multiplicity = 1
  Basis Set: AUG-CC-PVTZ
    Blend: AUG-CC-PVTZ
  Basis Set: (AUG-CC-PVTZ AUX)
    Blend: AUG-CC-PVTZ-JKFIT

    Orbital Energies [Eh]
    ---------------------

    Doubly Occupied:

       1A    -20.309560     2A    -20.309361     3A    -11.157322
       4A    -11.128338     5A    -11.119606     6A    -11.117909
       7A    -11.115688     8A    -11.113744     9A    -11.108371
      10A    -11.092710    11A    -11.074320    12A     -1.179615
      13A     -1.083754    14A     -1.032800    15A     -0.926115
      16A     -0.908276    17A     -0.820567    18A     -0.787107
      19A     -0.690451    20A     -0.659787    21A     -0.556124
      22A     -0.533573    23A     -0.524109    24A     -0.496993
      25A     -0.461946    26A     -0.450401    27A     -0.435168
      28A     -0.428875    29A     -0.425674    30A     -0.412983
      31A     -0.383703    32A     -0.375445    33A     -0.365728
      34A     -0.350158    35A     -0.332976    36A     -0.235781
      37A     -0.225934    38A     -0.211874    39A     -0.207850
      40A     -0.176906

  @DF-RHF Final Energy:  -495.98992912851725

   => Energetics <=

    Nuclear Repulsion Energy =            571.5297169701649409
    One-Electron Energy =               -1822.3840922586434772
    Two-Electron Energy =                 754.8644461599611759
    Total Energy =                       -495.9899291285172467
  Basis Set: (AUG-CC-PVTZ AUX)
    Blend: AUG-CC-PVTZ-RI
    Molecular point group: c1

    Geometry (in Angstrom), charge = -1, multiplicity = 1:

       Center              X                  Y                   Z               Mass
    ------------   -----------------  -----------------  -----------------  -----------------
         O           -2.434850657818    -1.444527449747    -0.516436100185    15.994914619570
         O           -2.540883657818     0.839094550253    -0.689276100185    15.994914619570
         C            0.219732342182    -0.170983449747     0.555413899815    12.000000000000
         C            0.895615342182     1.000275550253     0.146223899815    12.000000000000
         C           -1.195136657818    -0.133084449747     1.051039899815    12.000000000000
         C            0.868435342182    -1.406689449747     0.411211899815    12.000000000000
         C            2.208177342182     0.899815550253    -0.330717100185    12.000000000000
         C            0.204052342182     2.337818550253     0.221012899815    12.000000000000
         C            2.172603342182    -1.495060449747    -0.076481100185    12.000000000000
         C            2.853135342182    -0.333818449747    -0.446543100185    12.000000000000
         C           -2.175717657818    -0.260446449747    -0.181587100185    12.000000000000
         H           -1.369903657818    -0.980386449747     1.722847899815     1.007825032230
         H           -1.398594657818     0.796708550253     1.591864899815     1.007825032230
         H            0.318425342182    -2.307694449747     0.676133899815     1.007825032230
         H            2.726606342182     1.808175550253    -0.640244100185     1.007825032230
         H           -0.806375657818     2.244330550253    -0.190636100185     1.007825032230
         H            0.116248342182     2.685401550253     1.258775899815     1.007825032230
         H            0.767297342182     3.092747550253    -0.338804100185     1.007825032230
         H            2.694832742182    -2.557706449747    -0.188336200185     1.007825032230
         H            3.872983342182    -0.386047449747    -0.825222100185     1.007825032230

  Basis Set: AUG-CC-PVTZ
    Blend: AUG-CC-PVTZ
  Basis Set: (AUG-CC-PVTZ AUX)
    Blend: AUG-CC-PVTZ-JKFIT
	 Reference Energy          =    -495.9899291285172467 [Eh]
	 Singles Energy            =      -0.0000000000000000 [Eh]
	 Same-Spin Energy          =      -0.5332051888511382 [Eh]
	 Opposite-Spin Energy      =      -1.6364584454615434 [Eh]
	 Correlation Energy        =      -2.1696636343126814 [Eh]
	 Total Energy              =    -498.1595927628299023 [Eh]

	 ================> DF-SCS-MP2 Energies <==================
	-----------------------------------------------------------
	 SCS Same-Spin Scale       =       0.3333333333333333 [-]
	 SCS Opposite-Spin Scale   =       1.2000000000000000 [-]
	 SCS Same-Spin Energy      =      -0.1777350629503794 [Eh]
	 SCS Opposite-Spin Energy  =      -1.9637501345538519 [Eh]
	 SCS Correlation Energy    =      -2.1414851975042315 [Eh]
	 SCS Total Energy          =    -498.1314143260214564 [Eh]
	-----------------------------------------------------------

  Dipole Moment: [D]
     X:     8.4312      Y:     1.4702      Z:     2.9764     Total:     9.0612

*** Psi4 exiting successfully. Buy a developer a beer!
