                               Psi4 1.4a3.dev225

  ==> Input File <==

--------------------------------------------------------------------------
#psi4
#
memory 32 gb

molecule  {
-1 1
  O       -2.4775990    -1.4732410    -0.5357720
  O       -2.5836320     0.8103810    -0.7086120
  C        0.1769840    -0.1996970     0.5360780
  C        0.8528670     0.9715620     0.1268880
  C       -1.2378850    -0.1617980     1.0317040
  C        0.8256870    -1.4354030     0.3918760
  C        2.1654290     0.8711020    -0.3500530
  C        0.1613040     2.3091050     0.2016770
  C        2.1298550    -1.5237740    -0.0958170
  C        2.7909595    -0.3493368    -0.4593977
  C       -2.2184660    -0.2891600    -0.2009230
  H       -1.4126520    -1.0091000     1.7035120
  H       -1.4413430     0.7679950     1.5725290
  H        0.2756770    -2.3364080     0.6567980
  H        2.6838580     1.7794620    -0.6595800
  H       -0.8491240     2.2156170    -0.2099720
  H        0.0735000     2.6566880     1.2394400
  H        0.7245490     3.0640340    -0.3581400
  H        2.6081740    -2.4970700    -0.1982670
  H        3.8302350    -0.4147610    -0.8445580
units angstrom
no_reorient  #important for SAPT in psi4, default
symmetry c1  #important for SAPT in psi4, default
}

set PROPERTIES_ORIGIN ["COM"]
properties('MP2/aug-cc-pvtz', properties = ['dipole'])
--------------------------------------------------------------------------

    Molecular point group: c1
  Charge       = -1
  Multiplicity = 1
  Basis Set: AUG-CC-PVTZ
    Blend: AUG-CC-PVTZ
  Basis Set: (AUG-CC-PVTZ AUX)
    Blend: AUG-CC-PVTZ-JKFIT

    Orbital Energies [Eh]
    ---------------------

    Doubly Occupied:

       1A    -20.309028     2A    -20.308871     3A    -11.156706
       4A    -11.118175     5A    -11.117014     6A    -11.115624
       7A    -11.112519     8A    -11.111990     9A    -11.107207
      10A    -11.092148    11A    -11.073482    12A     -1.179097
      13A     -1.083247    14A     -1.034170    15A     -0.926999
      16A     -0.909245    17A     -0.822419    18A     -0.786745
      19A     -0.689946    20A     -0.663525    21A     -0.562402
      22A     -0.532301    23A     -0.524366    24A     -0.498249
      25A     -0.461346    26A     -0.454931    27A     -0.438280
      28A     -0.428297    29A     -0.426012    30A     -0.412283
      31A     -0.384382    32A     -0.372711    33A     -0.366198
      34A     -0.352831    35A     -0.332256    36A     -0.235751
      37A     -0.225463    38A     -0.211531    39A     -0.207552
      40A     -0.176091

  @DF-RHF Final Energy:  -495.99661974576378

   => Energetics <=

    Nuclear Repulsion Energy =            572.4690188745488513
    One-Electron Energy =               -1824.2884947491411367
    Two-Electron Energy =                 755.8228561288283345
    Total Energy =                       -495.9966197457638373
  Basis Set: (AUG-CC-PVTZ AUX)
    Blend: AUG-CC-PVTZ-RI
    Molecular point group: c1

    Geometry (in Angstrom), charge = -1, multiplicity = 1:

       Center              X                  Y                   Z               Mass
    ------------   -----------------  -----------------  -----------------  -----------------
         O           -2.432989772761    -1.446193833368    -0.517021462765    15.994914619570
         O           -2.539022772761     0.837428166632    -0.689861462765    15.994914619570
         C            0.221593227239    -0.172649833368     0.554828537235    12.000000000000
         C            0.897476227239     0.998609166632     0.145638537235    12.000000000000
         C           -1.193275772761    -0.134750833368     1.050454537235    12.000000000000
         C            0.870296227239    -1.408355833368     0.410626537235    12.000000000000
         C            2.210038227239     0.898149166632    -0.331302462765    12.000000000000
         C            0.205913227239     2.336152166632     0.220427537235    12.000000000000
         C            2.174464227239    -1.496726833368    -0.077066462765    12.000000000000
         C            2.835568727239    -0.322289633368    -0.440647162765    12.000000000000
         C           -2.173856772761    -0.262112833368    -0.182172462765    12.000000000000
         H           -1.368042772761    -0.982052833368     1.722262537235     1.007825032230
         H           -1.396733772761     0.795042166632     1.591279537235     1.007825032230
         H            0.320286227239    -2.309360833368     0.675548537235     1.007825032230
         H            2.728467227239     1.806509166632    -0.640829462765     1.007825032230
         H           -0.804514772761     2.242664166632    -0.191221462765     1.007825032230
         H            0.118109227239     2.683735166632     1.258190537235     1.007825032230
         H            0.769158227239     3.091081166632    -0.339389462765     1.007825032230
         H            2.652783227239    -2.470022833368    -0.179516462765     1.007825032230
         H            3.874844227239    -0.387713833368    -0.825807462765     1.007825032230

  Basis Set: AUG-CC-PVTZ
    Blend: AUG-CC-PVTZ
  Basis Set: (AUG-CC-PVTZ AUX)
    Blend: AUG-CC-PVTZ-JKFIT
	 Reference Energy          =    -495.9966197457637804 [Eh]
	 Singles Energy            =      -0.0000000000000000 [Eh]
	 Same-Spin Energy          =      -0.5330356151898735 [Eh]
	 Opposite-Spin Energy      =      -1.6354271312407416 [Eh]
	 Correlation Energy        =      -2.1684627464306150 [Eh]
	 Total Energy              =    -498.1650824921944150 [Eh]

	 ================> DF-SCS-MP2 Energies <==================
	-----------------------------------------------------------
	 SCS Same-Spin Scale       =       0.3333333333333333 [-]
	 SCS Opposite-Spin Scale   =       1.2000000000000000 [-]
	 SCS Same-Spin Energy      =      -0.1776785383966245 [Eh]
	 SCS Opposite-Spin Energy  =      -1.9625125574888898 [Eh]
	 SCS Correlation Energy    =      -2.1401910958855144 [Eh]
	 SCS Total Energy          =    -498.1368108416493214 [Eh]
	-----------------------------------------------------------

  Dipole Moment: [D]
     X:     8.4815      Y:     1.3934      Z:     2.9738     Total:     9.0951

*** Psi4 exiting successfully. Buy a developer a beer!
