                               Psi4 1.4a3.dev225

  ==> Input File <==

--------------------------------------------------------------------------
#psi4
#
memory 32 gb

molecule  {
-1 1
  O       -2.4775990    -1.4732410    -0.5357720
  O       -2.5836320     0.8103810    -0.7086120
  C        0.1769840    -0.1996970     0.5360780
  C        0.8528670     0.9715620     0.1268880
  C       -1.2378850    -0.1617980     1.0317040
  C        0.8256870    -1.4354030     0.3918760
  C        2.1654290     0.8711020    -0.3500530
  C        0.1613040     2.3091050     0.2016770
  C        2.1298550    -1.5237740    -0.0958170
  C        2.8103870    -0.3625320    -0.4658790
  C       -2.2184660    -0.2891600    -0.2009230
  H       -1.4126520    -1.0091000     1.7035120
  H       -1.4041721     0.5981256     1.4737225
  H        0.2756770    -2.3364080     0.6567980
  H        2.6838580     1.7794620    -0.6595800
  H       -0.8491240     2.2156170    -0.2099720
  H        0.0735000     2.6566880     1.2394400
  H        0.7245490     3.0640340    -0.3581400
  H        2.6081740    -2.4970700    -0.1982670
  H        3.8302350    -0.4147610    -0.8445580
units angstrom
no_reorient  #important for SAPT in psi4, default
symmetry c1  #important for SAPT in psi4, default
}

set PROPERTIES_ORIGIN ["COM"]
properties('MP2/aug-cc-pvtz', properties = ['dipole'])
--------------------------------------------------------------------------

    Molecular point group: c1
  Charge       = -1
  Multiplicity = 1
  Basis Set: AUG-CC-PVTZ
    Blend: AUG-CC-PVTZ
  Basis Set: (AUG-CC-PVTZ AUX)
    Blend: AUG-CC-PVTZ-JKFIT

    Orbital Energies [Eh]
    ---------------------

    Doubly Occupied:

       1A    -20.309483     2A    -20.307208     3A    -11.155384
       4A    -11.117835     5A    -11.116709     6A    -11.115455
       7A    -11.114349     8A    -11.111390     9A    -11.105830
      10A    -11.092736    11A    -11.048592    12A     -1.178590
      13A     -1.082684    14A     -1.032071    15A     -0.929722
      16A     -0.909283    17A     -0.830231    18A     -0.795943
      19A     -0.689896    20A     -0.667956    21A     -0.562051
      22A     -0.545128    23A     -0.523410    24A     -0.501675
      25A     -0.466547    26A     -0.455644    27A     -0.439427
      28A     -0.435922    29A     -0.427000    30A     -0.412857
      31A     -0.390002    32A     -0.374713    33A     -0.364476
      34A     -0.354597    35A     -0.334131    36A     -0.234793
      37A     -0.225408    38A     -0.210746    39A     -0.206609
      40A     -0.175216

  @DF-RHF Final Energy:  -495.96440362523913

   => Energetics <=

    Nuclear Repulsion Energy =            573.1370274511990601
    One-Electron Energy =               -1825.4994681655725799
    Two-Electron Energy =                 756.3980370891342773
    Total Energy =                       -495.9644036252391288
  Basis Set: (AUG-CC-PVTZ AUX)
    Blend: AUG-CC-PVTZ-RI
    Molecular point group: c1

    Geometry (in Angstrom), charge = -1, multiplicity = 1:

       Center              X                  Y                   Z               Mass
    ------------   -----------------  -----------------  -----------------  -----------------
         O           -2.434805090763    -1.443983042607    -0.515831640135    15.994914619570
         O           -2.540838090763     0.839638957393    -0.688671640135    15.994914619570
         C            0.219777909237    -0.170439042607     0.556018359865    12.000000000000
         C            0.895660909237     1.000819957393     0.146828359865    12.000000000000
         C           -1.195091090763    -0.132540042607     1.051644359865    12.000000000000
         C            0.868480909237    -1.406145042607     0.411816359865    12.000000000000
         C            2.208222909237     0.900359957393    -0.330112640135    12.000000000000
         C            0.204097909237     2.338362957393     0.221617359865    12.000000000000
         C            2.172648909237    -1.494516042607    -0.075876640135    12.000000000000
         C            2.853180909237    -0.333274042607    -0.445938640135    12.000000000000
         C           -2.175672090763    -0.259902042607    -0.180982640135    12.000000000000
         H           -1.369858090763    -0.979842042607     1.723452359865     1.007825032230
         H           -1.361378190763     0.627383557393     1.493662859865     1.007825032230
         H            0.318470909237    -2.307150042607     0.676738359865     1.007825032230
         H            2.726651909237     1.808719957393    -0.639639640135     1.007825032230
         H           -0.806330090763     2.244874957393    -0.190031640135     1.007825032230
         H            0.116293909237     2.685945957393     1.259380359865     1.007825032230
         H            0.767342909237     3.093291957393    -0.338199640135     1.007825032230
         H            2.650967909237    -2.467812042607    -0.178326640135     1.007825032230
         H            3.873028909237    -0.385503042607    -0.824617640135     1.007825032230

  Basis Set: AUG-CC-PVTZ
    Blend: AUG-CC-PVTZ
  Basis Set: (AUG-CC-PVTZ AUX)
    Blend: AUG-CC-PVTZ-JKFIT
	 Reference Energy          =    -495.9644036252391288 [Eh]
	 Singles Energy            =      -0.0000000000000000 [Eh]
	 Same-Spin Energy          =      -0.5327907909001417 [Eh]
	 Opposite-Spin Energy      =      -1.6346547946834677 [Eh]
	 Correlation Energy        =      -2.1674455855836094 [Eh]
	 Total Energy              =    -498.1318492108227360 [Eh]

	 ================> DF-SCS-MP2 Energies <==================
	-----------------------------------------------------------
	 SCS Same-Spin Scale       =       0.3333333333333333 [-]
	 SCS Opposite-Spin Scale   =       1.2000000000000000 [-]
	 SCS Same-Spin Energy      =      -0.1775969303000472 [Eh]
	 SCS Opposite-Spin Energy  =      -1.9615857536201613 [Eh]
	 SCS Correlation Energy    =      -2.1391826839202084 [Eh]
	 SCS Total Energy          =    -498.1035863091593114 [Eh]
	-----------------------------------------------------------

  Dipole Moment: [D]
     X:     8.4518      Y:     1.4578      Z:     3.0573     Total:     9.1052

*** Psi4 exiting successfully. Buy a developer a beer!
