                               Psi4 1.4a3.dev225

  ==> Input File <==

--------------------------------------------------------------------------
#psi4
#
memory 32 gb

molecule  {
-1 1
  O       -2.4775990    -1.4732410    -0.5357720
  O       -2.5836320     0.8103810    -0.7086120
  C        0.1769840    -0.1996970     0.5360780
  C        0.8528670     0.9715620     0.1268880
  C       -1.2378850    -0.1617980     1.0317040
  C        0.8256870    -1.4354030     0.3918760
  C        2.1654290     0.8711020    -0.3500530
  C        0.1613040     2.3091050     0.2016770
  C        2.1298550    -1.5237740    -0.0958170
  C        2.8334729    -0.4066892    -0.4700249
  C       -2.2184660    -0.2891600    -0.2009230
  H       -1.4126520    -1.0091000     1.7035120
  H       -1.4413430     0.7679950     1.5725290
  H        0.2756770    -2.3364080     0.6567980
  H        2.6838580     1.7794620    -0.6595800
  H       -0.8491240     2.2156170    -0.2099720
  H        0.0735000     2.6566880     1.2394400
  H        0.7245490     3.0640340    -0.3581400
  H        2.6081740    -2.4970700    -0.1982670
  H        3.8302350    -0.4147610    -0.8445580
units angstrom
no_reorient  #important for SAPT in psi4, default
symmetry c1  #important for SAPT in psi4, default
}

set PROPERTIES_ORIGIN ["COM"]
properties('MP2/aug-cc-pvtz', properties = ['dipole'])
--------------------------------------------------------------------------

    Molecular point group: c1
  Charge       = -1
  Multiplicity = 1
  Basis Set: AUG-CC-PVTZ
    Blend: AUG-CC-PVTZ
  Basis Set: (AUG-CC-PVTZ AUX)
    Blend: AUG-CC-PVTZ-JKFIT

    Orbital Energies [Eh]
    ---------------------

    Doubly Occupied:

       1A    -20.309486     2A    -20.309232     3A    -11.157252
       4A    -11.119589     5A    -11.118240     6A    -11.117382
       7A    -11.114639     8A    -11.113877     9A    -11.106245
      10A    -11.092395    11A    -11.074081    12A     -1.179503
      13A     -1.083643    14A     -1.030202    15A     -0.929420
      16A     -0.904208    17A     -0.817889    18A     -0.790874
      19A     -0.691000    20A     -0.664071    21A     -0.562553
      22A     -0.534354    23A     -0.522306    24A     -0.501526
      25A     -0.461449    26A     -0.449446    27A     -0.443068
      28A     -0.428508    29A     -0.426121    30A     -0.413115
      31A     -0.382999    32A     -0.377897    33A     -0.363321
      34A     -0.349428    35A     -0.333044    36A     -0.234894
      37A     -0.225748    38A     -0.211110    39A     -0.206198
      40A     -0.176943

  @DF-RHF Final Energy:  -495.99412143840425

   => Energetics <=

    Nuclear Repulsion Energy =            571.4767148726737105
    One-Electron Energy =               -1822.2871642844934286
    Two-Electron Energy =                 754.8163279734154685
    Total Energy =                       -495.9941214384042496
  Basis Set: (AUG-CC-PVTZ AUX)
    Blend: AUG-CC-PVTZ-RI
    Molecular point group: c1

    Geometry (in Angstrom), charge = -1, multiplicity = 1:

       Center              X                  Y                   Z               Mass
    ------------   -----------------  -----------------  -----------------  -----------------
         O           -2.436412286707    -1.441576715262    -0.516165926859    15.994914619570
         O           -2.542445286707     0.842045284738    -0.689005926859    15.994914619570
         C            0.218170713293    -0.168032715262     0.555684073141    12.000000000000
         C            0.894053713293     1.003226284738     0.146494073141    12.000000000000
         C           -1.196698286707    -0.130133715262     1.051310073141    12.000000000000
         C            0.866873713293    -1.403738715262     0.411482073141    12.000000000000
         C            2.206615713293     0.902766284738    -0.330446926859    12.000000000000
         C            0.202490713293     2.340769284738     0.221283073141    12.000000000000
         C            2.171041713293    -1.492109715262    -0.076210926859    12.000000000000
         C            2.874659613293    -0.375024915262    -0.450418826859    12.000000000000
         C           -2.177279286707    -0.257495715262    -0.181316926859    12.000000000000
         H           -1.371465286707    -0.977435715262     1.723118073141     1.007825032230
         H           -1.400156286707     0.799659284738     1.592135073141     1.007825032230
         H            0.316863713293    -2.304743715262     0.676404073141     1.007825032230
         H            2.725044713293     1.811126284738    -0.639973926859     1.007825032230
         H           -0.807937286707     2.247281284738    -0.190365926859     1.007825032230
         H            0.114686713293     2.688352284738     1.259046073141     1.007825032230
         H            0.765735713293     3.095698284738    -0.338533926859     1.007825032230
         H            2.649360713293    -2.465405715262    -0.178660926859     1.007825032230
         H            3.871421713293    -0.383096715262    -0.824951926859     1.007825032230

  Basis Set: AUG-CC-PVTZ
    Blend: AUG-CC-PVTZ
  Basis Set: (AUG-CC-PVTZ AUX)
    Blend: AUG-CC-PVTZ-JKFIT
	 Reference Energy          =    -495.9941214384042496 [Eh]
	 Singles Energy            =      -0.0000000000000000 [Eh]
	 Same-Spin Energy          =      -0.5329255902533293 [Eh]
	 Opposite-Spin Energy      =      -1.6357551301158002 [Eh]
	 Correlation Energy        =      -2.1686807203691294 [Eh]
	 Total Energy              =    -498.1628021587733883 [Eh]

	 ================> DF-SCS-MP2 Energies <==================
	-----------------------------------------------------------
	 SCS Same-Spin Scale       =       0.3333333333333333 [-]
	 SCS Opposite-Spin Scale   =       1.2000000000000000 [-]
	 SCS Same-Spin Energy      =      -0.1776418634177764 [Eh]
	 SCS Opposite-Spin Energy  =      -1.9629061561389602 [Eh]
	 SCS Correlation Energy    =      -2.1405480195567366 [Eh]
	 SCS Total Energy          =    -498.1346694579609675 [Eh]
	-----------------------------------------------------------

  Dipole Moment: [D]
     X:     8.4779      Y:     1.3867      Z:     2.9659     Total:     9.0882

*** Psi4 exiting successfully. Buy a developer a beer!
