                               Psi4 1.4a3.dev225

  ==> Input File <==

--------------------------------------------------------------------------
#psi4
#
memory 32 gb

molecule  {
-1 1
  O       -2.4775990    -1.4732410    -0.5357720
  O       -2.5836320     0.8103810    -0.7086120
  C        0.1769840    -0.1996970     0.5360780
  C        0.8528670     0.9715620     0.1268880
  C       -1.2378850    -0.1617980     1.0317040
  C        0.8256870    -1.4354030     0.3918760
  C        2.1654290     0.8711020    -0.3500530
  C        0.1613040     2.3091050     0.2016770
  C        2.1298550    -1.5237740    -0.0958170
  C        2.8296072    -0.3760809    -0.4722476
  C       -2.2184660    -0.2891600    -0.2009230
  H       -1.4126520    -1.0091000     1.7035120
  H       -1.4413430     0.7679950     1.5725290
  H        0.2756770    -2.3364080     0.6567980
  H        2.6838580     1.7794620    -0.6595800
  H       -0.8491240     2.2156170    -0.2099720
  H        0.0735000     2.6566880     1.2394400
  H        0.7245490     3.0640340    -0.3581400
  H        2.6081740    -2.4970700    -0.1982670
  H        3.8302350    -0.4147610    -0.8445580
units angstrom
no_reorient  #important for SAPT in psi4, default
symmetry c1  #important for SAPT in psi4, default
}

set PROPERTIES_ORIGIN ["COM"]
properties('MP2/aug-cc-pvtz', properties = ['dipole'])
--------------------------------------------------------------------------

    Molecular point group: c1
  Charge       = -1
  Multiplicity = 1
  Basis Set: AUG-CC-PVTZ
    Blend: AUG-CC-PVTZ
  Basis Set: (AUG-CC-PVTZ AUX)
    Blend: AUG-CC-PVTZ-JKFIT

    Orbital Energies [Eh]
    ---------------------

    Doubly Occupied:

       1A    -20.309392     2A    -20.309199     3A    -11.157179
       4A    -11.118809     5A    -11.117681     6A    -11.116705
       7A    -11.116436     8A    -11.113490     9A    -11.106773
      10A    -11.092304    11A    -11.073981    12A     -1.179444
      13A     -1.083584    14A     -1.030478    15A     -0.926916
      16A     -0.906406    17A     -0.819945    18A     -0.788870
      19A     -0.689930    20A     -0.665209    21A     -0.562403
      22A     -0.534114    23A     -0.522160    24A     -0.501222
      25A     -0.461529    26A     -0.452355    27A     -0.440917
      28A     -0.428440    29A     -0.425954    30A     -0.412504
      31A     -0.384256    32A     -0.376424    33A     -0.363167
      34A     -0.350421    35A     -0.333455    36A     -0.234711
      37A     -0.225710    38A     -0.211273    39A     -0.206709
      40A     -0.176364

  @DF-RHF Final Energy:  -495.99625141365095

   => Energetics <=

    Nuclear Repulsion Energy =            571.5869384921744540
    One-Electron Energy =               -1822.5127379627913342
    Two-Electron Energy =                 754.9295480569658139
    Total Energy =                       -495.9962514136509526
  Basis Set: (AUG-CC-PVTZ AUX)
    Blend: AUG-CC-PVTZ-RI
    Molecular point group: c1

    Geometry (in Angstrom), charge = -1, multiplicity = 1:

       Center              X                  Y                   Z               Mass
    ------------   -----------------  -----------------  -----------------  -----------------
         O           -2.436101081013    -1.444040816784    -0.515986989823    15.994914619570
         O           -2.542134081013     0.839581183216    -0.688826989823    15.994914619570
         C            0.218481918987    -0.170496816784     0.555863010177    12.000000000000
         C            0.894364918987     1.000762183216     0.146673010177    12.000000000000
         C           -1.196387081013    -0.132597816784     1.051489010177    12.000000000000
         C            0.867184918987    -1.406202816784     0.411661010177    12.000000000000
         C            2.206926918987     0.900302183216    -0.330267989823    12.000000000000
         C            0.202801918987     2.338305183216     0.221462010177    12.000000000000
         C            2.171352918987    -1.494573816784    -0.076031989823    12.000000000000
         C            2.871105118987    -0.346880716784    -0.452462589823    12.000000000000
         C           -2.176968081013    -0.259959816784    -0.181137989823    12.000000000000
         H           -1.371154081013    -0.979899816784     1.723297010177     1.007825032230
         H           -1.399845081013     0.797195183216     1.592314010177     1.007825032230
         H            0.317174918987    -2.307207816784     0.676583010177     1.007825032230
         H            2.725355918987     1.808662183216    -0.639794989823     1.007825032230
         H           -0.807626081013     2.244817183216    -0.190186989823     1.007825032230
         H            0.114997918987     2.685888183216     1.259225010177     1.007825032230
         H            0.766046918987     3.093234183216    -0.338354989823     1.007825032230
         H            2.649671918987    -2.467869816784    -0.178481989823     1.007825032230
         H            3.871732918987    -0.385560816784    -0.824772989823     1.007825032230

  Basis Set: AUG-CC-PVTZ
    Blend: AUG-CC-PVTZ
  Basis Set: (AUG-CC-PVTZ AUX)
    Blend: AUG-CC-PVTZ-JKFIT
	 Reference Energy          =    -495.9962514136509526 [Eh]
	 Singles Energy            =      -0.0000000000000000 [Eh]
	 Same-Spin Energy          =      -0.5330051151576619 [Eh]
	 Opposite-Spin Energy      =      -1.6356796252474437 [Eh]
	 Correlation Energy        =      -2.1686847404051055 [Eh]
	 Total Energy              =    -498.1649361540560790 [Eh]

	 ================> DF-SCS-MP2 Energies <==================
	-----------------------------------------------------------
	 SCS Same-Spin Scale       =       0.3333333333333333 [-]
	 SCS Opposite-Spin Scale   =       1.2000000000000000 [-]
	 SCS Same-Spin Energy      =      -0.1776683717192206 [Eh]
	 SCS Opposite-Spin Energy  =      -1.9628155502969324 [Eh]
	 SCS Correlation Energy    =      -2.1404839220161529 [Eh]
	 SCS Total Energy          =    -498.1367353356670833 [Eh]
	-----------------------------------------------------------

  Dipole Moment: [D]
     X:     8.4808      Y:     1.3917      Z:     2.9660     Total:     9.0917

*** Psi4 exiting successfully. Buy a developer a beer!
