                               Psi4 1.4a3.dev225

  ==> Input File <==

--------------------------------------------------------------------------
#psi4
#
memory 32 gb

molecule  {
-1 1
  O       -2.4775990    -1.4732410    -0.5357720
  O       -2.5836320     0.8103810    -0.7086120
  C        0.1769840    -0.1996970     0.5360780
  C        0.8528670     0.9715620     0.1268880
  C       -1.2378850    -0.1617980     1.0317040
  C        0.8256870    -1.4354030     0.3918760
  C        2.1654290     0.8711020    -0.3500530
  C        0.1613040     2.3091050     0.2016770
  C        2.1298550    -1.5237740    -0.0958170
  C        2.8103870    -0.3625320    -0.4658790
  C       -2.2751492    -0.4276375    -0.1304242
  H       -1.4126520    -1.0091000     1.7035120
  H       -1.4413430     0.7679950     1.5725290
  H        0.2756770    -2.3364080     0.6567980
  H        2.6838580     1.7794620    -0.6595800
  H       -0.8491240     2.2156170    -0.2099720
  H        0.0735000     2.6566880     1.2394400
  H        0.7245490     3.0640340    -0.3581400
  H        2.6081740    -2.4970700    -0.1982670
  H        3.8302350    -0.4147610    -0.8445580
units angstrom
no_reorient  #important for SAPT in psi4, default
symmetry c1  #important for SAPT in psi4, default
}

set PROPERTIES_ORIGIN ["COM"]
properties('MP2/aug-cc-pvtz', properties = ['dipole'])
--------------------------------------------------------------------------

    Molecular point group: c1
  Charge       = -1
  Multiplicity = 1
  Basis Set: AUG-CC-PVTZ
    Blend: AUG-CC-PVTZ
  Basis Set: (AUG-CC-PVTZ AUX)
    Blend: AUG-CC-PVTZ-JKFIT

    Orbital Energies [Eh]
    ---------------------

    Doubly Occupied:

       1A    -20.342468     2A    -20.277977     3A    -11.154008
       4A    -11.118922     5A    -11.116788     6A    -11.116642
       7A    -11.114177     8A    -11.113447     9A    -11.108599
      10A    -11.086730    11A    -11.075372    12A     -1.246949
      13A     -1.034817    14A     -1.023798    15A     -0.925366
      16A     -0.907883    17A     -0.820265    18A     -0.786705
      19A     -0.690976    20A     -0.664567    21A     -0.564467
      22A     -0.540046    23A     -0.521366    24A     -0.500992
      25A     -0.468344    26A     -0.455328    27A     -0.445320
      28A     -0.432052    29A     -0.427633    30A     -0.411475
      31A     -0.390038    32A     -0.379153    33A     -0.364131
      34A     -0.351236    35A     -0.344583    36A     -0.233008
      37A     -0.208843    38A     -0.205856    39A     -0.192903
      40A     -0.170300

  @DF-RHF Final Energy:  -495.96255778519469

   => Energetics <=

    Nuclear Repulsion Energy =            571.4702393447801114
    One-Electron Energy =               -1822.1985343892290530
    Two-Electron Energy =                 754.7657372592542515
    Total Energy =                       -495.9625577851946900
  Basis Set: (AUG-CC-PVTZ AUX)
    Blend: AUG-CC-PVTZ-RI
    Molecular point group: c1

    Geometry (in Angstrom), charge = -1, multiplicity = 1:

       Center              X                  Y                   Z               Mass
    ------------   -----------------  -----------------  -----------------  -----------------
         O           -2.429990526574    -1.433983520124    -0.522175150463    15.994914619570
         O           -2.536023526574     0.849638479876    -0.695015150463    15.994914619570
         C            0.224592473426    -0.160439520124     0.549674849537    12.000000000000
         C            0.900475473426     1.010819479876     0.140484849537    12.000000000000
         C           -1.190276526574    -0.122540520124     1.045300849537    12.000000000000
         C            0.873295473426    -1.396145520124     0.405472849537    12.000000000000
         C            2.213037473426     0.910359479876    -0.336456150463    12.000000000000
         C            0.208912473426     2.348362479876     0.215273849537    12.000000000000
         C            2.177463473426    -1.484516520124    -0.082220150463    12.000000000000
         C            2.857995473426    -0.323274520124    -0.452282150463    12.000000000000
         C           -2.227540726574    -0.388380020124    -0.116827350463    12.000000000000
         H           -1.365043526574    -0.969842520124     1.717108849537     1.007825032230
         H           -1.393734526574     0.807252479876     1.586125849537     1.007825032230
         H            0.323285473426    -2.297150520124     0.670394849537     1.007825032230
         H            2.731466473426     1.818719479876    -0.645983150463     1.007825032230
         H           -0.801515526574     2.254874479876    -0.196375150463     1.007825032230
         H            0.121108473426     2.695945479876     1.253036849537     1.007825032230
         H            0.772157473426     3.103291479876    -0.344543150463     1.007825032230
         H            2.655782473426    -2.457812520124    -0.184670150463     1.007825032230
         H            3.877843473426    -0.375503520124    -0.830961150463     1.007825032230

  Basis Set: AUG-CC-PVTZ
    Blend: AUG-CC-PVTZ
  Basis Set: (AUG-CC-PVTZ AUX)
    Blend: AUG-CC-PVTZ-JKFIT
	 Reference Energy          =    -495.9625577851946900 [Eh]
	 Singles Energy            =      -0.0000000000000000 [Eh]
	 Same-Spin Energy          =      -0.5331960867007132 [Eh]
	 Opposite-Spin Energy      =      -1.6363047928429479 [Eh]
	 Correlation Energy        =      -2.1695008795436612 [Eh]
	 Total Energy              =    -498.1320586647383379 [Eh]

	 ================> DF-SCS-MP2 Energies <==================
	-----------------------------------------------------------
	 SCS Same-Spin Scale       =       0.3333333333333333 [-]
	 SCS Opposite-Spin Scale   =       1.2000000000000000 [-]
	 SCS Same-Spin Energy      =      -0.1777320289002377 [Eh]
	 SCS Opposite-Spin Energy  =      -1.9635657514115374 [Eh]
	 SCS Correlation Energy    =      -2.1412977803117750 [Eh]
	 SCS Total Energy          =    -498.1038555655064783 [Eh]
	-----------------------------------------------------------

  Dipole Moment: [D]
     X:     8.5670      Y:    -0.0133      Z:     3.1020     Total:     9.1113

*** Psi4 exiting successfully. Buy a developer a beer!
