                               Psi4 1.4a3.dev225

  ==> Input File <==

--------------------------------------------------------------------------
#psi4
#
memory 32 gb

molecule  {
-1 1
  O       -2.4775990    -1.4732410    -0.5357720
  O       -2.5836320     0.8103810    -0.7086120
  C        0.1769840    -0.1996970     0.5360780
  C        0.8528670     0.9715620     0.1268880
  C       -1.2378850    -0.1617980     1.0317040
  C        0.8256870    -1.4354030     0.3918760
  C        2.1654290     0.8711020    -0.3500530
  C        0.1613040     2.3091050     0.2016770
  C        2.1298550    -1.5237740    -0.0958170
  C        2.8103870    -0.3625320    -0.4658790
  C       -2.1564130    -0.2811003    -0.1229200
  H       -1.4126520    -1.0091000     1.7035120
  H       -1.4413430     0.7679950     1.5725290
  H        0.2756770    -2.3364080     0.6567980
  H        2.6838580     1.7794620    -0.6595800
  H       -0.8491240     2.2156170    -0.2099720
  H        0.0735000     2.6566880     1.2394400
  H        0.7245490     3.0640340    -0.3581400
  H        2.6081740    -2.4970700    -0.1982670
  H        3.8302350    -0.4147610    -0.8445580
units angstrom
no_reorient  #important for SAPT in psi4, default
symmetry c1  #important for SAPT in psi4, default
}

set PROPERTIES_ORIGIN ["COM"]
properties('MP2/aug-cc-pvtz', properties = ['dipole'])
--------------------------------------------------------------------------

    Molecular point group: c1
  Charge       = -1
  Multiplicity = 1
  Basis Set: AUG-CC-PVTZ
    Blend: AUG-CC-PVTZ
  Basis Set: (AUG-CC-PVTZ AUX)
    Blend: AUG-CC-PVTZ-JKFIT

    Orbital Energies [Eh]
    ---------------------

    Doubly Occupied:

       1A    -20.303680     2A    -20.303560     3A    -11.156992
       4A    -11.122913     5A    -11.122093     6A    -11.119369
       7A    -11.118139     8A    -11.117925     9A    -11.112061
      10A    -11.094119    11A    -11.082091    12A     -1.152806
      13A     -1.049261    14A     -1.036776    15A     -0.933597
      16A     -0.914240    17A     -0.833186    18A     -0.798087
      19A     -0.695725    20A     -0.671559    21A     -0.569767
      22A     -0.542341    23A     -0.528675    24A     -0.504773
      25A     -0.462226    26A     -0.455974    27A     -0.443059
      28A     -0.431793    29A     -0.424864    30A     -0.414671
      31A     -0.375973    32A     -0.369859    33A     -0.367583
      34A     -0.349532    35A     -0.316246    36A     -0.237838
      37A     -0.212775    38A     -0.209397    39A     -0.194971
      40A     -0.189863

  @DF-RHF Final Energy:  -495.98220564513008

   => Energetics <=

    Nuclear Repulsion Energy =            572.3755950980262242
    One-Electron Energy =               -1824.0348853034618060
    Two-Electron Energy =                 755.6770845603055022
    Total Energy =                       -495.9822056451300796
  Basis Set: (AUG-CC-PVTZ AUX)
    Blend: AUG-CC-PVTZ-RI
    Molecular point group: c1

    Geometry (in Angstrom), charge = -1, multiplicity = 1:

       Center              X                  Y                   Z               Mass
    ------------   -----------------  -----------------  -----------------  -----------------
         O           -2.439549308051    -1.445780403241    -0.522779271262    15.994914619570
         O           -2.545582308051     0.837841596759    -0.695619271262    15.994914619570
         C            0.215033691949    -0.172236403241     0.549070728738    12.000000000000
         C            0.890916691949     0.999022596759     0.139880728738    12.000000000000
         C           -1.199835308051    -0.134337403241     1.044696728738    12.000000000000
         C            0.863736691949    -1.407942403241     0.404868728738    12.000000000000
         C            2.203478691949     0.898562596759    -0.337060271262    12.000000000000
         C            0.199353691949     2.336565596759     0.214669728738    12.000000000000
         C            2.167904691949    -1.496313403241    -0.082824271262    12.000000000000
         C            2.848436691949    -0.335071403241    -0.452886271262    12.000000000000
         C           -2.118363308051    -0.253639703241    -0.109927271262    12.000000000000
         H           -1.374602308051    -0.981639403241     1.716504728738     1.007825032230
         H           -1.403293308051     0.795455596759     1.585521728738     1.007825032230
         H            0.313726691949    -2.308947403241     0.669790728738     1.007825032230
         H            2.721907691949     1.806922596759    -0.646587271262     1.007825032230
         H           -0.811074308051     2.243077596759    -0.196979271262     1.007825032230
         H            0.111549691949     2.684148596759     1.252432728738     1.007825032230
         H            0.762598691949     3.091494596759    -0.345147271262     1.007825032230
         H            2.646223691949    -2.469609403241    -0.185274271262     1.007825032230
         H            3.868284691949    -0.387300403241    -0.831565271262     1.007825032230

  Basis Set: AUG-CC-PVTZ
    Blend: AUG-CC-PVTZ
  Basis Set: (AUG-CC-PVTZ AUX)
    Blend: AUG-CC-PVTZ-JKFIT
	 Reference Energy          =    -495.9822056451300796 [Eh]
	 Singles Energy            =      -0.0000000000000000 [Eh]
	 Same-Spin Energy          =      -0.5347615625836406 [Eh]
	 Opposite-Spin Energy      =      -1.6396917183286470 [Eh]
	 Correlation Energy        =      -2.1744532809122878 [Eh]
	 Total Energy              =    -498.1566589260423825 [Eh]

	 ================> DF-SCS-MP2 Energies <==================
	-----------------------------------------------------------
	 SCS Same-Spin Scale       =       0.3333333333333333 [-]
	 SCS Opposite-Spin Scale   =       1.2000000000000000 [-]
	 SCS Same-Spin Energy      =      -0.1782538541945469 [Eh]
	 SCS Opposite-Spin Energy  =      -1.9676300619943763 [Eh]
	 SCS Correlation Energy    =      -2.1458839161889229 [Eh]
	 SCS Total Energy          =    -498.1280895613190296 [Eh]
	-----------------------------------------------------------

  Dipole Moment: [D]
     X:     9.1350      Y:     1.4511      Z:     3.3686     Total:     9.8438

*** Psi4 exiting successfully. Buy a developer a beer!
