                               Psi4 1.4a3.dev225

  ==> Input File <==

--------------------------------------------------------------------------
#psi4
#
memory 32 gb

molecule  {
-1 1
  O       -2.4775990    -1.4732410    -0.5357720
  O       -2.5836320     0.8103810    -0.7086120
  C        0.1769840    -0.1996970     0.5360780
  C        0.8528670     0.9715620     0.1268880
  C       -1.2378850    -0.1617980     1.0317040
  C        0.8256870    -1.4354030     0.3918760
  C        2.1654290     0.8711020    -0.3500530
  C        0.1613040     2.3091050     0.2016770
  C        2.1298550    -1.5237740    -0.0958170
  C        2.8103870    -0.3625320    -0.4658790
  C       -2.2184660    -0.2891600    -0.2009230
  H       -1.4126520    -1.0091000     1.7035120
  H       -1.4785139     0.9378644     1.6713355
  H        0.2756770    -2.3364080     0.6567980
  H        2.6838580     1.7794620    -0.6595800
  H       -0.8491240     2.2156170    -0.2099720
  H        0.0735000     2.6566880     1.2394400
  H        0.7245490     3.0640340    -0.3581400
  H        2.6081740    -2.4970700    -0.1982670
  H        3.8302350    -0.4147610    -0.8445580
units angstrom
no_reorient  #important for SAPT in psi4, default
symmetry c1  #important for SAPT in psi4, default
}

set PROPERTIES_ORIGIN ["COM"]
properties('MP2/aug-cc-pvtz', properties = ['dipole'])
--------------------------------------------------------------------------

    Molecular point group: c1
  Charge       = -1
  Multiplicity = 1
  Basis Set: AUG-CC-PVTZ
    Blend: AUG-CC-PVTZ
  Basis Set: (AUG-CC-PVTZ AUX)
    Blend: AUG-CC-PVTZ-JKFIT

    Orbital Energies [Eh]
    ---------------------

    Doubly Occupied:

       1A    -20.311904     2A    -20.309506     3A    -11.159672
       4A    -11.119619     5A    -11.118284     6A    -11.117225
       7A    -11.115437     8A    -11.114913     9A    -11.108972
      10A    -11.097067    11A    -11.091453    12A     -1.180821
      13A     -1.084851    14A     -1.033222    15A     -0.926533
      16A     -0.908175    17A     -0.818630    18A     -0.782447
      19A     -0.690772    20A     -0.662911    21A     -0.563582
      22A     -0.530610    23A     -0.521918    24A     -0.499019
      25A     -0.460287    26A     -0.452235    27A     -0.441343
      28A     -0.429272    29A     -0.419535    30A     -0.410531
      31A     -0.379517    32A     -0.372599    33A     -0.365178
      34A     -0.347059    35A     -0.325448    36A     -0.236345
      37A     -0.225845    38A     -0.212531    39A     -0.208158
      40A     -0.177999

  @DF-RHF Final Energy:  -495.97650288339554

   => Energetics <=

    Nuclear Repulsion Energy =            571.1202768078854888
    One-Electron Energy =               -1821.5307089286134214
    Two-Electron Energy =                 754.4339292373323360
    Total Energy =                       -495.9765028833954830
  Basis Set: (AUG-CC-PVTZ AUX)
    Blend: AUG-CC-PVTZ-RI
    Molecular point group: c1

    Geometry (in Angstrom), charge = -1, multiplicity = 1:

       Center              X                  Y                   Z               Mass
    ------------   -----------------  -----------------  -----------------  -----------------
         O           -2.434302451564    -1.446280081936    -0.517167739612    15.994914619570
         O           -2.540335451564     0.837341918064    -0.690007739612    15.994914619570
         C            0.220280548436    -0.172736081936     0.554682260388    12.000000000000
         C            0.896163548436     0.998522918064     0.145492260388    12.000000000000
         C           -1.194588451564    -0.134837081936     1.050308260388    12.000000000000
         C            0.868983548436    -1.408442081936     0.410480260388    12.000000000000
         C            2.208725548436     0.898062918064    -0.331448739612    12.000000000000
         C            0.204600548436     2.336065918064     0.220281260388    12.000000000000
         C            2.173151548436    -1.496813081936    -0.077212739612    12.000000000000
         C            2.853683548436    -0.335571081936    -0.447274739612    12.000000000000
         C           -2.175169451564    -0.262199081936    -0.182318739612    12.000000000000
         H           -1.369355451564    -0.982139081936     1.722116260388     1.007825032230
         H           -1.435217351564     0.964825318064     1.689939760388     1.007825032230
         H            0.318973548436    -2.309447081936     0.675402260388     1.007825032230
         H            2.727154548436     1.806422918064    -0.640975739612     1.007825032230
         H           -0.805827451564     2.242577918064    -0.191367739612     1.007825032230
         H            0.116796548436     2.683648918064     1.258044260388     1.007825032230
         H            0.767845548436     3.090994918064    -0.339535739612     1.007825032230
         H            2.651470548436    -2.470109081936    -0.179662739612     1.007825032230
         H            3.873531548436    -0.387800081936    -0.825953739612     1.007825032230

  Basis Set: AUG-CC-PVTZ
    Blend: AUG-CC-PVTZ
  Basis Set: (AUG-CC-PVTZ AUX)
    Blend: AUG-CC-PVTZ-JKFIT
	 Reference Energy          =    -495.9765028833955398 [Eh]
	 Singles Energy            =      -0.0000000000000000 [Eh]
	 Same-Spin Energy          =      -0.5334144421986695 [Eh]
	 Opposite-Spin Energy      =      -1.6375693364549795 [Eh]
	 Correlation Energy        =      -2.1709837786536488 [Eh]
	 Total Energy              =    -498.1474866620491753 [Eh]

	 ================> DF-SCS-MP2 Energies <==================
	-----------------------------------------------------------
	 SCS Same-Spin Scale       =       0.3333333333333333 [-]
	 SCS Opposite-Spin Scale   =       1.2000000000000000 [-]
	 SCS Same-Spin Energy      =      -0.1778048140662232 [Eh]
	 SCS Opposite-Spin Energy  =      -1.9650832037459753 [Eh]
	 SCS Correlation Energy    =      -2.1428880178121985 [Eh]
	 SCS Total Energy          =    -498.1193909012077370 [Eh]
	-----------------------------------------------------------

  Dipole Moment: [D]
     X:     8.5448      Y:     1.2671      Z:     2.8109     Total:     9.0841

*** Psi4 exiting successfully. Buy a developer a beer!
