                               Psi4 1.4a3.dev225

  ==> Input File <==

--------------------------------------------------------------------------
#psi4
#
memory 32 gb

molecule  {
-1 1
  O       -2.4254060    -1.4998889    -0.4704281
  O       -2.5836320     0.8103810    -0.7086120
  C        0.1769840    -0.1996970     0.5360780
  C        0.8528670     0.9715620     0.1268880
  C       -1.2378850    -0.1617980     1.0317040
  C        0.8256870    -1.4354030     0.3918760
  C        2.1654290     0.8711020    -0.3500530
  C        0.1613040     2.3091050     0.2016770
  C        2.1298550    -1.5237740    -0.0958170
  C        2.8103870    -0.3625320    -0.4658790
  C       -2.2184660    -0.2891600    -0.2009230
  H       -1.4126520    -1.0091000     1.7035120
  H       -1.4413430     0.7679950     1.5725290
  H        0.2756770    -2.3364080     0.6567980
  H        2.6838580     1.7794620    -0.6595800
  H       -0.8491240     2.2156170    -0.2099720
  H        0.0735000     2.6566880     1.2394400
  H        0.7245490     3.0640340    -0.3581400
  H        2.6081740    -2.4970700    -0.1982670
  H        3.8302350    -0.4147610    -0.8445580
units angstrom
no_reorient  #important for SAPT in psi4, default
symmetry c1  #important for SAPT in psi4, default
}

set PROPERTIES_ORIGIN ["COM"]
properties('MP2/aug-cc-pvtz', properties = ['dipole'])
--------------------------------------------------------------------------

    Molecular point group: c1
  Charge       = -1
  Multiplicity = 1
  Basis Set: AUG-CC-PVTZ
    Blend: AUG-CC-PVTZ
  Basis Set: (AUG-CC-PVTZ AUX)
    Blend: AUG-CC-PVTZ-JKFIT

    Orbital Energies [Eh]
    ---------------------

    Doubly Occupied:

       1A    -20.314787     2A    -20.311734     3A    -11.159592
       4A    -11.116936     5A    -11.115630     6A    -11.114671
       7A    -11.113387     8A    -11.110791     9A    -11.105011
      10A    -11.091601    11A    -11.068704    12A     -1.180704
      13A     -1.090920    14A     -1.030591    15A     -0.925236
      16A     -0.905805    17A     -0.819161    18A     -0.785667
      19A     -0.688123    20A     -0.662715    21A     -0.561159
      22A     -0.533258    23A     -0.521628    24A     -0.498234
      25A     -0.461306    26A     -0.451826    27A     -0.439112
      28A     -0.429019    29A     -0.426036    30A     -0.411572
      31A     -0.385225    32A     -0.374601    33A     -0.363469
      34A     -0.350510    35A     -0.332488    36A     -0.236186
      37A     -0.228292    38A     -0.215551    39A     -0.206564
      40A     -0.172873

  @DF-RHF Final Energy:  -495.99475503051275

   => Energetics <=

    Nuclear Repulsion Energy =            572.6804942389466078
    One-Electron Energy =               -1824.7291445821151683
    Two-Electron Energy =                 756.0538953126557544
    Total Energy =                       -495.9947550305126924
  Basis Set: (AUG-CC-PVTZ AUX)
    Blend: AUG-CC-PVTZ-RI
    Molecular point group: c1

    Geometry (in Angstrom), charge = -1, multiplicity = 1:

       Center              X                  Y                   Z               Mass
    ------------   -----------------  -----------------  -----------------  -----------------
         O           -2.387961342432    -1.468920008646    -0.458167518820    15.994914619570
         O           -2.546187342432     0.841349891354    -0.696351418820    15.994914619570
         C            0.214428657568    -0.168728108646     0.548338581180    12.000000000000
         C            0.890311657568     1.002530891354     0.139148581180    12.000000000000
         C           -1.200440342432    -0.130829108646     1.043964581180    12.000000000000
         C            0.863131657568    -1.404434108646     0.404136581180    12.000000000000
         C            2.202873657568     0.902070891354    -0.337792418820    12.000000000000
         C            0.198748657568     2.340073891354     0.213937581180    12.000000000000
         C            2.167299657568    -1.492805108646    -0.083556418820    12.000000000000
         C            2.847831657568    -0.331563108646    -0.453618418820    12.000000000000
         C           -2.181021342432    -0.258191108646    -0.188662418820    12.000000000000
         H           -1.375207342432    -0.978131108646     1.715772581180     1.007825032230
         H           -1.403898342432     0.798963891354     1.584789581180     1.007825032230
         H            0.313121657568    -2.305439108646     0.669058581180     1.007825032230
         H            2.721302657568     1.810430891354    -0.647319418820     1.007825032230
         H           -0.811679342432     2.246585891354    -0.197711418820     1.007825032230
         H            0.110944657568     2.687656891354     1.251700581180     1.007825032230
         H            0.761993657568     3.095002891354    -0.345879418820     1.007825032230
         H            2.645618657568    -2.466101108646    -0.186006418820     1.007825032230
         H            3.867679657568    -0.383792108646    -0.832297418820     1.007825032230

  Basis Set: AUG-CC-PVTZ
    Blend: AUG-CC-PVTZ
  Basis Set: (AUG-CC-PVTZ AUX)
    Blend: AUG-CC-PVTZ-JKFIT
	 Reference Energy          =    -495.9947550305127493 [Eh]
	 Singles Energy            =      -0.0000000000000000 [Eh]
	 Same-Spin Energy          =      -0.5333522437543650 [Eh]
	 Opposite-Spin Energy      =      -1.6360036865742527 [Eh]
	 Correlation Energy        =      -2.1693559303286176 [Eh]
	 Total Energy              =    -498.1641109608413558 [Eh]

	 ================> DF-SCS-MP2 Energies <==================
	-----------------------------------------------------------
	 SCS Same-Spin Scale       =       0.3333333333333333 [-]
	 SCS Opposite-Spin Scale   =       1.2000000000000000 [-]
	 SCS Same-Spin Energy      =      -0.1777840812514550 [Eh]
	 SCS Opposite-Spin Energy  =      -1.9632044238891031 [Eh]
	 SCS Correlation Energy    =      -2.1409885051405579 [Eh]
	 SCS Total Energy          =    -498.1357435356533188 [Eh]
	-----------------------------------------------------------

  Dipole Moment: [D]
     X:     8.2496      Y:     1.4143      Z:     2.7942     Total:     8.8240

*** Psi4 exiting successfully. Buy a developer a beer!
