                               Psi4 1.4a3.dev225

  ==> Input File <==

--------------------------------------------------------------------------
#psi4
#
memory 32 gb

molecule  {
-1 1
  O       -2.4775990    -1.4732410    -0.5357720
  O       -2.5836320     0.8103810    -0.7086120
  C        0.1769840    -0.1996970     0.5360780
  C        0.8528670     0.9715620     0.1268880
  C       -1.2378850    -0.1617980     1.0317040
  C        0.8256870    -1.4354030     0.3918760
  C        2.1654290     0.8711020    -0.3500530
  C        0.1613040     2.3091050     0.2016770
  C        2.1485504    -1.5250408    -0.1028081
  C        2.8103870    -0.3625320    -0.4658790
  C       -2.2184660    -0.2891600    -0.2009230
  H       -1.4126520    -1.0091000     1.7035120
  H       -1.4413430     0.7679950     1.5725290
  H        0.2756770    -2.3364080     0.6567980
  H        2.6838580     1.7794620    -0.6595800
  H       -0.8491240     2.2156170    -0.2099720
  H        0.0735000     2.6566880     1.2394400
  H        0.7245490     3.0640340    -0.3581400
  H        2.6081740    -2.4970700    -0.1982670
  H        3.8302350    -0.4147610    -0.8445580
units angstrom
no_reorient  #important for SAPT in psi4, default
symmetry c1  #important for SAPT in psi4, default
}

set PROPERTIES_ORIGIN ["COM"]
properties('MP2/aug-cc-pvtz', properties = ['dipole'])
--------------------------------------------------------------------------

    Molecular point group: c1
  Charge       = -1
  Multiplicity = 1
  Basis Set: AUG-CC-PVTZ
    Blend: AUG-CC-PVTZ
  Basis Set: (AUG-CC-PVTZ AUX)
    Blend: AUG-CC-PVTZ-JKFIT

    Orbital Energies [Eh]
    ---------------------

    Doubly Occupied:

       1A    -20.309162     2A    -20.308929     3A    -11.156824
       4A    -11.117991     5A    -11.117814     6A    -11.116130
       7A    -11.114401     8A    -11.112614     9A    -11.108896
      10A    -11.092430    11A    -11.073668    12A     -1.179189
      13A     -1.083338    14A     -1.031486    15A     -0.927782
      16A     -0.906399    17A     -0.819904    18A     -0.788855
      19A     -0.690105    20A     -0.664400    21A     -0.562868
      22A     -0.533023    23A     -0.522718    24A     -0.500289
      25A     -0.461329    26A     -0.452082    27A     -0.441787
      28A     -0.428236    29A     -0.426221    30A     -0.412107
      31A     -0.384572    32A     -0.373928    33A     -0.364120
      34A     -0.352966    35A     -0.332341    36A     -0.235721
      37A     -0.225521    38A     -0.210803    39A     -0.205358
      40A     -0.177224

  @DF-RHF Final Energy:  -495.99671050519709

   => Energetics <=

    Nuclear Repulsion Energy =            571.7732198072310439
    One-Electron Energy =               -1822.8927932639430765
    Two-Electron Energy =                 755.1228629515150033
    Total Energy =                       -495.9967105051970293
  Basis Set: (AUG-CC-PVTZ AUX)
    Blend: AUG-CC-PVTZ-RI
    Molecular point group: c1

    Geometry (in Angstrom), charge = -1, multiplicity = 1:

       Center              X                  Y                   Z               Mass
    ------------   -----------------  -----------------  -----------------  -----------------
         O           -2.436058832326    -1.445029579352    -0.515936875861    15.994914619570
         O           -2.542091832326     0.838592420648    -0.688776875861    15.994914619570
         C            0.218524167674    -0.171485579352     0.555913124139    12.000000000000
         C            0.894407167674     0.999773420648     0.146723124139    12.000000000000
         C           -1.196344832326    -0.133586579352     1.051539124139    12.000000000000
         C            0.867227167674    -1.407191579352     0.411711124139    12.000000000000
         C            2.206969167674     0.899313420648    -0.330217875861    12.000000000000
         C            0.202844167674     2.337316420648     0.221512124139    12.000000000000
         C            2.190090567674    -1.496829379352    -0.082972975861    12.000000000000
         C            2.851927167674    -0.334320579352    -0.446043875861    12.000000000000
         C           -2.176925832326    -0.260948579352    -0.181087875861    12.000000000000
         H           -1.371111832326    -0.980888579352     1.723347124139     1.007825032230
         H           -1.399802832326     0.796206420648     1.592364124139     1.007825032230
         H            0.317217167674    -2.308196579352     0.676633124139     1.007825032230
         H            2.725398167674     1.807673420648    -0.639744875861     1.007825032230
         H           -0.807583832326     2.243828420648    -0.190136875861     1.007825032230
         H            0.115040167674     2.684899420648     1.259275124139     1.007825032230
         H            0.766089167674     3.092245420648    -0.338304875861     1.007825032230
         H            2.649714167674    -2.468858579352    -0.178431875861     1.007825032230
         H            3.871775167674    -0.386549579352    -0.824722875861     1.007825032230

  Basis Set: AUG-CC-PVTZ
    Blend: AUG-CC-PVTZ
  Basis Set: (AUG-CC-PVTZ AUX)
    Blend: AUG-CC-PVTZ-JKFIT
	 Reference Energy          =    -495.9967105051970861 [Eh]
	 Singles Energy            =      -0.0000000000000000 [Eh]
	 Same-Spin Energy          =      -0.5329669654622937 [Eh]
	 Opposite-Spin Energy      =      -1.6355460029947713 [Eh]
	 Correlation Energy        =      -2.1685129684570650 [Eh]
	 Total Energy              =    -498.1652234736541232 [Eh]

	 ================> DF-SCS-MP2 Energies <==================
	-----------------------------------------------------------
	 SCS Same-Spin Scale       =       0.3333333333333333 [-]
	 SCS Opposite-Spin Scale   =       1.2000000000000000 [-]
	 SCS Same-Spin Energy      =      -0.1776556551540979 [Eh]
	 SCS Opposite-Spin Energy  =      -1.9626552035937255 [Eh]
	 SCS Correlation Energy    =      -2.1403108587478235 [Eh]
	 SCS Total Energy          =    -498.1370213639448821 [Eh]
	-----------------------------------------------------------

  Dipole Moment: [D]
     X:     8.4926      Y:     1.3905      Z:     2.9654     Total:     9.1023

*** Psi4 exiting successfully. Buy a developer a beer!
