                               Psi4 1.4a3.dev225

  ==> Input File <==

--------------------------------------------------------------------------
#psi4
#
memory 32 gb

molecule  {
-1 1
  O       -2.4775990    -1.4732410    -0.5357720
  O       -2.5836320     0.8103810    -0.7086120
  C        0.1769840    -0.1996970     0.5360780
  C        0.8528670     0.9715620     0.1268880
  C       -1.2378850    -0.1617980     1.0317040
  C        0.8256870    -1.4354030     0.3918760
  C        2.1654290     0.8711020    -0.3500530
  C        0.1613040     2.3091050     0.2016770
  C        2.1309367    -1.4752120    -0.0992925
  C        2.8103870    -0.3625320    -0.4658790
  C       -2.2184660    -0.2891600    -0.2009230
  H       -1.4126520    -1.0091000     1.7035120
  H       -1.4413430     0.7679950     1.5725290
  H        0.2756770    -2.3364080     0.6567980
  H        2.6838580     1.7794620    -0.6595800
  H       -0.8491240     2.2156170    -0.2099720
  H        0.0735000     2.6566880     1.2394400
  H        0.7245490     3.0640340    -0.3581400
  H        2.6081740    -2.4970700    -0.1982670
  H        3.8302350    -0.4147610    -0.8445580
units angstrom
no_reorient  #important for SAPT in psi4, default
symmetry c1  #important for SAPT in psi4, default
}

set PROPERTIES_ORIGIN ["COM"]
properties('MP2/aug-cc-pvtz', properties = ['dipole'])
--------------------------------------------------------------------------

    Molecular point group: c1
  Charge       = -1
  Multiplicity = 1
  Basis Set: AUG-CC-PVTZ
    Blend: AUG-CC-PVTZ
  Basis Set: (AUG-CC-PVTZ AUX)
    Blend: AUG-CC-PVTZ-JKFIT

    Orbital Energies [Eh]
    ---------------------

    Doubly Occupied:

       1A    -20.309317     2A    -20.309183     3A    -11.157098
       4A    -11.116725     5A    -11.115768     6A    -11.114569
       7A    -11.112871     8A    -11.112718     9A    -11.106191
      10A    -11.092022    11A    -11.073617    12A     -1.179396
      13A     -1.083540    14A     -1.036116    15A     -0.930944
      16A     -0.907379    17A     -0.819848    18A     -0.789801
      19A     -0.692166    20A     -0.660288    21A     -0.561503
      22A     -0.533665    23A     -0.525880    24A     -0.497358
      25A     -0.461897    26A     -0.451164    27A     -0.437751
      28A     -0.429126    29A     -0.425609    30A     -0.412665
      31A     -0.383140    32A     -0.377358    33A     -0.368712
      34A     -0.349678    35A     -0.331384    36A     -0.236632
      37A     -0.225744    38A     -0.211153    39A     -0.206409
      40A     -0.178369

  @DF-RHF Final Energy:  -495.99441279639859

   => Energetics <=

    Nuclear Repulsion Energy =            572.8084889488712861
    One-Electron Energy =               -1824.9562920798853156
    Two-Electron Energy =                 756.1533903346153238
    Total Energy =                       -495.9944127963985920
  Basis Set: (AUG-CC-PVTZ AUX)
    Blend: AUG-CC-PVTZ-RI
    Molecular point group: c1

    Geometry (in Angstrom), charge = -1, multiplicity = 1:

       Center              X                  Y                   Z               Mass
    ------------   -----------------  -----------------  -----------------  -----------------
         O           -2.434640852727    -1.449041014874    -0.516219896980    15.994914619570
         O           -2.540673852727     0.834580985126    -0.689059896980    15.994914619570
         C            0.219942147273    -0.175497014874     0.555630103020    12.000000000000
         C            0.895825147273     0.995761985126     0.146440103020    12.000000000000
         C           -1.194926852727    -0.137598014874     1.051256103020    12.000000000000
         C            0.868645147273    -1.411203014874     0.411428103020    12.000000000000
         C            2.208387147273     0.895301985126    -0.330500896980    12.000000000000
         C            0.204262147273     2.333304985126     0.221229103020    12.000000000000
         C            2.173894847273    -1.451012014874    -0.079740396980    12.000000000000
         C            2.853345147273    -0.338332014874    -0.446326896980    12.000000000000
         C           -2.175507852727    -0.264960014874    -0.181370896980    12.000000000000
         H           -1.369693852727    -0.984900014874     1.723064103020     1.007825032230
         H           -1.398384852727     0.792194985126     1.592081103020     1.007825032230
         H            0.318635147273    -2.312208014874     0.676350103020     1.007825032230
         H            2.726816147273     1.803661985126    -0.640027896980     1.007825032230
         H           -0.806165852727     2.239816985126    -0.190419896980     1.007825032230
         H            0.116458147273     2.680887985126     1.258992103020     1.007825032230
         H            0.767507147273     3.088233985126    -0.338587896980     1.007825032230
         H            2.651132147273    -2.472870014874    -0.178714896980     1.007825032230
         H            3.873193147273    -0.390561014874    -0.825005896980     1.007825032230

  Basis Set: AUG-CC-PVTZ
    Blend: AUG-CC-PVTZ
  Basis Set: (AUG-CC-PVTZ AUX)
    Blend: AUG-CC-PVTZ-JKFIT
	 Reference Energy          =    -495.9944127963985920 [Eh]
	 Singles Energy            =      -0.0000000000000000 [Eh]
	 Same-Spin Energy          =      -0.5330413083876614 [Eh]
	 Opposite-Spin Energy      =      -1.6353762003308487 [Eh]
	 Correlation Energy        =      -2.1684175087185102 [Eh]
	 Total Energy              =    -498.1628303051170974 [Eh]

	 ================> DF-SCS-MP2 Energies <==================
	-----------------------------------------------------------
	 SCS Same-Spin Scale       =       0.3333333333333333 [-]
	 SCS Opposite-Spin Scale   =       1.2000000000000000 [-]
	 SCS Same-Spin Energy      =      -0.1776804361292205 [Eh]
	 SCS Opposite-Spin Energy  =      -1.9624514403970184 [Eh]
	 SCS Correlation Energy    =      -2.1401318765262389 [Eh]
	 SCS Total Energy          =    -498.1345446729248465 [Eh]
	-----------------------------------------------------------

  Dipole Moment: [D]
     X:     8.4812      Y:     1.4320      Z:     2.9672     Total:     9.0987

*** Psi4 exiting successfully. Buy a developer a beer!
