                               Psi4 1.4a3.dev225

  ==> Input File <==

--------------------------------------------------------------------------
#psi4
#
memory 32 gb

molecule  {
-1 1
  O       -2.4775990    -1.4732410    -0.5357720
  O       -2.5836320     0.8103810    -0.7086120
  C        0.1769840    -0.1996970     0.5360780
  C        0.8528670     0.9715620     0.1268880
  C       -1.2378850    -0.1617980     1.0317040
  C        0.8256870    -1.4354030     0.3918760
  C        2.1654290     0.8711020    -0.3500530
  C        0.1613040     2.3091050     0.2016770
  C        2.1298550    -1.5237740    -0.0958170
  C        2.8103870    -0.3625320    -0.4658790
  C       -2.2184660    -0.2891600    -0.2009230
  H       -1.3966966    -0.9317455     1.6421792
  H       -1.4413430     0.7679950     1.5725290
  H        0.2756770    -2.3364080     0.6567980
  H        2.6838580     1.7794620    -0.6595800
  H       -0.8491240     2.2156170    -0.2099720
  H        0.0735000     2.6566880     1.2394400
  H        0.7245490     3.0640340    -0.3581400
  H        2.6081740    -2.4970700    -0.1982670
  H        3.8302350    -0.4147610    -0.8445580
units angstrom
no_reorient  #important for SAPT in psi4, default
symmetry c1  #important for SAPT in psi4, default
}

set PROPERTIES_ORIGIN ["COM"]
properties('MP2/aug-cc-pvtz', properties = ['dipole'])
--------------------------------------------------------------------------

    Molecular point group: c1
  Charge       = -1
  Multiplicity = 1
  Basis Set: AUG-CC-PVTZ
    Blend: AUG-CC-PVTZ
  Basis Set: (AUG-CC-PVTZ AUX)
    Blend: AUG-CC-PVTZ-JKFIT

    Orbital Energies [Eh]
    ---------------------

    Doubly Occupied:

       1A    -20.309209     2A    -20.308251     3A    -11.156106
       4A    -11.118133     5A    -11.116584     6A    -11.115961
       7A    -11.114341     8A    -11.112039     9A    -11.106814
      10A    -11.091727    11A    -11.061014    12A     -1.178932
      13A     -1.083014    14A     -1.032042    15A     -0.927385
      16A     -0.908910    17A     -0.824488    18A     -0.790866
      19A     -0.691040    20A     -0.664821    21A     -0.562047
      22A     -0.536353    23A     -0.525039    24A     -0.500841
      25A     -0.461440    26A     -0.452970    27A     -0.441105
      28A     -0.434168    29A     -0.425459    30A     -0.411978
      31A     -0.388150    32A     -0.375356    33A     -0.364552
      34A     -0.353871    35A     -0.332686    36A     -0.234621
      37A     -0.225873    38A     -0.211091    39A     -0.206885
      40A     -0.175650

  @DF-RHF Final Energy:  -495.99168410099628

   => Energetics <=

    Nuclear Repulsion Energy =            572.5784637510295170
    One-Electron Energy =               -1824.4766619981592157
    Two-Electron Energy =                 755.9065141461333042
    Total Energy =                       -495.9916841009962809
  Basis Set: (AUG-CC-PVTZ AUX)
    Blend: AUG-CC-PVTZ-RI
    Molecular point group: c1

    Geometry (in Angstrom), charge = -1, multiplicity = 1:

       Center              X                  Y                   Z               Mass
    ------------   -----------------  -----------------  -----------------  -----------------
         O           -2.434661648690    -1.445654570915    -0.516085007024    15.994914619570
         O           -2.540694648690     0.837967429085    -0.688925007024    15.994914619570
         C            0.219921351310    -0.172110570915     0.555764992976    12.000000000000
         C            0.895804351310     0.999148429085     0.146574992976    12.000000000000
         C           -1.194947648690    -0.134211570915     1.051390992976    12.000000000000
         C            0.868624351310    -1.407816570915     0.411562992976    12.000000000000
         C            2.208366351310     0.898688429085    -0.330366007024    12.000000000000
         C            0.204241351310     2.336691429085     0.221363992976    12.000000000000
         C            2.172792351310    -1.496187570915    -0.076130007024    12.000000000000
         C            2.853324351310    -0.334945570915    -0.446192007024    12.000000000000
         C           -2.175528648690    -0.261573570915    -0.181236007024    12.000000000000
         H           -1.353759248690    -0.904159070915     1.661866192976     1.007825032230
         H           -1.398405648690     0.795581429085     1.592215992976     1.007825032230
         H            0.318614351310    -2.308821570915     0.676484992976     1.007825032230
         H            2.726795351310     1.807048429085    -0.639893007024     1.007825032230
         H           -0.806186648690     2.243203429085    -0.190285007024     1.007825032230
         H            0.116437351310     2.684274429085     1.259126992976     1.007825032230
         H            0.767486351310     3.091620429085    -0.338453007024     1.007825032230
         H            2.651111351310    -2.469483570915    -0.178580007024     1.007825032230
         H            3.873172351310    -0.387174570915    -0.824871007024     1.007825032230

  Basis Set: AUG-CC-PVTZ
    Blend: AUG-CC-PVTZ
  Basis Set: (AUG-CC-PVTZ AUX)
    Blend: AUG-CC-PVTZ-JKFIT
	 Reference Energy          =    -495.9916841009962809 [Eh]
	 Singles Energy            =      -0.0000000000000000 [Eh]
	 Same-Spin Energy          =      -0.5329245661698867 [Eh]
	 Opposite-Spin Energy      =      -1.6348899335930382 [Eh]
	 Correlation Energy        =      -2.1678144997629252 [Eh]
	 Total Energy              =    -498.1594986007592070 [Eh]

	 ================> DF-SCS-MP2 Energies <==================
	-----------------------------------------------------------
	 SCS Same-Spin Scale       =       0.3333333333333333 [-]
	 SCS Opposite-Spin Scale   =       1.2000000000000000 [-]
	 SCS Same-Spin Energy      =      -0.1776415220566289 [Eh]
	 SCS Opposite-Spin Energy  =      -1.9618679203116458 [Eh]
	 SCS Correlation Energy    =      -2.1395094423682748 [Eh]
	 SCS Total Energy          =    -498.1311935433645317 [Eh]
	-----------------------------------------------------------

  Dipole Moment: [D]
     X:     8.4629      Y:     1.3610      Z:     3.0257     Total:     9.0900

*** Psi4 exiting successfully. Buy a developer a beer!
