                               Psi4 1.4a3.dev225

  ==> Input File <==

--------------------------------------------------------------------------
#psi4
#
memory 32 gb

molecule  {
-1 1
  O       -2.4775990    -1.4732410    -0.5357720
  O       -2.5836320     0.8103810    -0.7086120
  C        0.1769840    -0.1996970     0.5360780
  C        0.8528670     0.9715620     0.1268880
  C       -1.2378850    -0.1617980     1.0317040
  C        0.8256870    -1.4354030     0.3918760
  C        2.1654290     0.8711020    -0.3500530
  C        0.1613040     2.3091050     0.2016770
  C        2.1298550    -1.5237740    -0.0958170
  C        2.8103870    -0.3625320    -0.4658790
  C       -2.2494925    -0.2931899    -0.2399245
  H       -1.4126520    -1.0091000     1.7035120
  H       -1.4413430     0.7679950     1.5725290
  H        0.2756770    -2.3364080     0.6567980
  H        2.6838580     1.7794620    -0.6595800
  H       -0.8491240     2.2156170    -0.2099720
  H        0.0735000     2.6566880     1.2394400
  H        0.7245490     3.0640340    -0.3581400
  H        2.6081740    -2.4970700    -0.1982670
  H        3.8302350    -0.4147610    -0.8445580
units angstrom
no_reorient  #important for SAPT in psi4, default
symmetry c1  #important for SAPT in psi4, default
}

set PROPERTIES_ORIGIN ["COM"]
properties('MP2/aug-cc-pvtz', properties = ['dipole'])
--------------------------------------------------------------------------

    Molecular point group: c1
  Charge       = -1
  Multiplicity = 1
  Basis Set: AUG-CC-PVTZ
    Blend: AUG-CC-PVTZ
  Basis Set: (AUG-CC-PVTZ AUX)
    Blend: AUG-CC-PVTZ-JKFIT

    Orbital Energies [Eh]
    ---------------------

    Doubly Occupied:

       1A    -20.313634     2A    -20.313444     3A    -11.159048
       4A    -11.115834     5A    -11.114446     6A    -11.114127
       7A    -11.112731     8A    -11.109940     9A    -11.104033
      10A    -11.091114    11A    -11.067604    12A     -1.193149
      13A     -1.101802    14A     -1.029663    15A     -0.923867
      16A     -0.904341    17A     -0.816582    18A     -0.781794
      19A     -0.686872    20A     -0.660462    21A     -0.559004
      22A     -0.530363    23A     -0.520314    24A     -0.497172
      25A     -0.462277    26A     -0.451184    27A     -0.438640
      28A     -0.430868    29A     -0.426444    30A     -0.411040
      31A     -0.388198    32A     -0.378254    33A     -0.363341
      34A     -0.350428    35A     -0.337465    36A     -0.236989
      37A     -0.230670    38A     -0.219000    39A     -0.206136
      40A     -0.167015

  @DF-RHF Final Energy:  -495.99688872096192

   => Energetics <=

    Nuclear Repulsion Energy =            571.8510069722333355
    One-Electron Energy =               -1823.0572248536800544
    Two-Electron Energy =                 755.2093291604847991
    Total Energy =                       -495.9968887209619197
  Basis Set: (AUG-CC-PVTZ AUX)
    Blend: AUG-CC-PVTZ-RI
    Molecular point group: c1

    Geometry (in Angstrom), charge = -1, multiplicity = 1:

       Center              X                  Y                   Z               Mass
    ------------   -----------------  -----------------  -----------------  -----------------
         O           -2.432056002720    -1.444807137762    -0.513359899180    15.994914619570
         O           -2.538089002720     0.838814862238    -0.686199899180    15.994914619570
         C            0.222526997280    -0.171263137762     0.558490100820    12.000000000000
         C            0.898409997280     0.999995862238     0.149300100820    12.000000000000
         C           -1.192342002720    -0.133364137762     1.054116100820    12.000000000000
         C            0.871229997280    -1.406969137762     0.414288100820    12.000000000000
         C            2.210971997280     0.899535862238    -0.327640899180    12.000000000000
         C            0.206846997280     2.337538862238     0.224089100820    12.000000000000
         C            2.175397997280    -1.495340137762    -0.073404899180    12.000000000000
         C            2.855929997280    -0.334098137762    -0.443466899180    12.000000000000
         C           -2.203949502720    -0.264756037762    -0.217512399180    12.000000000000
         H           -1.367109002720    -0.980666137762     1.725924100820     1.007825032230
         H           -1.395800002720     0.796428862238     1.594941100820     1.007825032230
         H            0.321219997280    -2.307974137762     0.679210100820     1.007825032230
         H            2.729400997280     1.807895862238    -0.637167899180     1.007825032230
         H           -0.803581002720     2.244050862238    -0.187559899180     1.007825032230
         H            0.119042997280     2.685121862238     1.261852100820     1.007825032230
         H            0.770091997280     3.092467862238    -0.335727899180     1.007825032230
         H            2.653716997280    -2.468636137762    -0.175854899180     1.007825032230
         H            3.875777997280    -0.386327137762    -0.822145899180     1.007825032230

  Basis Set: AUG-CC-PVTZ
    Blend: AUG-CC-PVTZ
  Basis Set: (AUG-CC-PVTZ AUX)
    Blend: AUG-CC-PVTZ-JKFIT
	 Reference Energy          =    -495.9968887209619197 [Eh]
	 Singles Energy            =      -0.0000000000000000 [Eh]
	 Same-Spin Energy          =      -0.5326818931383068 [Eh]
	 Opposite-Spin Energy      =      -1.6343309486423696 [Eh]
	 Correlation Energy        =      -2.1670128417806764 [Eh]
	 Total Energy              =    -498.1639015627425806 [Eh]

	 ================> DF-SCS-MP2 Energies <==================
	-----------------------------------------------------------
	 SCS Same-Spin Scale       =       0.3333333333333333 [-]
	 SCS Opposite-Spin Scale   =       1.2000000000000000 [-]
	 SCS Same-Spin Energy      =      -0.1775606310461023 [Eh]
	 SCS Opposite-Spin Energy  =      -1.9611971383708435 [Eh]
	 SCS Correlation Energy    =      -2.1387577694169457 [Eh]
	 SCS Total Energy          =    -498.1356464903788606 [Eh]
	-----------------------------------------------------------

  Dipole Moment: [D]
     X:     8.0735      Y:     1.3556      Z:     2.7204     Total:     8.6267

*** Psi4 exiting successfully. Buy a developer a beer!
