                               Psi4 1.4a3.dev225

  ==> Input File <==

--------------------------------------------------------------------------
#psi4
#
memory 32 gb

molecule  {
-1 1
  O       -2.4775990    -1.4732410    -0.5357720
  O       -2.5836320     0.8103810    -0.7086120
  C        0.1769840    -0.1996970     0.5360780
  C        0.8528670     0.9715620     0.1268880
  C       -1.2378850    -0.1617980     1.0317040
  C        0.8256870    -1.4354030     0.3918760
  C        2.1654290     0.8711020    -0.3500530
  C        0.1613040     2.3091050     0.2016770
  C        2.1170913    -1.6685782    -0.0818459
  C        2.8103870    -0.3625320    -0.4658790
  C       -2.2184660    -0.2891600    -0.2009230
  H       -1.4126520    -1.0091000     1.7035120
  H       -1.4413430     0.7679950     1.5725290
  H        0.2756770    -2.3364080     0.6567980
  H        2.6838580     1.7794620    -0.6595800
  H       -0.8491240     2.2156170    -0.2099720
  H        0.0735000     2.6566880     1.2394400
  H        0.7245490     3.0640340    -0.3581400
  H        2.6081740    -2.4970700    -0.1982670
  H        3.8302350    -0.4147610    -0.8445580
units angstrom
no_reorient  #important for SAPT in psi4, default
symmetry c1  #important for SAPT in psi4, default
}

set PROPERTIES_ORIGIN ["COM"]
properties('MP2/aug-cc-pvtz', properties = ['dipole'])
--------------------------------------------------------------------------

    Molecular point group: c1
  Charge       = -1
  Multiplicity = 1
  Basis Set: AUG-CC-PVTZ
    Blend: AUG-CC-PVTZ
  Basis Set: (AUG-CC-PVTZ AUX)
    Blend: AUG-CC-PVTZ-JKFIT

    Orbital Energies [Eh]
    ---------------------

    Doubly Occupied:

       1A    -20.309101     2A    -20.308773     3A    -11.156692
       4A    -11.131366     5A    -11.119417     6A    -11.119394
       7A    -11.116710     8A    -11.113520     9A    -11.111437
      10A    -11.093278    11A    -11.074335    12A     -1.179093
      13A     -1.083239    14A     -1.024485    15A     -0.918912
      16A     -0.908401    17A     -0.826099    18A     -0.784122
      19A     -0.686939    20A     -0.676600    21A     -0.569991
      22A     -0.532194    23A     -0.519601    24A     -0.508207
      25A     -0.468198    26A     -0.461039    27A     -0.436554
      28A     -0.426948    29A     -0.424309    30A     -0.409579
      31A     -0.387160    32A     -0.367582    33A     -0.355733
      34A     -0.349377    35A     -0.332165    36A     -0.232714
      37A     -0.225342    38A     -0.213716    39A     -0.208865
      40A     -0.169965

  @DF-RHF Final Energy:  -495.96834449761866

   => Energetics <=

    Nuclear Repulsion Energy =            569.9074142317302858
    One-Electron Energy =               -1819.0692126367639503
    Two-Electron Energy =                 753.1934539074148915
    Total Energy =                       -495.9683444976186593
  Basis Set: (AUG-CC-PVTZ AUX)
    Blend: AUG-CC-PVTZ-RI
    Molecular point group: c1

    Geometry (in Angstrom), charge = -1, multiplicity = 1:

       Center              X                  Y                   Z               Mass
    ------------   -----------------  -----------------  -----------------  -----------------
         O           -2.433526237698    -1.433474193206    -0.517624424301    15.994914619570
         O           -2.539559237698     0.850147806794    -0.690464424301    15.994914619570
         C            0.221056762302    -0.159930193206     0.554225575699    12.000000000000
         C            0.896939762302     1.011328806794     0.145035575699    12.000000000000
         C           -1.193812237698    -0.122031193206     1.049851575699    12.000000000000
         C            0.869759762302    -1.395636193206     0.410023575699    12.000000000000
         C            2.209501762302     0.910868806794    -0.331905424301    12.000000000000
         C            0.205376762302     2.348871806794     0.219824575699    12.000000000000
         C            2.161164062302    -1.628811393206    -0.063698324301    12.000000000000
         C            2.854459762302    -0.322765193206    -0.447731424301    12.000000000000
         C           -2.174393237698    -0.249393193206    -0.182775424301    12.000000000000
         H           -1.368579237698    -0.969333193206     1.721659575699     1.007825032230
         H           -1.397270237698     0.807761806794     1.590676575699     1.007825032230
         H            0.319749762302    -2.296641193206     0.674945575699     1.007825032230
         H            2.727930762302     1.819228806794    -0.641432424301     1.007825032230
         H           -0.805051237698     2.255383806794    -0.191824424301     1.007825032230
         H            0.117572762302     2.696454806794     1.257587575699     1.007825032230
         H            0.768621762302     3.103800806794    -0.339992424301     1.007825032230
         H            2.652246762302    -2.457303193206    -0.180119424301     1.007825032230
         H            3.874307762302    -0.374994193206    -0.826410424301     1.007825032230

  Basis Set: AUG-CC-PVTZ
    Blend: AUG-CC-PVTZ
  Basis Set: (AUG-CC-PVTZ AUX)
    Blend: AUG-CC-PVTZ-JKFIT
	 Reference Energy          =    -495.9683444976186593 [Eh]
	 Singles Energy            =      -0.0000000000000000 [Eh]
	 Same-Spin Energy          =      -0.5332979313168043 [Eh]
	 Opposite-Spin Energy      =      -1.6379151871283515 [Eh]
	 Correlation Energy        =      -2.1712131184451557 [Eh]
	 Total Energy              =    -498.1395576160638257 [Eh]

	 ================> DF-SCS-MP2 Energies <==================
	-----------------------------------------------------------
	 SCS Same-Spin Scale       =       0.3333333333333333 [-]
	 SCS Opposite-Spin Scale   =       1.2000000000000000 [-]
	 SCS Same-Spin Energy      =      -0.1777659771056014 [Eh]
	 SCS Opposite-Spin Energy  =      -1.9654982245540218 [Eh]
	 SCS Correlation Energy    =      -2.1432642016596231 [Eh]
	 SCS Total Energy          =    -498.1116086992782925 [Eh]
	-----------------------------------------------------------

  Dipole Moment: [D]
     X:     8.4428      Y:     1.3388      Z:     2.9837     Total:     9.0540

*** Psi4 exiting successfully. Buy a developer a beer!
