                               Psi4 1.4a3.dev225

  ==> Input File <==

--------------------------------------------------------------------------
#psi4
#
memory 32 gb

molecule  {
-1 1
  O       -2.4775990    -1.4732410    -0.5357720
  O       -2.5836320     0.8103810    -0.7086120
  C        0.1769840    -0.1996970     0.5360780
  C        0.8528670     0.9715620     0.1268880
  C       -1.2378850    -0.1617980     1.0317040
  C        0.8256870    -1.4354030     0.3918760
  C        2.1654290     0.8711020    -0.3500530
  C        0.1613040     2.3091050     0.2016770
  C        2.1298550    -1.5237740    -0.0958170
  C        2.8196213    -0.3801949    -0.4675374
  C       -2.2184660    -0.2891600    -0.2009230
  H       -1.4126520    -1.0091000     1.7035120
  H       -1.4413430     0.7679950     1.5725290
  H        0.2756770    -2.3364080     0.6567980
  H        2.6838580     1.7794620    -0.6595800
  H       -0.8491240     2.2156170    -0.2099720
  H        0.0735000     2.6566880     1.2394400
  H        0.7245490     3.0640340    -0.3581400
  H        2.6081740    -2.4970700    -0.1982670
  H        3.8302350    -0.4147610    -0.8445580
units angstrom
no_reorient  #important for SAPT in psi4, default
symmetry c1  #important for SAPT in psi4, default
}

set PROPERTIES_ORIGIN ["COM"]
properties('MP2/aug-cc-pvtz', properties = ['dipole'])
--------------------------------------------------------------------------

    Molecular point group: c1
  Charge       = -1
  Multiplicity = 1
  Basis Set: AUG-CC-PVTZ
    Blend: AUG-CC-PVTZ
  Basis Set: (AUG-CC-PVTZ AUX)
    Blend: AUG-CC-PVTZ-JKFIT

    Orbital Energies [Eh]
    ---------------------

    Doubly Occupied:

       1A    -20.309314     2A    -20.309107     3A    -11.157058
       4A    -11.118547     5A    -11.117577     6A    -11.116284
       7A    -11.115478     8A    -11.113184     9A    -11.106681
      10A    -11.092288    11A    -11.073862    12A     -1.179357
      13A     -1.083500    14A     -1.031351    15A     -0.927852
      16A     -0.906299    17A     -0.819828    18A     -0.789050
      19A     -0.690325    20A     -0.664189    21A     -0.562413
      22A     -0.533549    23A     -0.522772    24A     -0.500464
      25A     -0.461393    26A     -0.451473    27A     -0.441418
      28A     -0.428469    29A     -0.426112    30A     -0.412726
      31A     -0.383820    32A     -0.376063    33A     -0.364095
      34A     -0.350902    35A     -0.333068    36A     -0.234928
      37A     -0.225637    38A     -0.211223    39A     -0.206749
      40A     -0.176601

  @DF-RHF Final Energy:  -495.99666945017145

   => Energetics <=

    Nuclear Repulsion Energy =            571.8010470395901166
    One-Electron Energy =               -1822.9454274045369857
    Two-Electron Energy =                 755.1477109147753026
    Total Energy =                       -495.9966694501714528
  Basis Set: (AUG-CC-PVTZ AUX)
    Blend: AUG-CC-PVTZ-RI
    Molecular point group: c1

    Geometry (in Angstrom), charge = -1, multiplicity = 1:

       Center              X                  Y                   Z               Mass
    ------------   -----------------  -----------------  -----------------  -----------------
         O           -2.435297172551    -1.443709621858    -0.516366181447    15.994914619570
         O           -2.541330172551     0.839912378142    -0.689206181447    15.994914619570
         C            0.219285827449    -0.170165621858     0.555483818553    12.000000000000
         C            0.895168827449     1.001093378142     0.146293818553    12.000000000000
         C           -1.195583172551    -0.132266621858     1.051109818553    12.000000000000
         C            0.867988827449    -1.405871621858     0.411281818553    12.000000000000
         C            2.207730827449     0.900633378142    -0.330647181447    12.000000000000
         C            0.203605827449     2.338636378142     0.221082818553    12.000000000000
         C            2.172156827449    -1.494242621858    -0.076411181447    12.000000000000
         C            2.861923127449    -0.350663521858    -0.448131581447    12.000000000000
         C           -2.176164172551    -0.259628621858    -0.181517181447    12.000000000000
         H           -1.370350172551    -0.979568621858     1.722917818553     1.007825032230
         H           -1.399041172551     0.797526378142     1.591934818553     1.007825032230
         H            0.317978827449    -2.306876621858     0.676203818553     1.007825032230
         H            2.726159827449     1.808993378142    -0.640174181447     1.007825032230
         H           -0.806822172551     2.245148378142    -0.190566181447     1.007825032230
         H            0.115801827449     2.686219378142     1.258845818553     1.007825032230
         H            0.766850827449     3.093565378142    -0.338734181447     1.007825032230
         H            2.650475827449    -2.467538621858    -0.178861181447     1.007825032230
         H            3.872536827449    -0.385229621858    -0.825152181447     1.007825032230

  Basis Set: AUG-CC-PVTZ
    Blend: AUG-CC-PVTZ
  Basis Set: (AUG-CC-PVTZ AUX)
    Blend: AUG-CC-PVTZ-JKFIT
	 Reference Energy          =    -495.9966694501714528 [Eh]
	 Singles Energy            =      -0.0000000000000000 [Eh]
	 Same-Spin Energy          =      -0.5329859167391765 [Eh]
	 Opposite-Spin Energy      =      -1.6355752520595823 [Eh]
	 Correlation Energy        =      -2.1685611687987589 [Eh]
	 Total Energy              =    -498.1652306189702131 [Eh]

	 ================> DF-SCS-MP2 Energies <==================
	-----------------------------------------------------------
	 SCS Same-Spin Scale       =       0.3333333333333333 [-]
	 SCS Opposite-Spin Scale   =       1.2000000000000000 [-]
	 SCS Same-Spin Energy      =      -0.1776619722463922 [Eh]
	 SCS Opposite-Spin Energy  =      -1.9626903024714988 [Eh]
	 SCS Correlation Energy    =      -2.1403522747178911 [Eh]
	 SCS Total Energy          =    -498.1370217248893368 [Eh]
	-----------------------------------------------------------

  Dipole Moment: [D]
     X:     8.4812      Y:     1.3901      Z:     2.9679     Total:     9.0924

*** Psi4 exiting successfully. Buy a developer a beer!
