                               Psi4 1.4a3.dev225

  ==> Input File <==

--------------------------------------------------------------------------
#psi4
#
memory 32 gb

molecule  {
-1 1
  O       -2.4775990    -1.4732410    -0.5357720
  O       -2.5836320     0.8103810    -0.7086120
  C        0.1769840    -0.1996970     0.5360780
  C        0.8528670     0.9715620     0.1268880
  C       -1.2378850    -0.1617980     1.0317040
  C        0.8256870    -1.4354030     0.3918760
  C        2.1654290     0.8711020    -0.3500530
  C        0.1613040     2.3091050     0.2016770
  C        2.1298550    -1.5237740    -0.0958170
  C        2.7642153    -0.2742177    -0.4575872
  C       -2.2184660    -0.2891600    -0.2009230
  H       -1.4126520    -1.0091000     1.7035120
  H       -1.4413430     0.7679950     1.5725290
  H        0.2756770    -2.3364080     0.6567980
  H        2.6838580     1.7794620    -0.6595800
  H       -0.8491240     2.2156170    -0.2099720
  H        0.0735000     2.6566880     1.2394400
  H        0.7245490     3.0640340    -0.3581400
  H        2.6081740    -2.4970700    -0.1982670
  H        3.8302350    -0.4147610    -0.8445580
units angstrom
no_reorient  #important for SAPT in psi4, default
symmetry c1  #important for SAPT in psi4, default
}

set PROPERTIES_ORIGIN ["COM"]
properties('MP2/aug-cc-pvtz', properties = ['dipole'])
--------------------------------------------------------------------------

    Molecular point group: c1
  Charge       = -1
  Multiplicity = 1
  Basis Set: AUG-CC-PVTZ
    Blend: AUG-CC-PVTZ
  Basis Set: (AUG-CC-PVTZ AUX)
    Blend: AUG-CC-PVTZ-JKFIT

    Orbital Energies [Eh]
    ---------------------

    Doubly Occupied:

       1A    -20.308704     2A    -20.308669     3A    -11.156377
       4A    -11.119451     5A    -11.117193     6A    -11.116048
       7A    -11.110639     8A    -11.108427     9A    -11.104114
      10A    -11.091891    11A    -11.073086    12A     -1.178842
      13A     -1.082996    14A     -1.038492    15A     -0.926474
      16A     -0.913510    17A     -0.827547    18A     -0.781390
      19A     -0.687944    20A     -0.664698    21A     -0.562463
      22A     -0.532449    23A     -0.525988    24A     -0.495945
      25A     -0.464735    26A     -0.460209    27A     -0.433258
      28A     -0.427547    29A     -0.424164    30A     -0.410400
      31A     -0.386028    32A     -0.370741    33A     -0.364741
      34A     -0.352882    35A     -0.330318    36A     -0.239656
      37A     -0.225409    38A     -0.212807    39A     -0.208514
      40A     -0.173295

  @DF-RHF Final Energy:  -495.98372693035304

   => Energetics <=

    Nuclear Repulsion Energy =            573.2183234118057271
    One-Electron Energy =               -1825.7680181789758080
    Two-Electron Energy =                 756.5659678368168670
    Total Energy =                       -495.9837269303531002
  Basis Set: (AUG-CC-PVTZ AUX)
    Blend: AUG-CC-PVTZ-RI
    Molecular point group: c1

    Geometry (in Angstrom), charge = -1, multiplicity = 1:

       Center              X                  Y                   Z               Mass
    ------------   -----------------  -----------------  -----------------  -----------------
         O           -2.430836748127    -1.452241248239    -0.517167215904    15.994914619570
         O           -2.536869748127     0.831380751761    -0.690007215904    15.994914619570
         C            0.223746251873    -0.178697248239     0.554682784096    12.000000000000
         C            0.899629251873     0.992561751761     0.145492784096    12.000000000000
         C           -1.191122748127    -0.140798248239     1.050308784096    12.000000000000
         C            0.872449251873    -1.414403248239     0.410480784096    12.000000000000
         C            2.212191251873     0.892101751761    -0.331448215904    12.000000000000
         C            0.208066251873     2.330104751761     0.220281784096    12.000000000000
         C            2.176617251873    -1.502774248239    -0.077212215904    12.000000000000
         C            2.810977551873    -0.253217948239    -0.438982415904    12.000000000000
         C           -2.171703748127    -0.268160248239    -0.182318215904    12.000000000000
         H           -1.365889748127    -0.988100248239     1.722116784096     1.007825032230
         H           -1.394580748127     0.788994751761     1.591133784096     1.007825032230
         H            0.322439251873    -2.315408248239     0.675402784096     1.007825032230
         H            2.730620251873     1.800461751761    -0.640975215904     1.007825032230
         H           -0.802361748127     2.236616751761    -0.191367215904     1.007825032230
         H            0.120262251873     2.677687751761     1.258044784096     1.007825032230
         H            0.771311251873     3.085033751761    -0.339535215904     1.007825032230
         H            2.654936251873    -2.476070248239    -0.179662215904     1.007825032230
         H            3.876997251873    -0.393761248239    -0.825953215904     1.007825032230

  Basis Set: AUG-CC-PVTZ
    Blend: AUG-CC-PVTZ
  Basis Set: (AUG-CC-PVTZ AUX)
    Blend: AUG-CC-PVTZ-JKFIT
	 Reference Energy          =    -495.9837269303530434 [Eh]
	 Singles Energy            =      -0.0000000000000000 [Eh]
	 Same-Spin Energy          =      -0.5329640589943561 [Eh]
	 Opposite-Spin Energy      =      -1.6358454338273347 [Eh]
	 Correlation Energy        =      -2.1688094928216906 [Eh]
	 Total Energy              =    -498.1525364231747517 [Eh]

	 ================> DF-SCS-MP2 Energies <==================
	-----------------------------------------------------------
	 SCS Same-Spin Scale       =       0.3333333333333333 [-]
	 SCS Opposite-Spin Scale   =       1.2000000000000000 [-]
	 SCS Same-Spin Energy      =      -0.1776546863314520 [Eh]
	 SCS Opposite-Spin Energy  =      -1.9630145205928016 [Eh]
	 SCS Correlation Energy    =      -2.1406692069242537 [Eh]
	 SCS Total Energy          =    -498.1243961372773015 [Eh]
	-----------------------------------------------------------

  Dipole Moment: [D]
     X:     8.4861      Y:     1.4068      Z:     2.9777     Total:     9.1028

*** Psi4 exiting successfully. Buy a developer a beer!
