                               Psi4 1.4a3.dev225

  ==> Input File <==

--------------------------------------------------------------------------
#psi4
#
memory 32 gb

molecule  {
-1 1
  O       -2.4775990    -1.4732410    -0.5357720
  O       -2.5836320     0.8103810    -0.7086120
  C        0.1769840    -0.1996970     0.5360780
  C        0.8528670     0.9715620     0.1268880
  C       -1.2378850    -0.1617980     1.0317040
  C        0.8256870    -1.4354030     0.3918760
  C        2.1654290     0.8711020    -0.3500530
  C        0.1613040     2.3091050     0.2016770
  C        2.1298550    -1.5237740    -0.0958170
  C        2.8103870    -0.3625320    -0.4658790
  C       -2.2184660    -0.2891600    -0.2009230
  H       -1.4126520    -1.0091000     1.7035120
  H       -1.4413430     0.7679950     1.5725290
  H        0.2756770    -2.3364080     0.6567980
  H        2.6838580     1.7794620    -0.6595800
  H       -0.8491240     2.2156170    -0.2099720
  H        0.0719006     2.6630195     1.2583438
  H        0.7245490     3.0640340    -0.3581400
  H        2.6081740    -2.4970700    -0.1982670
  H        3.8302350    -0.4147610    -0.8445580
units angstrom
no_reorient  #important for SAPT in psi4, default
symmetry c1  #important for SAPT in psi4, default
}

set PROPERTIES_ORIGIN ["COM"]
properties('MP2/aug-cc-pvtz', properties = ['dipole'])
--------------------------------------------------------------------------

    Molecular point group: c1
  Charge       = -1
  Multiplicity = 1
  Basis Set: AUG-CC-PVTZ
    Blend: AUG-CC-PVTZ
  Basis Set: (AUG-CC-PVTZ AUX)
    Blend: AUG-CC-PVTZ-JKFIT

    Orbital Energies [Eh]
    ---------------------

    Doubly Occupied:

       1A    -20.309266     2A    -20.309073     3A    -11.156985
       4A    -11.118541     5A    -11.117376     6A    -11.116221
       7A    -11.114860     8A    -11.112854     9A    -11.107057
      10A    -11.094771    11A    -11.073712    12A     -1.179314
      13A     -1.083460    14A     -1.032320    15A     -0.926780
      16A     -0.907756    17A     -0.820484    18A     -0.787262
      19A     -0.689908    20A     -0.664076    21A     -0.562320
      22A     -0.533124    23A     -0.523325    24A     -0.499779
      25A     -0.460425    26A     -0.452698    27A     -0.439859
      28A     -0.428171    29A     -0.424868    30A     -0.412676
      31A     -0.384369    32A     -0.374610    33A     -0.364471
      34A     -0.351779    35A     -0.332976    36A     -0.235221
      37A     -0.225620    38A     -0.211396    39A     -0.207179
      40A     -0.176309

  @DF-RHF Final Energy:  -495.99672312530299

   => Energetics <=

    Nuclear Repulsion Energy =            571.9311467265023339
    One-Electron Energy =               -1823.2092358205591154
    Two-Electron Energy =                 755.2813659687536756
    Total Energy =                       -495.9967231253029922
  Basis Set: (AUG-CC-PVTZ AUX)
    Blend: AUG-CC-PVTZ-RI
    Molecular point group: c1

    Geometry (in Angstrom), charge = -1, multiplicity = 1:

       Center              X                  Y                   Z               Mass
    ------------   -----------------  -----------------  -----------------  -----------------
         O           -2.434542957313    -1.445174370760    -0.516627502099    15.994914619570
         O           -2.540575957313     0.838447629240    -0.689467502099    15.994914619570
         C            0.220040042687    -0.171630370760     0.555222497901    12.000000000000
         C            0.895923042687     0.999628629240     0.146032497901    12.000000000000
         C           -1.194828957313    -0.133731370760     1.050848497901    12.000000000000
         C            0.868743042687    -1.407336370760     0.411020497901    12.000000000000
         C            2.208485042687     0.899168629240    -0.330908502099    12.000000000000
         C            0.204360042687     2.337171629240     0.220821497901    12.000000000000
         C            2.172911042687    -1.495707370760    -0.076672502099    12.000000000000
         C            2.853443042687    -0.334465370760    -0.446734502099    12.000000000000
         C           -2.175409957313    -0.261093370760    -0.181778502099    12.000000000000
         H           -1.369595957313    -0.981033370760     1.722656497901     1.007825032230
         H           -1.398286957313     0.796061629240     1.591673497901     1.007825032230
         H            0.318733042687    -2.308341370760     0.675942497901     1.007825032230
         H            2.726914042687     1.807528629240    -0.640435502099     1.007825032230
         H           -0.806067957313     2.243683629240    -0.190827502099     1.007825032230
         H            0.114956642687     2.691086129240     1.277488297901     1.007825032230
         H            0.767605042687     3.092100629240    -0.338995502099     1.007825032230
         H            2.651230042687    -2.469003370760    -0.179122502099     1.007825032230
         H            3.873291042687    -0.386694370760    -0.825413502099     1.007825032230

  Basis Set: AUG-CC-PVTZ
    Blend: AUG-CC-PVTZ
  Basis Set: (AUG-CC-PVTZ AUX)
    Blend: AUG-CC-PVTZ-JKFIT
	 Reference Energy          =    -495.9967231253029922 [Eh]
	 Singles Energy            =      -0.0000000000000000 [Eh]
	 Same-Spin Energy          =      -0.5330108510822208 [Eh]
	 Opposite-Spin Energy      =      -1.6356318172193827 [Eh]
	 Correlation Energy        =      -2.1686426683016036 [Eh]
	 Total Energy              =    -498.1653657936046216 [Eh]

	 ================> DF-SCS-MP2 Energies <==================
	-----------------------------------------------------------
	 SCS Same-Spin Scale       =       0.3333333333333333 [-]
	 SCS Opposite-Spin Scale   =       1.2000000000000000 [-]
	 SCS Same-Spin Energy      =      -0.1776702836940736 [Eh]
	 SCS Opposite-Spin Energy  =      -1.9627581806632590 [Eh]
	 SCS Correlation Energy    =      -2.1404284643573326 [Eh]
	 SCS Total Energy          =    -498.1371515896603341 [Eh]
	-----------------------------------------------------------

  Dipole Moment: [D]
     X:     8.4866      Y:     1.3797      Z:     2.9568     Total:     9.0923

*** Psi4 exiting successfully. Buy a developer a beer!
