                               Psi4 1.4a3.dev225

  ==> Input File <==

--------------------------------------------------------------------------
#psi4
#
memory 32 gb

molecule  {
-1 1
  O       -2.4775990    -1.4732410    -0.5357720
  O       -2.5836320     0.8103810    -0.7086120
  C        0.1769840    -0.1996970     0.5360780
  C        0.8528670     0.9715620     0.1268880
  C       -1.2378850    -0.1617980     1.0317040
  C        0.8256870    -1.4354030     0.3918760
  C        2.1654290     0.8711020    -0.3500530
  C        0.1613040     2.3091050     0.2016770
  C        2.1298550    -1.5237740    -0.0958170
  C        2.8011527    -0.3448691    -0.4642206
  C       -2.2184660    -0.2891600    -0.2009230
  H       -1.4126520    -1.0091000     1.7035120
  H       -1.4413430     0.7679950     1.5725290
  H        0.2756770    -2.3364080     0.6567980
  H        2.6838580     1.7794620    -0.6595800
  H       -0.8491240     2.2156170    -0.2099720
  H        0.0735000     2.6566880     1.2394400
  H        0.7245490     3.0640340    -0.3581400
  H        2.6081740    -2.4970700    -0.1982670
  H        3.8302350    -0.4147610    -0.8445580
units angstrom
no_reorient  #important for SAPT in psi4, default
symmetry c1  #important for SAPT in psi4, default
}

set PROPERTIES_ORIGIN ["COM"]
properties('MP2/aug-cc-pvtz', properties = ['dipole'])
--------------------------------------------------------------------------

    Molecular point group: c1
  Charge       = -1
  Multiplicity = 1
  Basis Set: AUG-CC-PVTZ
    Blend: AUG-CC-PVTZ
  Basis Set: (AUG-CC-PVTZ AUX)
    Blend: AUG-CC-PVTZ-JKFIT

    Orbital Energies [Eh]
    ---------------------

    Doubly Occupied:

       1A    -20.309093     2A    -20.308949     3A    -11.156812
       4A    -11.118377     5A    -11.116924     6A    -11.116643
       7A    -11.112866     8A    -11.112272     9A    -11.107273
      10A    -11.092144    11A    -11.073582    12A     -1.179170
      13A     -1.083317    14A     -1.033222    15A     -0.926137
      16A     -0.909278    17A     -0.822459    18A     -0.786535
      19A     -0.689437    20A     -0.664444    21A     -0.562319
      22A     -0.532803    23A     -0.523721    24A     -0.498945
      25A     -0.461487    26A     -0.455224    27A     -0.438299
      28A     -0.428253    29A     -0.425863    30A     -0.412069
      31A     -0.384750    32A     -0.373209    33A     -0.365328
      34A     -0.352338    35A     -0.332674    36A     -0.235605
      37A     -0.225529    38A     -0.211547    39A     -0.207523
      40A     -0.175797

  @DF-RHF Final Energy:  -495.99678153311226

   => Energetics <=

    Nuclear Repulsion Energy =            572.2502541959380551
    One-Electron Energy =               -1823.8496393933278341
    Two-Electron Energy =                 755.6026036642776944
    Total Energy =                       -495.9967815331121983
  Basis Set: (AUG-CC-PVTZ AUX)
    Blend: AUG-CC-PVTZ-RI
    Molecular point group: c1

    Geometry (in Angstrom), charge = -1, multiplicity = 1:

       Center              X                  Y                   Z               Mass
    ------------   -----------------  -----------------  -----------------  -----------------
         O           -2.433810369776    -1.446553502685    -0.516633198300    15.994914619570
         O           -2.539843369776     0.837068497315    -0.689473198300    15.994914619570
         C            0.220772630224    -0.173009502685     0.555216801700    12.000000000000
         C            0.896655630224     0.998249497315     0.146026801700    12.000000000000
         C           -1.194096369776    -0.135110502685     1.050842801700    12.000000000000
         C            0.869475630224    -1.408715502685     0.411014801700    12.000000000000
         C            2.209217630224     0.897789497315    -0.330914198300    12.000000000000
         C            0.205092630224     2.335792497315     0.220815801700    12.000000000000
         C            2.173643630224    -1.497086502685    -0.076678198300    12.000000000000
         C            2.844941330224    -0.318181602685    -0.445081798300    12.000000000000
         C           -2.174677369776    -0.262472502685    -0.181784198300    12.000000000000
         H           -1.368863369776    -0.982412502685     1.722650801700     1.007825032230
         H           -1.397554369776     0.794682497315     1.591667801700     1.007825032230
         H            0.319465630224    -2.309720502685     0.675936801700     1.007825032230
         H            2.727646630224     1.806149497315    -0.640441198300     1.007825032230
         H           -0.805335369776     2.242304497315    -0.190833198300     1.007825032230
         H            0.117288630224     2.683375497315     1.258578801700     1.007825032230
         H            0.768337630224     3.090721497315    -0.339001198300     1.007825032230
         H            2.651962630224    -2.470382502685    -0.179128198300     1.007825032230
         H            3.874023630224    -0.388073502685    -0.825419198300     1.007825032230

  Basis Set: AUG-CC-PVTZ
    Blend: AUG-CC-PVTZ
  Basis Set: (AUG-CC-PVTZ AUX)
    Blend: AUG-CC-PVTZ-JKFIT
	 Reference Energy          =    -495.9967815331122551 [Eh]
	 Singles Energy            =      -0.0000000000000000 [Eh]
	 Same-Spin Energy          =      -0.5330295501744970 [Eh]
	 Opposite-Spin Energy      =      -1.6354936109990073 [Eh]
	 Correlation Energy        =      -2.1685231611735043 [Eh]
	 Total Energy              =    -498.1653046942857372 [Eh]

	 ================> DF-SCS-MP2 Energies <==================
	-----------------------------------------------------------
	 SCS Same-Spin Scale       =       0.3333333333333333 [-]
	 SCS Opposite-Spin Scale   =       1.2000000000000000 [-]
	 SCS Same-Spin Energy      =      -0.1776765167248323 [Eh]
	 SCS Opposite-Spin Energy  =      -1.9625923331988087 [Eh]
	 SCS Correlation Energy    =      -2.1402688499236411 [Eh]
	 SCS Total Energy          =    -498.1370503830358984 [Eh]
	-----------------------------------------------------------

  Dipole Moment: [D]
     X:     8.4846      Y:     1.3948      Z:     2.9708     Total:     9.0972

*** Psi4 exiting successfully. Buy a developer a beer!
