                               Psi4 1.4a3.dev225

  ==> Input File <==

--------------------------------------------------------------------------
#psi4
#
memory 32 gb

molecule  {
-1 1
  O       -2.4775990    -1.4732410    -0.5357720
  O       -2.5836320     0.8103810    -0.7086120
  C        0.1769840    -0.1996970     0.5360780
  C        0.8528670     0.9715620     0.1268880
  C       -1.2378850    -0.1617980     1.0317040
  C        0.8256870    -1.4354030     0.3918760
  C        2.1654290     0.8711020    -0.3500530
  C        0.1613040     2.3091050     0.2016770
  C        2.1298550    -1.5237740    -0.0958170
  C        2.8103870    -0.3625320    -0.4658790
  C       -2.2184660    -0.2891600    -0.2009230
  H       -1.4126520    -1.0091000     1.7035120
  H       -1.4599285     0.8529297     1.6219323
  H        0.2756770    -2.3364080     0.6567980
  H        2.6838580     1.7794620    -0.6595800
  H       -0.8491240     2.2156170    -0.2099720
  H        0.0735000     2.6566880     1.2394400
  H        0.7245490     3.0640340    -0.3581400
  H        2.6081740    -2.4970700    -0.1982670
  H        3.8302350    -0.4147610    -0.8445580
units angstrom
no_reorient  #important for SAPT in psi4, default
symmetry c1  #important for SAPT in psi4, default
}

set PROPERTIES_ORIGIN ["COM"]
properties('MP2/aug-cc-pvtz', properties = ['dipole'])
--------------------------------------------------------------------------

    Molecular point group: c1
  Charge       = -1
  Multiplicity = 1
  Basis Set: AUG-CC-PVTZ
    Blend: AUG-CC-PVTZ
  Basis Set: (AUG-CC-PVTZ AUX)
    Blend: AUG-CC-PVTZ-JKFIT

    Orbital Energies [Eh]
    ---------------------

    Doubly Occupied:

       1A    -20.310326     2A    -20.309262     3A    -11.158150
       4A    -11.118950     5A    -11.117655     6A    -11.116592
       7A    -11.115005     8A    -11.113721     9A    -11.107863
      10A    -11.091863    11A    -11.085766    12A     -1.179920
      13A     -1.084027    14A     -1.032629    15A     -0.926536
      16A     -0.907778    17A     -0.819421    18A     -0.784614
      19A     -0.690219    20A     -0.663339    21A     -0.562869
      22A     -0.530950    23A     -0.522627    24A     -0.499174
      25A     -0.460551    26A     -0.452486    27A     -0.440516
      28A     -0.428590    29A     -0.421945    30A     -0.411667
      31A     -0.381129    32A     -0.374085    33A     -0.364901
      34A     -0.349291    35A     -0.330716    36A     -0.235641
      37A     -0.225719    38A     -0.211863    39A     -0.207586
      40A     -0.177042

  @DF-RHF Final Energy:  -495.99030795171495

   => Energetics <=

    Nuclear Repulsion Energy =            571.5514494350398991
    One-Electron Energy =               -1822.4375538711301488
    Two-Electron Energy =                 754.8957964843751824
    Total Energy =                       -495.9903079517149536
  Basis Set: (AUG-CC-PVTZ AUX)
    Blend: AUG-CC-PVTZ-RI
    Molecular point group: c1

    Geometry (in Angstrom), charge = -1, multiplicity = 1:

       Center              X                  Y                   Z               Mass
    ------------   -----------------  -----------------  -----------------  -----------------
         O           -2.434428111026    -1.445705822104    -0.516833715081    15.994914619570
         O           -2.540461111026     0.837916177896    -0.689673715081    15.994914619570
         C            0.220154888974    -0.172161822104     0.555016284919    12.000000000000
         C            0.896037888974     0.999097177896     0.145826284919    12.000000000000
         C           -1.194714111026    -0.134262822104     1.050642284919    12.000000000000
         C            0.868857888974    -1.407867822104     0.410814284919    12.000000000000
         C            2.208599888974     0.898637177896    -0.331114715081    12.000000000000
         C            0.204474888974     2.336640177896     0.220615284919    12.000000000000
         C            2.173025888974    -1.496238822104    -0.076878715081    12.000000000000
         C            2.853557888974    -0.334996822104    -0.446940715081    12.000000000000
         C           -2.175295111026    -0.261624822104    -0.181984715081    12.000000000000
         H           -1.369481111026    -0.981564822104     1.722450284919     1.007825032230
         H           -1.416757611026     0.880464877896     1.640870584919     1.007825032230
         H            0.318847888974    -2.308872822104     0.675736284919     1.007825032230
         H            2.727028888974     1.806997177896    -0.640641715081     1.007825032230
         H           -0.805953111026     2.243152177896    -0.191033715081     1.007825032230
         H            0.116670888974     2.684223177896     1.258378284919     1.007825032230
         H            0.767719888974     3.091569177896    -0.339201715081     1.007825032230
         H            2.651344888974    -2.469534822104    -0.179328715081     1.007825032230
         H            3.873405888974    -0.387225822104    -0.825619715081     1.007825032230

  Basis Set: AUG-CC-PVTZ
    Blend: AUG-CC-PVTZ
  Basis Set: (AUG-CC-PVTZ AUX)
    Blend: AUG-CC-PVTZ-JKFIT
	 Reference Energy          =    -495.9903079517149536 [Eh]
	 Singles Energy            =      -0.0000000000000000 [Eh]
	 Same-Spin Energy          =      -0.5332048820170268 [Eh]
	 Opposite-Spin Energy      =      -1.6364378821872196 [Eh]
	 Correlation Energy        =      -2.1696427642042462 [Eh]
	 Total Energy              =    -498.1599507159191944 [Eh]

	 ================> DF-SCS-MP2 Energies <==================
	-----------------------------------------------------------
	 SCS Same-Spin Scale       =       0.3333333333333333 [-]
	 SCS Opposite-Spin Scale   =       1.2000000000000000 [-]
	 SCS Same-Spin Energy      =      -0.1777349606723422 [Eh]
	 SCS Opposite-Spin Energy  =      -1.9637254586246635 [Eh]
	 SCS Correlation Energy    =      -2.1414604192970059 [Eh]
	 SCS Total Energy          =    -498.1317683710119582 [Eh]
	-----------------------------------------------------------

  Dipole Moment: [D]
     X:     8.5103      Y:     1.3375      Z:     2.8994     Total:     9.0896

*** Psi4 exiting successfully. Buy a developer a beer!
