                               Psi4 1.4a3.dev225

  ==> Input File <==

--------------------------------------------------------------------------
#psi4
#
memory 32 gb

molecule  {
-1 1
  O       -2.4775990    -1.4732410    -0.5357720
  O       -2.5836320     0.8103810    -0.7086120
  C        0.1769840    -0.1996970     0.5360780
  C        0.8528670     0.9715620     0.1268880
  C       -1.2378850    -0.1617980     1.0317040
  C        0.8256870    -1.4354030     0.3918760
  C        2.1654290     0.8711020    -0.3500530
  C        0.1613040     2.3091050     0.2016770
  C        2.1298550    -1.5237740    -0.0958170
  C        2.8103870    -0.3625320    -0.4658790
  C       -2.2184660    -0.2891600    -0.2009230
  H       -1.4094609    -0.9936291     1.6912454
  H       -1.4413430     0.7679950     1.5725290
  H        0.2756770    -2.3364080     0.6567980
  H        2.6838580     1.7794620    -0.6595800
  H       -0.8491240     2.2156170    -0.2099720
  H        0.0735000     2.6566880     1.2394400
  H        0.7245490     3.0640340    -0.3581400
  H        2.6081740    -2.4970700    -0.1982670
  H        3.8302350    -0.4147610    -0.8445580
units angstrom
no_reorient  #important for SAPT in psi4, default
symmetry c1  #important for SAPT in psi4, default
}

set PROPERTIES_ORIGIN ["COM"]
properties('MP2/aug-cc-pvtz', properties = ['dipole'])
--------------------------------------------------------------------------

    Molecular point group: c1
  Charge       = -1
  Multiplicity = 1
  Basis Set: AUG-CC-PVTZ
    Blend: AUG-CC-PVTZ
  Basis Set: (AUG-CC-PVTZ AUX)
    Blend: AUG-CC-PVTZ-JKFIT

    Orbital Energies [Eh]
    ---------------------

    Doubly Occupied:

       1A    -20.309057     2A    -20.308986     3A    -11.156745
       4A    -11.118367     5A    -11.117056     6A    -11.116059
       7A    -11.114612     8A    -11.112572     9A    -11.106934
      10A    -11.092106    11A    -11.071208    12A     -1.179179
      13A     -1.083315    14A     -1.032178    15A     -0.926961
      16A     -0.907954    17A     -0.821653    18A     -0.788367
      19A     -0.690073    20A     -0.664387    21A     -0.562275
      22A     -0.533515    23A     -0.523628    24A     -0.499930
      25A     -0.461370    26A     -0.453225    27A     -0.439943
      28A     -0.429626    29A     -0.425895    30A     -0.412321
      31A     -0.385084    32A     -0.374889    33A     -0.364658
      34A     -0.352255    35A     -0.332887    36A     -0.235044
      37A     -0.225633    38A     -0.211292    39A     -0.207082
      40A     -0.176111

  @DF-RHF Final Energy:  -495.99733012317472

   => Energetics <=

    Nuclear Repulsion Energy =            572.1294619724732229
    One-Electron Energy =               -1823.6047203457753767
    Two-Electron Energy =                 755.4779282501273201
    Total Energy =                       -495.9973301231747200
  Basis Set: (AUG-CC-PVTZ AUX)
    Blend: AUG-CC-PVTZ-RI
    Molecular point group: c1

    Geometry (in Angstrom), charge = -1, multiplicity = 1:

       Center              X                  Y                   Z               Mass
    ------------   -----------------  -----------------  -----------------  -----------------
         O           -2.434575346804    -1.445236164000    -0.516416753033    15.994914619570
         O           -2.540608346804     0.838385836000    -0.689256753033    15.994914619570
         C            0.220007653196    -0.171692164000     0.555433246967    12.000000000000
         C            0.895890653196     0.999566836000     0.146243246967    12.000000000000
         C           -1.194861346804    -0.133793164000     1.051059246967    12.000000000000
         C            0.868710653196    -1.407398164000     0.411231246967    12.000000000000
         C            2.208452653196     0.899106836000    -0.330697753033    12.000000000000
         C            0.204327653196     2.337109836000     0.221032246967    12.000000000000
         C            2.172878653196    -1.495769164000    -0.076461753033    12.000000000000
         C            2.853410653196    -0.334527164000    -0.446523753033    12.000000000000
         C           -2.175442346804    -0.261155164000    -0.181567753033    12.000000000000
         H           -1.366437246804    -0.965624264000     1.710600646967     1.007825032230
         H           -1.398319346804     0.795999836000     1.591884246967     1.007825032230
         H            0.318700653196    -2.308403164000     0.676153246967     1.007825032230
         H            2.726881653196     1.807466836000    -0.640224753033     1.007825032230
         H           -0.806100346804     2.243621836000    -0.190616753033     1.007825032230
         H            0.116523653196     2.684692836000     1.258795246967     1.007825032230
         H            0.767572653196     3.092038836000    -0.338784753033     1.007825032230
         H            2.651197653196    -2.469065164000    -0.178911753033     1.007825032230
         H            3.873258653196    -0.386756164000    -0.825202753033     1.007825032230

  Basis Set: AUG-CC-PVTZ
    Blend: AUG-CC-PVTZ
  Basis Set: (AUG-CC-PVTZ AUX)
    Blend: AUG-CC-PVTZ-JKFIT
	 Reference Energy          =    -495.9973301231747200 [Eh]
	 Singles Energy            =      -0.0000000000000000 [Eh]
	 Same-Spin Energy          =      -0.5329921297964176 [Eh]
	 Opposite-Spin Energy      =      -1.6353610648364785 [Eh]
	 Correlation Energy        =      -2.1683531946328962 [Eh]
	 Total Energy              =    -498.1656833178076340 [Eh]

	 ================> DF-SCS-MP2 Energies <==================
	-----------------------------------------------------------
	 SCS Same-Spin Scale       =       0.3333333333333333 [-]
	 SCS Opposite-Spin Scale   =       1.2000000000000000 [-]
	 SCS Same-Spin Energy      =      -0.1776640432654725 [Eh]
	 SCS Opposite-Spin Energy  =      -1.9624332778037741 [Eh]
	 SCS Correlation Energy    =      -2.1400973210692467 [Eh]
	 SCS Total Energy          =    -498.1374274442439400 [Eh]
	-----------------------------------------------------------

  Dipole Moment: [D]
     X:     8.4784      Y:     1.3850      Z:     2.9822     Total:     9.0937

*** Psi4 exiting successfully. Buy a developer a beer!
