                               Psi4 1.4a3.dev225

  ==> Input File <==

--------------------------------------------------------------------------
#psi4
#
memory 32 gb

molecule  {
-1 1
  O       -2.4775990    -1.4732410    -0.5357720
  O       -2.5836320     0.8103810    -0.7086120
  C        0.1769840    -0.1996970     0.5360780
  C        0.8528670     0.9715620     0.1268880
  C       -1.2378850    -0.1617980     1.0317040
  C        0.8256870    -1.4354030     0.3918760
  C        2.1654290     0.8711020    -0.3500530
  C        0.2530472     2.1316656     0.1917554
  C        2.1298550    -1.5237740    -0.0958170
  C        2.8103870    -0.3625320    -0.4658790
  C       -2.2184660    -0.2891600    -0.2009230
  H       -1.4126520    -1.0091000     1.7035120
  H       -1.4413430     0.7679950     1.5725290
  H        0.2756770    -2.3364080     0.6567980
  H        2.6838580     1.7794620    -0.6595800
  H       -0.8491240     2.2156170    -0.2099720
  H        0.0735000     2.6566880     1.2394400
  H        0.7245490     3.0640340    -0.3581400
  H        2.6081740    -2.4970700    -0.1982670
  H        3.8302350    -0.4147610    -0.8445580
units angstrom
no_reorient  #important for SAPT in psi4, default
symmetry c1  #important for SAPT in psi4, default
}

set PROPERTIES_ORIGIN ["COM"]
properties('MP2/aug-cc-pvtz', properties = ['dipole'])
--------------------------------------------------------------------------

    Molecular point group: c1
  Charge       = -1
  Multiplicity = 1
  Basis Set: AUG-CC-PVTZ
    Blend: AUG-CC-PVTZ
  Basis Set: (AUG-CC-PVTZ AUX)
    Blend: AUG-CC-PVTZ-JKFIT

    Orbital Energies [Eh]
    ---------------------

    Doubly Occupied:

       1A    -20.309454     2A    -20.309402     3A    -11.157567
       4A    -11.118947     5A    -11.116842     6A    -11.115148
       7A    -11.113864     8A    -11.107658     9A    -11.105045
      10A    -11.101392    11A    -11.074157    12A     -1.179660
      13A     -1.083770    14A     -1.044494    15A     -0.949271
      16A     -0.913587    17A     -0.824523    18A     -0.783172
      19A     -0.692238    20A     -0.660649    21A     -0.567238
      22A     -0.537183    23A     -0.528882    24A     -0.513911
      25A     -0.465278    26A     -0.459208    27A     -0.449184
      28A     -0.430571    29A     -0.417386    30A     -0.393888
      31A     -0.393701    32A     -0.361488    33A     -0.356086
      34A     -0.353606    35A     -0.326338    36A     -0.235852
      37A     -0.225486    38A     -0.210208    39A     -0.203588
      40A     -0.172796

  @DF-RHF Final Energy:  -495.94576698401283

   => Energetics <=

    Nuclear Repulsion Energy =            575.7727748354161577
    One-Electron Energy =               -1830.7116446749389524
    Two-Electron Energy =                 758.9931028555099601
    Total Energy =                       -495.9457669840128347
  Basis Set: (AUG-CC-PVTZ AUX)
    Blend: AUG-CC-PVTZ-RI
    Molecular point group: c1

    Geometry (in Angstrom), charge = -1, multiplicity = 1:

       Center              X                  Y                   Z               Mass
    ------------   -----------------  -----------------  -----------------  -----------------
         O           -2.441939498523    -1.430846917403    -0.515700957842    15.994914619570
         O           -2.547972498523     0.852775082597    -0.688540957842    15.994914619570
         C            0.212643501477    -0.157302917403     0.556149042158    12.000000000000
         C            0.888526501477     1.013956082597     0.146959042158    12.000000000000
         C           -1.202225498523    -0.119403917403     1.051775042158    12.000000000000
         C            0.861346501477    -1.393008917403     0.411947042158    12.000000000000
         C            2.201088501477     0.913496082597    -0.329981957842    12.000000000000
         C            0.288706701477     2.174059682597     0.211826442158    12.000000000000
         C            2.165514501477    -1.481379917403    -0.075745957842    12.000000000000
         C            2.846046501477    -0.320137917403    -0.445807957842    12.000000000000
         C           -2.182806498523    -0.246765917403    -0.180851957842    12.000000000000
         H           -1.376992498523    -0.966705917403     1.723583042158     1.007825032230
         H           -1.405683498523     0.810389082597     1.592600042158     1.007825032230
         H            0.311336501477    -2.294013917403     0.676869042158     1.007825032230
         H            2.719517501477     1.821856082597    -0.639508957842     1.007825032230
         H           -0.813464498523     2.258011082597    -0.189900957842     1.007825032230
         H            0.109159501477     2.699082082597     1.259511042158     1.007825032230
         H            0.760208501477     3.106428082597    -0.338068957842     1.007825032230
         H            2.643833501477    -2.454675917403    -0.178195957842     1.007825032230
         H            3.865894501477    -0.372366917403    -0.824486957842     1.007825032230

  Basis Set: AUG-CC-PVTZ
    Blend: AUG-CC-PVTZ
  Basis Set: (AUG-CC-PVTZ AUX)
    Blend: AUG-CC-PVTZ-JKFIT
	 Reference Energy          =    -495.9457669840128347 [Eh]
	 Singles Energy            =      -0.0000000000000000 [Eh]
	 Same-Spin Energy          =      -0.5368676344655561 [Eh]
	 Opposite-Spin Energy      =      -1.6402876740291332 [Eh]
	 Correlation Energy        =      -2.1771553084946893 [Eh]
	 Total Energy              =    -498.1229222925074964 [Eh]

	 ================> DF-SCS-MP2 Energies <==================
	-----------------------------------------------------------
	 SCS Same-Spin Scale       =       0.3333333333333333 [-]
	 SCS Opposite-Spin Scale   =       1.2000000000000000 [-]
	 SCS Same-Spin Energy      =      -0.1789558781551853 [Eh]
	 SCS Opposite-Spin Energy  =      -1.9683452088349598 [Eh]
	 SCS Correlation Energy    =      -2.1473010869901450 [Eh]
	 SCS Total Energy          =    -498.0930680710029606 [Eh]
	-----------------------------------------------------------

  Dipole Moment: [D]
     X:     8.4213      Y:     1.2914      Z:     2.9332     Total:     9.0105

*** Psi4 exiting successfully. Buy a developer a beer!
