                               Psi4 1.4a3.dev225

  ==> Input File <==

--------------------------------------------------------------------------
#psi4
#
memory 32 gb

molecule  {
-1 1
  O       -2.4775990    -1.4732410    -0.5357720
  O       -2.5836320     0.8103810    -0.7086120
  C        0.1769840    -0.1996970     0.5360780
  C        0.8954486     0.9933891     0.1487861
  C       -1.2378850    -0.1617980     1.0317040
  C        0.8256870    -1.4354030     0.3918760
  C        2.1654290     0.8711020    -0.3500530
  C        0.1613040     2.3091050     0.2016770
  C        2.1298550    -1.5237740    -0.0958170
  C        2.8103870    -0.3625320    -0.4658790
  C       -2.2184660    -0.2891600    -0.2009230
  H       -1.4126520    -1.0091000     1.7035120
  H       -1.4413430     0.7679950     1.5725290
  H        0.2756770    -2.3364080     0.6567980
  H        2.6838580     1.7794620    -0.6595800
  H       -0.8491240     2.2156170    -0.2099720
  H        0.0735000     2.6566880     1.2394400
  H        0.7245490     3.0640340    -0.3581400
  H        2.6081740    -2.4970700    -0.1982670
  H        3.8302350    -0.4147610    -0.8445580
units angstrom
no_reorient  #important for SAPT in psi4, default
symmetry c1  #important for SAPT in psi4, default
}

set PROPERTIES_ORIGIN ["COM"]
properties('MP2/aug-cc-pvtz', properties = ['dipole'])
--------------------------------------------------------------------------

    Molecular point group: c1
  Charge       = -1
  Multiplicity = 1
  Basis Set: AUG-CC-PVTZ
    Blend: AUG-CC-PVTZ
  Basis Set: (AUG-CC-PVTZ AUX)
    Blend: AUG-CC-PVTZ-JKFIT

    Orbital Energies [Eh]
    ---------------------

    Doubly Occupied:

       1A    -20.309598     2A    -20.309365     3A    -11.157437
       4A    -11.117936     5A    -11.117457     6A    -11.116535
       7A    -11.116430     8A    -11.111553     9A    -11.105452
      10A    -11.092648    11A    -11.074638    12A     -1.179609
      13A     -1.083758    14A     -1.031995    15A     -0.924969
      16A     -0.910600    17A     -0.821877    18A     -0.788314
      19A     -0.684803    20A     -0.667570    21A     -0.562363
      22A     -0.533343    23A     -0.522759    24A     -0.499293
      25A     -0.461342    26A     -0.454295    27A     -0.438752
      28A     -0.429160    29A     -0.427051    30A     -0.412659
      31A     -0.386715    32A     -0.374505    33A     -0.365207
      34A     -0.346792    35A     -0.334898    36A     -0.234316
      37A     -0.225694    38A     -0.213252    39A     -0.209298
      40A     -0.174025

  @DF-RHF Final Energy:  -495.99533149538240

   => Energetics <=

    Nuclear Repulsion Energy =            571.6455846912557490
    One-Electron Energy =               -1822.6253025028472621
    Two-Electron Energy =                 754.9843863162089974
    Total Energy =                       -495.9953314953824020
  Basis Set: (AUG-CC-PVTZ AUX)
    Blend: AUG-CC-PVTZ-RI
    Molecular point group: c1

    Geometry (in Angstrom), charge = -1, multiplicity = 1:

       Center              X                  Y                   Z               Mass
    ------------   -----------------  -----------------  -----------------  -----------------
         O           -2.437981775507    -1.446888738930    -0.518262582342    15.994914619570
         O           -2.544014775507     0.836733261070    -0.691102582342    15.994914619570
         C            0.216601224493    -0.173344738930     0.553587417658    12.000000000000
         C            0.935065824493     1.019741361070     0.166295517658    12.000000000000
         C           -1.198267775507    -0.135445738930     1.049213417658    12.000000000000
         C            0.865304224493    -1.409050738930     0.409385417658    12.000000000000
         C            2.205046224493     0.897454261070    -0.332543582342    12.000000000000
         C            0.200921224493     2.335457261070     0.219186417658    12.000000000000
         C            2.169472224493    -1.497421738930    -0.078307582342    12.000000000000
         C            2.850004224493    -0.336179738930    -0.448369582342    12.000000000000
         C           -2.178848775507    -0.262807738930    -0.183413582342    12.000000000000
         H           -1.373034775507    -0.982747738930     1.721021417658     1.007825032230
         H           -1.401725775507     0.794347261070     1.590038417658     1.007825032230
         H            0.315294224493    -2.310055738930     0.674307417658     1.007825032230
         H            2.723475224493     1.805814261070    -0.642070582342     1.007825032230
         H           -0.809506775507     2.241969261070    -0.192462582342     1.007825032230
         H            0.113117224493     2.683040261070     1.256949417658     1.007825032230
         H            0.764166224493     3.090386261070    -0.340630582342     1.007825032230
         H            2.647791224493    -2.470717738930    -0.180757582342     1.007825032230
         H            3.869852224493    -0.388408738930    -0.827048582342     1.007825032230

  Basis Set: AUG-CC-PVTZ
    Blend: AUG-CC-PVTZ
  Basis Set: (AUG-CC-PVTZ AUX)
    Blend: AUG-CC-PVTZ-JKFIT
	 Reference Energy          =    -495.9953314953824020 [Eh]
	 Singles Energy            =      -0.0000000000000000 [Eh]
	 Same-Spin Energy          =      -0.5329596863074835 [Eh]
	 Opposite-Spin Energy      =      -1.6355538908396960 [Eh]
	 Correlation Energy        =      -2.1685135771471797 [Eh]
	 Total Energy              =    -498.1638450725295684 [Eh]

	 ================> DF-SCS-MP2 Energies <==================
	-----------------------------------------------------------
	 SCS Same-Spin Scale       =       0.3333333333333333 [-]
	 SCS Opposite-Spin Scale   =       1.2000000000000000 [-]
	 SCS Same-Spin Energy      =      -0.1776532287691611 [Eh]
	 SCS Opposite-Spin Energy  =      -1.9626646690076353 [Eh]
	 SCS Correlation Energy    =      -2.1403178977767965 [Eh]
	 SCS Total Energy          =    -498.1356493931592127 [Eh]
	-----------------------------------------------------------

  Dipole Moment: [D]
     X:     8.4575      Y:     1.3924      Z:     2.9741     Total:     9.0727

*** Psi4 exiting successfully. Buy a developer a beer!
