                               Psi4 1.4a3.dev225

  ==> Input File <==

--------------------------------------------------------------------------
#psi4
#
memory 32 gb

molecule  {
-1 1
  O       -2.4775990    -1.4732410    -0.5357720
  O       -2.5836320     0.8103810    -0.7086120
  C        0.1769840    -0.1996970     0.5360780
  C        0.8728220     0.9580048     0.1217858
  C       -1.2378850    -0.1617980     1.0317040
  C        0.8256870    -1.4354030     0.3918760
  C        2.1654290     0.8711020    -0.3500530
  C        0.1613040     2.3091050     0.2016770
  C        2.1298550    -1.5237740    -0.0958170
  C        2.8103870    -0.3625320    -0.4658790
  C       -2.2184660    -0.2891600    -0.2009230
  H       -1.4126520    -1.0091000     1.7035120
  H       -1.4413430     0.7679950     1.5725290
  H        0.2756770    -2.3364080     0.6567980
  H        2.6838580     1.7794620    -0.6595800
  H       -0.8491240     2.2156170    -0.2099720
  H        0.0735000     2.6566880     1.2394400
  H        0.7245490     3.0640340    -0.3581400
  H        2.6081740    -2.4970700    -0.1982670
  H        3.8302350    -0.4147610    -0.8445580
units angstrom
no_reorient  #important for SAPT in psi4, default
symmetry c1  #important for SAPT in psi4, default
}

set PROPERTIES_ORIGIN ["COM"]
properties('MP2/aug-cc-pvtz', properties = ['dipole'])
--------------------------------------------------------------------------

    Molecular point group: c1
  Charge       = -1
  Multiplicity = 1
  Basis Set: AUG-CC-PVTZ
    Blend: AUG-CC-PVTZ
  Basis Set: (AUG-CC-PVTZ AUX)
    Blend: AUG-CC-PVTZ-JKFIT

    Orbital Energies [Eh]
    ---------------------

    Doubly Occupied:

       1A    -20.309285     2A    -20.309195     3A    -11.157151
       4A    -11.118277     5A    -11.116096     6A    -11.115738
       7A    -11.113030     8A    -11.112516     9A    -11.106572
      10A    -11.092573    11A    -11.074404    12A     -1.179391
      13A     -1.083523    14A     -1.033923    15A     -0.924936
      16A     -0.908896    17A     -0.819637    18A     -0.788594
      19A     -0.689895    20A     -0.665997    21A     -0.562712
      22A     -0.533174    23A     -0.523448    24A     -0.499148
      25A     -0.460653    26A     -0.453692    27A     -0.438840
      28A     -0.428561    29A     -0.424945    30A     -0.411722
      31A     -0.383954    32A     -0.375831    33A     -0.366232
      34A     -0.348083    35A     -0.334032    36A     -0.235075
      37A     -0.225715    38A     -0.212598    39A     -0.208609
      40A     -0.176326

  @DF-RHF Final Energy:  -495.99699334530123

   => Energetics <=

    Nuclear Repulsion Energy =            572.0997827567457534
    One-Electron Energy =               -1823.5475925796974934
    Two-Electron Energy =                 755.4508164776505055
    Total Energy =                       -495.9969933453012345
  Basis Set: (AUG-CC-PVTZ AUX)
    Blend: AUG-CC-PVTZ-RI
    Molecular point group: c1

    Geometry (in Angstrom), charge = -1, multiplicity = 1:

       Center              X                  Y                   Z               Mass
    ------------   -----------------  -----------------  -----------------  -----------------
         O           -2.436160235615    -1.444040148598    -0.516088940542    15.994914619570
         O           -2.542193235615     0.839581851402    -0.688928940542    15.994914619570
         C            0.218422764385    -0.170496148598     0.555761059458    12.000000000000
         C            0.914260764385     0.987205651402     0.141468859458    12.000000000000
         C           -1.196446235615    -0.132597148598     1.051387059458    12.000000000000
         C            0.867125764385    -1.406202148598     0.411559059458    12.000000000000
         C            2.206867764385     0.900302851402    -0.330369940542    12.000000000000
         C            0.202742764385     2.338305851402     0.221360059458    12.000000000000
         C            2.171293764385    -1.494573148598    -0.076133940542    12.000000000000
         C            2.851825764385    -0.333331148598    -0.446195940542    12.000000000000
         C           -2.177027235615    -0.259959148598    -0.181239940542    12.000000000000
         H           -1.371213235615    -0.979899148598     1.723195059458     1.007825032230
         H           -1.399904235615     0.797195851402     1.592212059458     1.007825032230
         H            0.317115764385    -2.307207148598     0.676481059458     1.007825032230
         H            2.725296764385     1.808662851402    -0.639896940542     1.007825032230
         H           -0.807685235615     2.244817851402    -0.190288940542     1.007825032230
         H            0.114938764385     2.685888851402     1.259123059458     1.007825032230
         H            0.765987764385     3.093234851402    -0.338456940542     1.007825032230
         H            2.649612764385    -2.467869148598    -0.178583940542     1.007825032230
         H            3.871673764385    -0.385560148598    -0.824874940542     1.007825032230

  Basis Set: AUG-CC-PVTZ
    Blend: AUG-CC-PVTZ
  Basis Set: (AUG-CC-PVTZ AUX)
    Blend: AUG-CC-PVTZ-JKFIT
	 Reference Energy          =    -495.9969933453012345 [Eh]
	 Singles Energy            =      -0.0000000000000000 [Eh]
	 Same-Spin Energy          =      -0.5328250425275756 [Eh]
	 Opposite-Spin Energy      =      -1.6352908071969781 [Eh]
	 Correlation Energy        =      -2.1681158497245536 [Eh]
	 Total Energy              =    -498.1651091950257637 [Eh]

	 ================> DF-SCS-MP2 Energies <==================
	-----------------------------------------------------------
	 SCS Same-Spin Scale       =       0.3333333333333333 [-]
	 SCS Opposite-Spin Scale   =       1.2000000000000000 [-]
	 SCS Same-Spin Energy      =      -0.1776083475091919 [Eh]
	 SCS Opposite-Spin Energy  =      -1.9623489686363735 [Eh]
	 SCS Correlation Energy    =      -2.1399573161455652 [Eh]
	 SCS Total Energy          =    -498.1369506614468037 [Eh]
	-----------------------------------------------------------

  Dipole Moment: [D]
     X:     8.4935      Y:     1.3596      Z:     2.9669     Total:     9.0990

*** Psi4 exiting successfully. Buy a developer a beer!
