                               Psi4 1.4a3.dev225

  ==> Input File <==

--------------------------------------------------------------------------
#psi4
#
memory 32 gb

molecule  {
-1 1
  O       -2.4775990    -1.4732410    -0.5357720
  O       -2.5836320     0.8103810    -0.7086120
  C        0.1769840    -0.1996970     0.5360780
  C        0.8528670     0.9715620     0.1268880
  C       -1.2378850    -0.1617980     1.0317040
  C        0.8256870    -1.4354030     0.3918760
  C        2.1654290     0.8711020    -0.3500530
  C        0.1383682     2.3534649     0.2041574
  C        2.1298550    -1.5237740    -0.0958170
  C        2.8103870    -0.3625320    -0.4658790
  C       -2.2184660    -0.2891600    -0.2009230
  H       -1.4126520    -1.0091000     1.7035120
  H       -1.4413430     0.7679950     1.5725290
  H        0.2756770    -2.3364080     0.6567980
  H        2.6838580     1.7794620    -0.6595800
  H       -0.8491240     2.2156170    -0.2099720
  H        0.0735000     2.6566880     1.2394400
  H        0.7245490     3.0640340    -0.3581400
  H        2.6081740    -2.4970700    -0.1982670
  H        3.8302350    -0.4147610    -0.8445580
units angstrom
no_reorient  #important for SAPT in psi4, default
symmetry c1  #important for SAPT in psi4, default
}

set PROPERTIES_ORIGIN ["COM"]
properties('MP2/aug-cc-pvtz', properties = ['dipole'])
--------------------------------------------------------------------------

    Molecular point group: c1
  Charge       = -1
  Multiplicity = 1
  Basis Set: AUG-CC-PVTZ
    Blend: AUG-CC-PVTZ
  Basis Set: (AUG-CC-PVTZ AUX)
    Blend: AUG-CC-PVTZ-JKFIT

    Orbital Energies [Eh]
    ---------------------

    Doubly Occupied:

       1A    -20.309244     2A    -20.309004     3A    -11.156873
       4A    -11.119140     5A    -11.118353     6A    -11.116000
       7A    -11.114822     8A    -11.112704     9A    -11.106875
      10A    -11.091369    11A    -11.073666    12A     -1.179247
      13A     -1.083402    14A     -1.030676    15A     -0.923962
      16A     -0.905790    17A     -0.820972    18A     -0.789031
      19A     -0.689471    20A     -0.664603    21A     -0.561676
      22A     -0.532716    23A     -0.522412    24A     -0.497642
      25A     -0.463609    26A     -0.453222    27A     -0.436562
      28A     -0.431080    29A     -0.425817    30A     -0.418678
      31A     -0.381094    32A     -0.376382    33A     -0.366118
      34A     -0.346893    35A     -0.332388    36A     -0.235061
      37A     -0.225715    38A     -0.211829    39A     -0.207324
      40A     -0.176614

  @DF-RHF Final Energy:  -495.99563544992537

   => Energetics <=

    Nuclear Repulsion Energy =            571.1616390251466555
    One-Electron Energy =               -1821.6784736561060072
    Two-Electron Energy =                 754.5211991810338077
    Total Energy =                       -495.9956354499254303
  Basis Set: (AUG-CC-PVTZ AUX)
    Blend: AUG-CC-PVTZ-RI
    Molecular point group: c1

    Geometry (in Angstrom), charge = -1, multiplicity = 1:

       Center              X                  Y                   Z               Mass
    ------------   -----------------  -----------------  -----------------  -----------------
         O           -2.432707339324    -1.448702727514    -0.516699372882    15.994914619570
         O           -2.538740339324     0.834919272486    -0.689539372882    15.994914619570
         C            0.221875660676    -0.175158727514     0.555150627118    12.000000000000
         C            0.897758660676     0.996100272486     0.145960627118    12.000000000000
         C           -1.192993339324    -0.137259727514     1.050776627118    12.000000000000
         C            0.870578660676    -1.410864727514     0.410948627118    12.000000000000
         C            2.210320660676     0.895640272486    -0.330980372882    12.000000000000
         C            0.183259860676     2.378003172486     0.223230027118    12.000000000000
         C            2.174746660676    -1.499235727514    -0.076744372882    12.000000000000
         C            2.855278660676    -0.337993727514    -0.446806372882    12.000000000000
         C           -2.173574339324    -0.264621727514    -0.181850372882    12.000000000000
         H           -1.367760339324    -0.984561727514     1.722584627118     1.007825032230
         H           -1.396451339324     0.792533272486     1.591601627118     1.007825032230
         H            0.320568660676    -2.311869727514     0.675870627118     1.007825032230
         H            2.728749660676     1.804000272486    -0.640507372882     1.007825032230
         H           -0.804232339324     2.240155272486    -0.190899372882     1.007825032230
         H            0.118391660676     2.681226272486     1.258512627118     1.007825032230
         H            0.769440660676     3.088572272486    -0.339067372882     1.007825032230
         H            2.653065660676    -2.472531727514    -0.179194372882     1.007825032230
         H            3.875126660676    -0.390222727514    -0.825485372882     1.007825032230

  Basis Set: AUG-CC-PVTZ
    Blend: AUG-CC-PVTZ
  Basis Set: (AUG-CC-PVTZ AUX)
    Blend: AUG-CC-PVTZ-JKFIT
	 Reference Energy          =    -495.9956354499253735 [Eh]
	 Singles Energy            =      -0.0000000000000000 [Eh]
	 Same-Spin Energy          =      -0.5326571634843102 [Eh]
	 Opposite-Spin Energy      =      -1.6353110815955294 [Eh]
	 Correlation Energy        =      -2.1679682450798397 [Eh]
	 Total Energy              =    -498.1636036950052357 [Eh]

	 ================> DF-SCS-MP2 Energies <==================
	-----------------------------------------------------------
	 SCS Same-Spin Scale       =       0.3333333333333333 [-]
	 SCS Opposite-Spin Scale   =       1.2000000000000000 [-]
	 SCS Same-Spin Energy      =      -0.1775523878281034 [Eh]
	 SCS Opposite-Spin Energy  =      -1.9623732979146351 [Eh]
	 SCS Correlation Energy    =      -2.1399256857427384 [Eh]
	 SCS Total Energy          =    -498.1355611356681266 [Eh]
	-----------------------------------------------------------

  Dipole Moment: [D]
     X:     8.4956      Y:     1.3974      Z:     2.9741     Total:     9.1089

*** Psi4 exiting successfully. Buy a developer a beer!
