                               Psi4 1.4a3.dev225

  ==> Input File <==

--------------------------------------------------------------------------
#psi4
#
memory 32 gb

molecule  {
-1 1
  O       -2.4775990    -1.4732410    -0.5357720
  O       -2.5836320     0.8103810    -0.7086120
  C        0.1769840    -0.1996970     0.5360780
  C        0.8050282     0.8886607     0.1558503
  C       -1.2378850    -0.1617980     1.0317040
  C        0.8256870    -1.4354030     0.3918760
  C        2.1654290     0.8711020    -0.3500530
  C        0.1613040     2.3091050     0.2016770
  C        2.1298550    -1.5237740    -0.0958170
  C        2.8103870    -0.3625320    -0.4658790
  C       -2.2184660    -0.2891600    -0.2009230
  H       -1.4126520    -1.0091000     1.7035120
  H       -1.4413430     0.7679950     1.5725290
  H        0.2756770    -2.3364080     0.6567980
  H        2.6838580     1.7794620    -0.6595800
  H       -0.8491240     2.2156170    -0.2099720
  H        0.0735000     2.6566880     1.2394400
  H        0.7245490     3.0640340    -0.3581400
  H        2.6081740    -2.4970700    -0.1982670
  H        3.8302350    -0.4147610    -0.8445580
units angstrom
no_reorient  #important for SAPT in psi4, default
symmetry c1  #important for SAPT in psi4, default
}

set PROPERTIES_ORIGIN ["COM"]
properties('MP2/aug-cc-pvtz', properties = ['dipole'])
--------------------------------------------------------------------------

    Molecular point group: c1
  Charge       = -1
  Multiplicity = 1
  Basis Set: AUG-CC-PVTZ
    Blend: AUG-CC-PVTZ
  Basis Set: (AUG-CC-PVTZ AUX)
    Blend: AUG-CC-PVTZ-JKFIT

    Orbital Energies [Eh]
    ---------------------

    Doubly Occupied:

       1A    -20.308394     2A    -20.308203     3A    -11.155814
       4A    -11.120904     5A    -11.119475     6A    -11.115377
       7A    -11.112381     8A    -11.110829     9A    -11.099164
      10A    -11.092474    11A    -11.072386    12A     -1.178507
      13A     -1.082614    14A     -1.038508    15A     -0.932043
      16A     -0.899007    17A     -0.815916    18A     -0.789253
      19A     -0.705300    20A     -0.657198    21A     -0.564004
      22A     -0.532588    23A     -0.523169    24A     -0.499910
      25A     -0.461129    26A     -0.451868    27A     -0.440906
      28A     -0.425743    29A     -0.423233    30A     -0.410357
      31A     -0.382064    32A     -0.375967    33A     -0.367824
      34A     -0.352739    35A     -0.322763    36A     -0.240140
      37A     -0.225227    38A     -0.210073    39A     -0.202284
      40A     -0.183937

  @DF-RHF Final Energy:  -495.98571651078510

   => Energetics <=

    Nuclear Repulsion Energy =            573.0760534405834505
    One-Electron Energy =               -1825.5041939963643927
    Two-Electron Energy =                 756.4424240449957324
    Total Energy =                       -495.9857165107850960
  Basis Set: (AUG-CC-PVTZ AUX)
    Blend: AUG-CC-PVTZ-RI
    Molecular point group: c1

    Geometry (in Angstrom), charge = -1, multiplicity = 1:

       Center              X                  Y                   Z               Mass
    ------------   -----------------  -----------------  -----------------  -----------------
         O           -2.430702539312    -1.438457646390    -0.518831281223    15.994914619570
         O           -2.536735539312     0.845164353610    -0.691671281223    15.994914619570
         C            0.223880460688    -0.164913646390     0.553018718777    12.000000000000
         C            0.851924660688     0.923444053610     0.172791018777    12.000000000000
         C           -1.190988539312    -0.127014646390     1.048644718777    12.000000000000
         C            0.872583460688    -1.400619646390     0.408816718777    12.000000000000
         C            2.212325460688     0.905885353610    -0.333112281223    12.000000000000
         C            0.208200460688     2.343888353610     0.218617718777    12.000000000000
         C            2.176751460688    -1.488990646390    -0.078876281223    12.000000000000
         C            2.857283460688    -0.327748646390    -0.448938281223    12.000000000000
         C           -2.171569539312    -0.254376646390    -0.183982281223    12.000000000000
         H           -1.365755539312    -0.974316646390     1.720452718777     1.007825032230
         H           -1.394446539312     0.802778353610     1.589469718777     1.007825032230
         H            0.322573460688    -2.301624646390     0.673738718777     1.007825032230
         H            2.730754460688     1.814245353610    -0.642639281223     1.007825032230
         H           -0.802227539312     2.250400353610    -0.193031281223     1.007825032230
         H            0.120396460688     2.691471353610     1.256380718777     1.007825032230
         H            0.771445460688     3.098817353610    -0.341199281223     1.007825032230
         H            2.655070460688    -2.462286646390    -0.181326281223     1.007825032230
         H            3.877131460688    -0.379977646390    -0.827617281223     1.007825032230

  Basis Set: AUG-CC-PVTZ
    Blend: AUG-CC-PVTZ
  Basis Set: (AUG-CC-PVTZ AUX)
    Blend: AUG-CC-PVTZ-JKFIT
	 Reference Energy          =    -495.9857165107850960 [Eh]
	 Singles Energy            =      -0.0000000000000000 [Eh]
	 Same-Spin Energy          =      -0.5323575321174530 [Eh]
	 Opposite-Spin Energy      =      -1.6354346031477722 [Eh]
	 Correlation Energy        =      -2.1677921352652252 [Eh]
	 Total Energy              =    -498.1535086460503408 [Eh]

	 ================> DF-SCS-MP2 Energies <==================
	-----------------------------------------------------------
	 SCS Same-Spin Scale       =       0.3333333333333333 [-]
	 SCS Opposite-Spin Scale   =       1.2000000000000000 [-]
	 SCS Same-Spin Energy      =      -0.1774525107058176 [Eh]
	 SCS Opposite-Spin Energy  =      -1.9625215237773266 [Eh]
	 SCS Correlation Energy    =      -2.1399740344831444 [Eh]
	 SCS Total Energy          =    -498.1256905452682417 [Eh]
	-----------------------------------------------------------

  Dipole Moment: [D]
     X:     8.6209      Y:     1.3045      Z:     2.9483     Total:     9.2041

*** Psi4 exiting successfully. Buy a developer a beer!
