                               Psi4 1.4a3.dev225

  ==> Input File <==

--------------------------------------------------------------------------
#psi4
#
memory 32 gb

molecule  {
-1 1
  O       -2.4775990    -1.4732410    -0.5357720
  O       -2.5836320     0.8103810    -0.7086120
  C        0.1769840    -0.1996970     0.5360780
  C        0.8528670     0.9715620     0.1268880
  C       -1.2378850    -0.1617980     1.0317040
  C        0.8256870    -1.4354030     0.3918760
  C        2.1654290     0.8711020    -0.3500530
  C        0.1613040     2.3091050     0.2016770
  C        2.1298550    -1.5237740    -0.0958170
  C        2.8103870    -0.3625320    -0.4658790
  C       -2.2308766    -0.2907719    -0.2165236
  H       -1.4126520    -1.0091000     1.7035120
  H       -1.4413430     0.7679950     1.5725290
  H        0.2756770    -2.3364080     0.6567980
  H        2.6838580     1.7794620    -0.6595800
  H       -0.8491240     2.2156170    -0.2099720
  H        0.0735000     2.6566880     1.2394400
  H        0.7245490     3.0640340    -0.3581400
  H        2.6081740    -2.4970700    -0.1982670
  H        3.8302350    -0.4147610    -0.8445580
units angstrom
no_reorient  #important for SAPT in psi4, default
symmetry c1  #important for SAPT in psi4, default
}

set PROPERTIES_ORIGIN ["COM"]
properties('MP2/aug-cc-pvtz', properties = ['dipole'])
--------------------------------------------------------------------------

    Molecular point group: c1
  Charge       = -1
  Multiplicity = 1
  Basis Set: AUG-CC-PVTZ
    Blend: AUG-CC-PVTZ
  Basis Set: (AUG-CC-PVTZ AUX)
    Blend: AUG-CC-PVTZ-JKFIT

    Orbital Energies [Eh]
    ---------------------

    Doubly Occupied:

       1A    -20.310812     2A    -20.310630     3A    -11.157573
       4A    -11.117429     5A    -11.116114     6A    -11.115348
       7A    -11.113944     8A    -11.111628     9A    -11.105838
      10A    -11.091790    11A    -11.071436    12A     -1.184760
      13A     -1.090656    14A     -1.031235    15A     -0.925696
      16A     -0.906424    17A     -0.819231    18A     -0.785451
      19A     -0.688689    20A     -0.662791    21A     -0.560999
      22A     -0.531817    23A     -0.522068    24A     -0.498702
      25A     -0.461677    26A     -0.452494    27A     -0.439340
      28A     -0.428913    29A     -0.426221    30A     -0.411896
      31A     -0.386129    32A     -0.375878    33A     -0.364153
      34A     -0.351284    35A     -0.335148    36A     -0.234932
      37A     -0.228544    38A     -0.213965    39A     -0.207105
      40A     -0.172735

  @DF-RHF Final Energy:  -495.99764648786038

   => Energetics <=

    Nuclear Repulsion Energy =            571.9547827194023739
    One-Electron Energy =               -1823.2619095205600388
    Two-Electron Energy =                 755.3094803132972856
    Total Energy =                       -495.9976464878603792
  Basis Set: (AUG-CC-PVTZ AUX)
    Blend: AUG-CC-PVTZ-RI
    Molecular point group: c1

    Geometry (in Angstrom), charge = -1, multiplicity = 1:

       Center              X                  Y                   Z               Mass
    ------------   -----------------  -----------------  -----------------  -----------------
         O           -2.433554663786    -1.445001797298    -0.515243773596    15.994914619570
         O           -2.539587663786     0.838620202702    -0.688083773596    15.994914619570
         C            0.221028336214    -0.171457797298     0.556606226404    12.000000000000
         C            0.896911336214     0.999801202702     0.147416226404    12.000000000000
         C           -1.193840663786    -0.133558797298     1.052232226404    12.000000000000
         C            0.869731336214    -1.407163797298     0.412404226404    12.000000000000
         C            2.209473336214     0.899341202702    -0.329524773596    12.000000000000
         C            0.205348336214     2.337344202702     0.222205226404    12.000000000000
         C            2.173899336214    -1.495534797298    -0.075288773596    12.000000000000
         C            2.854431336214    -0.334292797298    -0.445350773596    12.000000000000
         C           -2.186832263786    -0.262532697298    -0.195995373596    12.000000000000
         H           -1.368607663786    -0.980860797298     1.724040226404     1.007825032230
         H           -1.397298663786     0.796234202702     1.593057226404     1.007825032230
         H            0.319721336214    -2.308168797298     0.677326226404     1.007825032230
         H            2.727902336214     1.807701202702    -0.639051773596     1.007825032230
         H           -0.805079663786     2.243856202702    -0.189443773596     1.007825032230
         H            0.117544336214     2.684927202702     1.259968226404     1.007825032230
         H            0.768593336214     3.092273202702    -0.337611773596     1.007825032230
         H            2.652218336214    -2.468830797298    -0.177738773596     1.007825032230
         H            3.874279336214    -0.386521797298    -0.824029773596     1.007825032230

  Basis Set: AUG-CC-PVTZ
    Blend: AUG-CC-PVTZ
  Basis Set: (AUG-CC-PVTZ AUX)
    Blend: AUG-CC-PVTZ-JKFIT
	 Reference Energy          =    -495.9976464878603792 [Eh]
	 Singles Energy            =      -0.0000000000000000 [Eh]
	 Same-Spin Energy          =      -0.5328378103595388 [Eh]
	 Opposite-Spin Energy      =      -1.6349678069255389 [Eh]
	 Correlation Energy        =      -2.1678056172850777 [Eh]
	 Total Energy              =    -498.1654521051454481 [Eh]

	 ================> DF-SCS-MP2 Energies <==================
	-----------------------------------------------------------
	 SCS Same-Spin Scale       =       0.3333333333333333 [-]
	 SCS Opposite-Spin Scale   =       1.2000000000000000 [-]
	 SCS Same-Spin Energy      =      -0.1776126034531796 [Eh]
	 SCS Opposite-Spin Energy  =      -1.9619613683106465 [Eh]
	 SCS Correlation Energy    =      -2.1395739717638262 [Eh]
	 SCS Total Energy          =    -498.1372204596241886 [Eh]
	-----------------------------------------------------------

  Dipole Moment: [D]
     X:     8.3269      Y:     1.3783      Z:     2.8741     Total:     8.9161

*** Psi4 exiting successfully. Buy a developer a beer!
