                               Psi4 1.4a3.dev225

  ==> Input File <==

--------------------------------------------------------------------------
#psi4
#
memory 32 gb

molecule  {
-1 1
  O       -2.4775990    -1.4732410    -0.5357720
  O       -2.5836320     0.8103810    -0.7086120
  C        0.1769840    -0.1996970     0.5360780
  C        0.8528670     0.9715620     0.1268880
  C       -1.2378850    -0.1617980     1.0317040
  C        0.8256870    -1.4354030     0.3918760
  C        2.1654290     0.8711020    -0.3500530
  C        0.1613040     2.3091050     0.2016770
  C        2.1298550    -1.5237740    -0.0958170
  C        2.8103870    -0.3625320    -0.4658790
  C       -2.2184660    -0.2891600    -0.2009230
  H       -1.4445627    -1.1638090     1.8261775
  H       -1.4413430     0.7679950     1.5725290
  H        0.2756770    -2.3364080     0.6567980
  H        2.6838580     1.7794620    -0.6595800
  H       -0.8491240     2.2156170    -0.2099720
  H        0.0735000     2.6566880     1.2394400
  H        0.7245490     3.0640340    -0.3581400
  H        2.6081740    -2.4970700    -0.1982670
  H        3.8302350    -0.4147610    -0.8445580
units angstrom
no_reorient  #important for SAPT in psi4, default
symmetry c1  #important for SAPT in psi4, default
}

set PROPERTIES_ORIGIN ["COM"]
properties('MP2/aug-cc-pvtz', properties = ['dipole'])
--------------------------------------------------------------------------

    Molecular point group: c1
  Charge       = -1
  Multiplicity = 1
  Basis Set: AUG-CC-PVTZ
    Blend: AUG-CC-PVTZ
  Basis Set: (AUG-CC-PVTZ AUX)
    Blend: AUG-CC-PVTZ-JKFIT

    Orbital Energies [Eh]
    ---------------------

    Doubly Occupied:

       1A    -20.311924     2A    -20.309178     3A    -11.159501
       4A    -11.119500     5A    -11.119060     6A    -11.116620
       7A    -11.115756     8A    -11.114753     9A    -11.107713
      10A    -11.097426    11A    -11.093662    12A     -1.180624
      13A     -1.084785    14A     -1.033245    15A     -0.927521
      16A     -0.907153    17A     -0.818890    18A     -0.784097
      19A     -0.688858    20A     -0.664287    21A     -0.563551
      22A     -0.532956    23A     -0.519951    24A     -0.498130
      25A     -0.462666    26A     -0.454393    27A     -0.440970
      28A     -0.427833    29A     -0.419749    30A     -0.413351
      31A     -0.380387    32A     -0.370544    33A     -0.365072
      34A     -0.342498    35A     -0.330263    36A     -0.236841
      37A     -0.225137    38A     -0.212316    39A     -0.208028
      40A     -0.177973

  @DF-RHF Final Energy:  -495.97678923441748

   => Energetics <=

    Nuclear Repulsion Energy =            571.0620574205036064
    One-Electron Energy =               -1821.4033723539162111
    Two-Electron Energy =                 754.3645256989951804
    Total Energy =                       -495.9767892344174243
  Basis Set: (AUG-CC-PVTZ AUX)
    Blend: AUG-CC-PVTZ-RI
    Molecular point group: c1

    Geometry (in Angstrom), charge = -1, multiplicity = 1:

       Center              X                  Y                   Z               Mass
    ------------   -----------------  -----------------  -----------------  -----------------
         O           -2.434338016787    -1.444085544985    -0.517329054897    15.994914619570
         O           -2.540371016787     0.839536455015    -0.690169054897    15.994914619570
         C            0.220244983213    -0.170541544985     0.554520945103    12.000000000000
         C            0.896127983213     1.000717455015     0.145330945103    12.000000000000
         C           -1.194624016787    -0.132642544985     1.050146945103    12.000000000000
         C            0.868947983213    -1.406247544985     0.410318945103    12.000000000000
         C            2.208689983213     0.900257455015    -0.331610054897    12.000000000000
         C            0.204564983213     2.338260455015     0.220119945103    12.000000000000
         C            2.173115983213    -1.494618544985    -0.077374054897    12.000000000000
         C            2.853647983213    -0.333376544985    -0.447436054897    12.000000000000
         C           -2.175205016787    -0.260004544985    -0.182480054897    12.000000000000
         H           -1.401301716787    -1.134653544985     1.844620445103     1.007825032230
         H           -1.398082016787     0.797150455015     1.590971945103     1.007825032230
         H            0.318937983213    -2.307252544985     0.675240945103     1.007825032230
         H            2.727118983213     1.808617455015    -0.641137054897     1.007825032230
         H           -0.805863016787     2.244772455015    -0.191529054897     1.007825032230
         H            0.116760983213     2.685843455015     1.257882945103     1.007825032230
         H            0.767809983213     3.093189455015    -0.339697054897     1.007825032230
         H            2.651434983213    -2.467914544985    -0.179824054897     1.007825032230
         H            3.873495983213    -0.385605544985    -0.826115054897     1.007825032230

  Basis Set: AUG-CC-PVTZ
    Blend: AUG-CC-PVTZ
  Basis Set: (AUG-CC-PVTZ AUX)
    Blend: AUG-CC-PVTZ-JKFIT
	 Reference Energy          =    -495.9767892344174811 [Eh]
	 Singles Energy            =      -0.0000000000000000 [Eh]
	 Same-Spin Energy          =      -0.5332628852877250 [Eh]
	 Opposite-Spin Energy      =      -1.6374835778551813 [Eh]
	 Correlation Energy        =      -2.1707464631429065 [Eh]
	 Total Energy              =    -498.1475356975603859 [Eh]

	 ================> DF-SCS-MP2 Energies <==================
	-----------------------------------------------------------
	 SCS Same-Spin Scale       =       0.3333333333333333 [-]
	 SCS Opposite-Spin Scale   =       1.2000000000000000 [-]
	 SCS Same-Spin Energy      =      -0.1777542950959083 [Eh]
	 SCS Opposite-Spin Energy  =      -1.9649802934262175 [Eh]
	 SCS Correlation Energy    =      -2.1427345885221256 [Eh]
	 SCS Total Energy          =    -498.1195238229395841 [Eh]
	-----------------------------------------------------------

  Dipole Moment: [D]
     X:     8.5449      Y:     1.4965      Z:     2.7930     Total:     9.1135

*** Psi4 exiting successfully. Buy a developer a beer!
