                               Psi4 1.4a3.dev225

  ==> Input File <==

--------------------------------------------------------------------------
#psi4
#
memory 32 gb

molecule  {
-1 1
  O       -2.4775990    -1.4732410    -0.5357720
  O       -2.5836320     0.8103810    -0.7086120
  C        0.1769840    -0.1996970     0.5360780
  C        0.9485446     1.1373647     0.0689633
  C       -1.2378850    -0.1617980     1.0317040
  C        0.8256870    -1.4354030     0.3918760
  C        2.1654290     0.8711020    -0.3500530
  C        0.1613040     2.3091050     0.2016770
  C        2.1298550    -1.5237740    -0.0958170
  C        2.8103870    -0.3625320    -0.4658790
  C       -2.2184660    -0.2891600    -0.2009230
  H       -1.4126520    -1.0091000     1.7035120
  H       -1.4413430     0.7679950     1.5725290
  H        0.2756770    -2.3364080     0.6567980
  H        2.6838580     1.7794620    -0.6595800
  H       -0.8491240     2.2156170    -0.2099720
  H        0.0735000     2.6566880     1.2394400
  H        0.7245490     3.0640340    -0.3581400
  H        2.6081740    -2.4970700    -0.1982670
  H        3.8302350    -0.4147610    -0.8445580
units angstrom
no_reorient  #important for SAPT in psi4, default
symmetry c1  #important for SAPT in psi4, default
}

set PROPERTIES_ORIGIN ["COM"]
properties('MP2/aug-cc-pvtz', properties = ['dipole'])
--------------------------------------------------------------------------

    Molecular point group: c1
  Charge       = -1
  Multiplicity = 1
  Basis Set: AUG-CC-PVTZ
    Blend: AUG-CC-PVTZ
  Basis Set: (AUG-CC-PVTZ AUX)
    Blend: AUG-CC-PVTZ-JKFIT

    Orbital Energies [Eh]
    ---------------------

    Doubly Occupied:

       1A    -20.311030     2A    -20.310147     3A    -11.158915
       4A    -11.129159     5A    -11.122348     6A    -11.119587
       7A    -11.115437     8A    -11.105440     9A    -11.099682
      10A    -11.093154    11A    -11.075836    12A     -1.180618
      13A     -1.084821    14A     -1.027547    15A     -0.936874
      16A     -0.910342    17A     -0.833455    18A     -0.789198
      19A     -0.677432    20A     -0.658467    21A     -0.562421
      22A     -0.535598    23A     -0.519679    24A     -0.500001
      25A     -0.467237    26A     -0.465692    27A     -0.443685
      28A     -0.432158    29A     -0.428869    30A     -0.415021
      31A     -0.398741    32A     -0.373659    33A     -0.361666
      34A     -0.344346    35A     -0.307098    36A     -0.235346
      37A     -0.227122    38A     -0.217734    39A     -0.211188
      40A     -0.163502

  @DF-RHF Final Energy:  -495.95535574400628

   => Energetics <=

    Nuclear Repulsion Energy =            570.2419726405664733
    One-Electron Energy =               -1819.6941558850467118
    Two-Electron Energy =                 753.4968275004739553
    Total Energy =                       -495.9553557440062832
  Basis Set: (AUG-CC-PVTZ AUX)
    Blend: AUG-CC-PVTZ-RI
    Molecular point group: c1

    Geometry (in Angstrom), charge = -1, multiplicity = 1:

       Center              X                  Y                   Z               Mass
    ------------   -----------------  -----------------  -----------------  -----------------
         O           -2.442256234866    -1.458479402085    -0.511836499125    15.994914619570
         O           -2.548289234866     0.825142597915    -0.684676499125    15.994914619570
         C            0.212326765134    -0.184935402085     0.560013500875    12.000000000000
         C            0.983887365134     1.152126297915     0.092898800875    12.000000000000
         C           -1.202542234866    -0.147036402085     1.055639500875    12.000000000000
         C            0.861029765134    -1.420641402085     0.415811500875    12.000000000000
         C            2.200771765134     0.885863597915    -0.326117499125    12.000000000000
         C            0.196646765134     2.323866597915     0.225612500875    12.000000000000
         C            2.165197765134    -1.509012402085    -0.071881499125    12.000000000000
         C            2.845729765134    -0.347770402085    -0.441943499125    12.000000000000
         C           -2.183123234866    -0.274398402085    -0.176987499125    12.000000000000
         H           -1.377309234866    -0.994338402085     1.727447500875     1.007825032230
         H           -1.406000234866     0.782756597915     1.596464500875     1.007825032230
         H            0.311019765134    -2.321646402085     0.680733500875     1.007825032230
         H            2.719200765134     1.794223597915    -0.635644499125     1.007825032230
         H           -0.813781234866     2.230378597915    -0.186036499125     1.007825032230
         H            0.108842765134     2.671449597915     1.263375500875     1.007825032230
         H            0.759891765134     3.078795597915    -0.334204499125     1.007825032230
         H            2.643516765134    -2.482308402085    -0.174331499125     1.007825032230
         H            3.865577765134    -0.399999402085    -0.820622499125     1.007825032230

  Basis Set: AUG-CC-PVTZ
    Blend: AUG-CC-PVTZ
  Basis Set: (AUG-CC-PVTZ AUX)
    Blend: AUG-CC-PVTZ-JKFIT
	 Reference Energy          =    -495.9553557440062832 [Eh]
	 Singles Energy            =      -0.0000000000000000 [Eh]
	 Same-Spin Energy          =      -0.5338132051981253 [Eh]
	 Opposite-Spin Energy      =      -1.6385995276364291 [Eh]
	 Correlation Energy        =      -2.1724127328345544 [Eh]
	 Total Energy              =    -498.1277684768408562 [Eh]

	 ================> DF-SCS-MP2 Energies <==================
	-----------------------------------------------------------
	 SCS Same-Spin Scale       =       0.3333333333333333 [-]
	 SCS Opposite-Spin Scale   =       1.2000000000000000 [-]
	 SCS Same-Spin Energy      =      -0.1779377350660417 [Eh]
	 SCS Opposite-Spin Energy  =      -1.9663194331637148 [Eh]
	 SCS Correlation Energy    =      -2.1442571682297564 [Eh]
	 SCS Total Energy          =    -498.0996129122360117 [Eh]
	-----------------------------------------------------------

  Dipole Moment: [D]
     X:     8.2789      Y:     1.5366      Z:     2.9997     Total:     8.9386

*** Psi4 exiting successfully. Buy a developer a beer!
