                               Psi4 1.4a3.dev225

  ==> Input File <==

--------------------------------------------------------------------------
#psi4
#
memory 32 gb

molecule  {
-1 1
  O       -2.4775990    -1.4732410    -0.5357720
  O       -2.5836320     0.8103810    -0.7086120
  C        0.1769840    -0.1996970     0.5360780
  C        0.8528670     0.9715620     0.1268880
  C       -1.2378850    -0.1617980     1.0317040
  C        0.8256870    -1.4354030     0.3918760
  C        2.1654290     0.8711020    -0.3500530
  C        0.1613040     2.3091050     0.2016770
  C        2.2233321    -1.5301081    -0.1307727
  C        2.8103870    -0.3625320    -0.4658790
  C       -2.2184660    -0.2891600    -0.2009230
  H       -1.4126520    -1.0091000     1.7035120
  H       -1.4413430     0.7679950     1.5725290
  H        0.2756770    -2.3364080     0.6567980
  H        2.6838580     1.7794620    -0.6595800
  H       -0.8491240     2.2156170    -0.2099720
  H        0.0735000     2.6566880     1.2394400
  H        0.7245490     3.0640340    -0.3581400
  H        2.6081740    -2.4970700    -0.1982670
  H        3.8302350    -0.4147610    -0.8445580
units angstrom
no_reorient  #important for SAPT in psi4, default
symmetry c1  #important for SAPT in psi4, default
}

set PROPERTIES_ORIGIN ["COM"]
properties('MP2/aug-cc-pvtz', properties = ['dipole'])
--------------------------------------------------------------------------

    Molecular point group: c1
  Charge       = -1
  Multiplicity = 1
  Basis Set: AUG-CC-PVTZ
    Blend: AUG-CC-PVTZ
  Basis Set: (AUG-CC-PVTZ AUX)
    Blend: AUG-CC-PVTZ-JKFIT

    Orbital Energies [Eh]
    ---------------------

    Doubly Occupied:

       1A    -20.309035     2A    -20.308579     3A    -11.156423
       4A    -11.120791     5A    -11.117056     6A    -11.115702
       7A    -11.115044     8A    -11.113188     9A    -11.111848
      10A    -11.093313    11A    -11.073487    12A     -1.178933
      13A     -1.083097    14A     -1.029288    15A     -0.932150
      16A     -0.901463    17A     -0.815936    18A     -0.792163
      19A     -0.691172    20A     -0.664971    21A     -0.565215
      22A     -0.532604    23A     -0.522787    24A     -0.502278
      25A     -0.461706    26A     -0.453633    27A     -0.442876
      28A     -0.427843    29A     -0.425830    30A     -0.410286
      31A     -0.385932    32A     -0.369613    33A     -0.362691
      34A     -0.355742    35A     -0.328725    36A     -0.238371
      37A     -0.225330    38A     -0.210097    39A     -0.198613
      40A     -0.180344

  @DF-RHF Final Energy:  -495.98591350367303

   => Energetics <=

    Nuclear Repulsion Energy =            570.8214538516140237
    One-Electron Energy =               -1820.9664252812174254
    Two-Electron Energy =                 754.1590579259303695
    Total Energy =                       -495.9859135036730322
  Basis Set: (AUG-CC-PVTZ AUX)
    Blend: AUG-CC-PVTZ-RI
    Molecular point group: c1

    Geometry (in Angstrom), charge = -1, multiplicity = 1:

       Center              X                  Y                   Z               Mass
    ------------   -----------------  -----------------  -----------------  -----------------
         O           -2.442079085028    -1.444621639621    -0.513685603709    15.994914619570
         O           -2.548112085028     0.839000360379    -0.686525603709    15.994914619570
         C            0.212503914972    -0.171077639621     0.558164396291    12.000000000000
         C            0.888386914972     1.000181360379     0.148974396291    12.000000000000
         C           -1.202365085028    -0.133178639621     1.053790396291    12.000000000000
         C            0.861206914972    -1.406783639621     0.413962396291    12.000000000000
         C            2.200948914972     0.899721360379    -0.327966603709    12.000000000000
         C            0.196823914972     2.337724360379     0.223763396291    12.000000000000
         C            2.258852014972    -1.501488739621    -0.108686303709    12.000000000000
         C            2.845906914972    -0.333912639621    -0.443792603709    12.000000000000
         C           -2.182946085028    -0.260540639621    -0.178836603709    12.000000000000
         H           -1.377132085028    -0.980480639621     1.725598396291     1.007825032230
         H           -1.405823085028     0.796614360379     1.594615396291     1.007825032230
         H            0.311196914972    -2.307788639621     0.678884396291     1.007825032230
         H            2.719377914972     1.808081360379    -0.637493603709     1.007825032230
         H           -0.813604085028     2.244236360379    -0.187885603709     1.007825032230
         H            0.109019914972     2.685307360379     1.261526396291     1.007825032230
         H            0.760068914972     3.092653360379    -0.336053603709     1.007825032230
         H            2.643693914972    -2.468450639621    -0.176180603709     1.007825032230
         H            3.865754914972    -0.386141639621    -0.822471603709     1.007825032230

  Basis Set: AUG-CC-PVTZ
    Blend: AUG-CC-PVTZ
  Basis Set: (AUG-CC-PVTZ AUX)
    Blend: AUG-CC-PVTZ-JKFIT
	 Reference Energy          =    -495.9859135036730322 [Eh]
	 Singles Energy            =      -0.0000000000000000 [Eh]
	 Same-Spin Energy          =      -0.5326929155527008 [Eh]
	 Opposite-Spin Energy      =      -1.6361173410590331 [Eh]
	 Correlation Energy        =      -2.1688102566117338 [Eh]
	 Total Energy              =    -498.1547237602847531 [Eh]

	 ================> DF-SCS-MP2 Energies <==================
	-----------------------------------------------------------
	 SCS Same-Spin Scale       =       0.3333333333333333 [-]
	 SCS Opposite-Spin Scale   =       1.2000000000000000 [-]
	 SCS Same-Spin Energy      =      -0.1775643051842336 [Eh]
	 SCS Opposite-Spin Energy  =      -1.9633408092708395 [Eh]
	 SCS Correlation Energy    =      -2.1409051144550730 [Eh]
	 SCS Total Energy          =    -498.1268186181280839 [Eh]
	-----------------------------------------------------------

  Dipole Moment: [D]
     X:     8.5266      Y:     1.3885      Z:     2.9502     Total:     9.1288

*** Psi4 exiting successfully. Buy a developer a beer!
