                               Psi4 1.4a3.dev225

  ==> Input File <==

--------------------------------------------------------------------------
#psi4
#
memory 32 gb

molecule  {
-1 1
  O       -2.4775990    -1.4732410    -0.5357720
  O       -2.5836320     0.8103810    -0.7086120
  C        0.1769840    -0.1996970     0.5360780
  C        0.8094428     0.9513645     0.1050810
  C       -1.2378850    -0.1617980     1.0317040
  C        0.8256870    -1.4354030     0.3918760
  C        2.1654290     0.8711020    -0.3500530
  C        0.1613040     2.3091050     0.2016770
  C        2.1298550    -1.5237740    -0.0958170
  C        2.8103870    -0.3625320    -0.4658790
  C       -2.2184660    -0.2891600    -0.2009230
  H       -1.4126520    -1.0091000     1.7035120
  H       -1.4413430     0.7679950     1.5725290
  H        0.2756770    -2.3364080     0.6567980
  H        2.6838580     1.7794620    -0.6595800
  H       -0.8491240     2.2156170    -0.2099720
  H        0.0735000     2.6566880     1.2394400
  H        0.7245490     3.0640340    -0.3581400
  H        2.6081740    -2.4970700    -0.1982670
  H        3.8302350    -0.4147610    -0.8445580
units angstrom
no_reorient  #important for SAPT in psi4, default
symmetry c1  #important for SAPT in psi4, default
}

set PROPERTIES_ORIGIN ["COM"]
properties('MP2/aug-cc-pvtz', properties = ['dipole'])
--------------------------------------------------------------------------

    Molecular point group: c1
  Charge       = -1
  Multiplicity = 1
  Basis Set: AUG-CC-PVTZ
    Blend: AUG-CC-PVTZ
  Basis Set: (AUG-CC-PVTZ AUX)
    Blend: AUG-CC-PVTZ-JKFIT

    Orbital Energies [Eh]
    ---------------------

    Doubly Occupied:

       1A    -20.308842     2A    -20.308712     3A    -11.156462
       4A    -11.119210     5A    -11.118028     6A    -11.116789
       7A    -11.115792     8A    -11.109143     9A    -11.107975
      10A    -11.091900    11A    -11.072779    12A     -1.178947
      13A     -1.083087    14A     -1.032601    15A     -0.929277
      16A     -0.904708    17A     -0.820523    18A     -0.787357
      19A     -0.694724    20A     -0.660700    21A     -0.562411
      22A     -0.533007    23A     -0.523147    24A     -0.500186
      25A     -0.461857    26A     -0.452419    27A     -0.440955
      28A     -0.427678    29A     -0.425104    30A     -0.412148
      31A     -0.382930    32A     -0.374353    33A     -0.364582
      34A     -0.354664    35A     -0.329877    36A     -0.236427
      37A     -0.225451    38A     -0.210582    39A     -0.203970
      40A     -0.178474

  @DF-RHF Final Energy:  -495.99484376858783

   => Energetics <=

    Nuclear Repulsion Energy =            572.3734548019803015
    One-Electron Energy =               -1824.1010364092389864
    Two-Electron Energy =                 755.7327378386709142
    Total Energy =                       -495.9948437685878844
  Basis Set: (AUG-CC-PVTZ AUX)
    Blend: AUG-CC-PVTZ-RI
    Molecular point group: c1

    Geometry (in Angstrom), charge = -1, multiplicity = 1:

       Center              X                  Y                   Z               Mass
    ------------   -----------------  -----------------  -----------------  -----------------
         O           -2.431057933848    -1.443505575514    -0.514744131353    15.994914619570
         O           -2.537090933848     0.840116424486    -0.687584131353    15.994914619570
         C            0.223525066152    -0.169961575514     0.557105868647    12.000000000000
         C            0.855983866152     0.981099924486     0.126108868647    12.000000000000
         C           -1.191343933848    -0.132062575514     1.052731868647    12.000000000000
         C            0.872228066152    -1.405667575514     0.412903868647    12.000000000000
         C            2.211970066152     0.900837424486    -0.329025131353    12.000000000000
         C            0.207845066152     2.338840424486     0.222704868647    12.000000000000
         C            2.176396066152    -1.494038575514    -0.074789131353    12.000000000000
         C            2.856928066152    -0.332796575514    -0.444851131353    12.000000000000
         C           -2.171924933848    -0.259424575514    -0.179895131353    12.000000000000
         H           -1.366110933848    -0.979364575514     1.724539868647     1.007825032230
         H           -1.394801933848     0.797730424486     1.593556868647     1.007825032230
         H            0.322218066152    -2.306672575514     0.677825868647     1.007825032230
         H            2.730399066152     1.809197424486    -0.638552131353     1.007825032230
         H           -0.802582933848     2.245352424486    -0.188944131353     1.007825032230
         H            0.120041066152     2.686423424486     1.260467868647     1.007825032230
         H            0.771090066152     3.093769424486    -0.337112131353     1.007825032230
         H            2.654715066152    -2.467334575514    -0.177239131353     1.007825032230
         H            3.876776066152    -0.385025575514    -0.823530131353     1.007825032230

  Basis Set: AUG-CC-PVTZ
    Blend: AUG-CC-PVTZ
  Basis Set: (AUG-CC-PVTZ AUX)
    Blend: AUG-CC-PVTZ-JKFIT
	 Reference Energy          =    -495.9948437685878275 [Eh]
	 Singles Energy            =      -0.0000000000000000 [Eh]
	 Same-Spin Energy          =      -0.5330452774047452 [Eh]
	 Opposite-Spin Energy      =      -1.6357398363033342 [Eh]
	 Correlation Energy        =      -2.1687851137080791 [Eh]
	 Total Energy              =    -498.1636288822958818 [Eh]

	 ================> DF-SCS-MP2 Energies <==================
	-----------------------------------------------------------
	 SCS Same-Spin Scale       =       0.3333333333333333 [-]
	 SCS Opposite-Spin Scale   =       1.2000000000000000 [-]
	 SCS Same-Spin Energy      =      -0.1776817591349150 [Eh]
	 SCS Opposite-Spin Energy  =      -1.9628878035640009 [Eh]
	 SCS Correlation Energy    =      -2.1405695626989161 [Eh]
	 SCS Total Energy          =    -498.1354133312867702 [Eh]
	-----------------------------------------------------------

  Dipole Moment: [D]
     X:     8.5097      Y:     1.3876      Z:     2.9635     Total:     9.1172

*** Psi4 exiting successfully. Buy a developer a beer!
