                               Psi4 1.4a3.dev225

  ==> Input File <==

--------------------------------------------------------------------------
#psi4
#
memory 32 gb

molecule  {
-1 1
  O       -2.4775990    -1.4732410    -0.5357720
  O       -2.5836320     0.8103810    -0.7086120
  C        0.1769840    -0.1996970     0.5360780
  C        0.8528670     0.9715620     0.1268880
  C       -1.2378850    -0.1617980     1.0317040
  C        0.8256870    -1.4354030     0.3918760
  C        2.1654290     0.8711020    -0.3500530
  C        0.1613040     2.3091050     0.2016770
  C        2.1298550    -1.5237740    -0.0958170
  C        2.8103870    -0.3625320    -0.4658790
  C       -2.2184660    -0.2891600    -0.2009230
  H       -1.4126520    -1.0091000     1.7035120
  H       -1.4413430     0.7679950     1.5725290
  H        0.2756770    -2.3364080     0.6567980
  H        2.6838580     1.7794620    -0.6595800
  H       -0.8491240     2.2156170    -0.2099720
  H        0.0735000     2.6566880     1.2394400
  H        0.7245490     3.0640340    -0.3581400
  H        2.5203532    -2.3183700    -0.1794569
  H        3.8302350    -0.4147610    -0.8445580
units angstrom
no_reorient  #important for SAPT in psi4, default
symmetry c1  #important for SAPT in psi4, default
}

set PROPERTIES_ORIGIN ["COM"]
properties('MP2/aug-cc-pvtz', properties = ['dipole'])
--------------------------------------------------------------------------

    Molecular point group: c1
  Charge       = -1
  Multiplicity = 1
  Basis Set: AUG-CC-PVTZ
    Blend: AUG-CC-PVTZ
  Basis Set: (AUG-CC-PVTZ AUX)
    Blend: AUG-CC-PVTZ-JKFIT

    Orbital Energies [Eh]
    ---------------------

    Doubly Occupied:

       1A    -20.308747     2A    -20.308604     3A    -11.156429
       4A    -11.116653     5A    -11.116391     6A    -11.113347
       7A    -11.111318     8A    -11.105339     9A    -11.091653
      10A    -11.090855    11A    -11.072912    12A     -1.178814
      13A     -1.082969    14A     -1.032683    15A     -0.932477
      16A     -0.907579    17A     -0.825419    18A     -0.791039
      19A     -0.691526    20A     -0.679250    21A     -0.578877
      22A     -0.532564    23A     -0.522140    24A     -0.506591
      25A     -0.461911    26A     -0.460611    27A     -0.442273
      28A     -0.427752    29A     -0.425846    30A     -0.411716
      31A     -0.385065    32A     -0.373700    33A     -0.363397
      34A     -0.353579    35A     -0.332702    36A     -0.234383
      37A     -0.225128    38A     -0.210792    39A     -0.206328
      40A     -0.175406

  @DF-RHF Final Energy:  -495.96313890739452

   => Energetics <=

    Nuclear Repulsion Energy =            573.2105993000336639
    One-Electron Energy =               -1825.6579447314068148
    Two-Electron Energy =                 756.4842065239786280
    Total Energy =                       -495.9631389073945229
  Basis Set: (AUG-CC-PVTZ AUX)
    Blend: AUG-CC-PVTZ-RI
    Molecular point group: c1

    Geometry (in Angstrom), charge = -1, multiplicity = 1:

       Center              X                  Y                   Z               Mass
    ------------   -----------------  -----------------  -----------------  -----------------
         O           -2.433959997855    -1.446339787320    -0.516626868575    15.994914619570
         O           -2.539992997855     0.837282212680    -0.689466868575    15.994914619570
         C            0.220623002145    -0.172795787320     0.555223131425    12.000000000000
         C            0.896506002145     0.998463212680     0.146033131425    12.000000000000
         C           -1.194245997855    -0.134896787320     1.050849131425    12.000000000000
         C            0.869326002145    -1.408501787320     0.411021131425    12.000000000000
         C            2.209068002145     0.898003212680    -0.330907868575    12.000000000000
         C            0.204943002145     2.336006212680     0.220822131425    12.000000000000
         C            2.173494002145    -1.496872787320    -0.076671868575    12.000000000000
         C            2.854026002145    -0.335630787320    -0.446733868575    12.000000000000
         C           -2.174826997855    -0.262258787320    -0.181777868575    12.000000000000
         H           -1.369012997855    -0.982198787320     1.722657131425     1.007825032230
         H           -1.397703997855     0.794896212680     1.591674131425     1.007825032230
         H            0.319316002145    -2.309506787320     0.675943131425     1.007825032230
         H            2.727497002145     1.806363212680    -0.640434868575     1.007825032230
         H           -0.805484997855     2.242518212680    -0.190826868575     1.007825032230
         H            0.117139002145     2.683589212680     1.258585131425     1.007825032230
         H            0.768188002145     3.090935212680    -0.338994868575     1.007825032230
         H            2.563992202145    -2.291468787320    -0.160311768575     1.007825032230
         H            3.873874002145    -0.387859787320    -0.825412868575     1.007825032230

  Basis Set: AUG-CC-PVTZ
    Blend: AUG-CC-PVTZ
  Basis Set: (AUG-CC-PVTZ AUX)
    Blend: AUG-CC-PVTZ-JKFIT
	 Reference Energy          =    -495.9631389073945229 [Eh]
	 Singles Energy            =      -0.0000000000000000 [Eh]
	 Same-Spin Energy          =      -0.5328705350708162 [Eh]
	 Opposite-Spin Energy      =      -1.6349632233020754 [Eh]
	 Correlation Energy        =      -2.1678337583728915 [Eh]
	 Total Energy              =    -498.1309726657673878 [Eh]

	 ================> DF-SCS-MP2 Energies <==================
	-----------------------------------------------------------
	 SCS Same-Spin Scale       =       0.3333333333333333 [-]
	 SCS Opposite-Spin Scale   =       1.2000000000000000 [-]
	 SCS Same-Spin Energy      =      -0.1776235116902720 [Eh]
	 SCS Opposite-Spin Energy  =      -1.9619558679624904 [Eh]
	 SCS Correlation Energy    =      -2.1395793796527625 [Eh]
	 SCS Total Energy          =    -498.1027182870473098 [Eh]
	-----------------------------------------------------------

  Dipole Moment: [D]
     X:     8.5474      Y:     1.3012      Z:     2.9615     Total:     9.1390

*** Psi4 exiting successfully. Buy a developer a beer!
