                               Psi4 1.4a3.dev225

  ==> Input File <==

--------------------------------------------------------------------------
#psi4
#
memory 32 gb

molecule  {
-1 1
  O       -2.4775990    -1.4732410    -0.5357720
  O       -2.5836320     0.8103810    -0.7086120
  C        0.1769840    -0.1996970     0.5360780
  C        0.8528670     0.9715620     0.1268880
  C       -1.2378850    -0.1617980     1.0317040
  C        0.8256870    -1.4354030     0.3918760
  C        2.1654290     0.8711020    -0.3500530
  C        0.1613040     2.3091050     0.2016770
  C        2.1298550    -1.5237740    -0.0958170
  C        2.8103870    -0.3625320    -0.4658790
  C       -2.1510394    -0.1492871    -0.2579169
  H       -1.4126520    -1.0091000     1.7035120
  H       -1.4413430     0.7679950     1.5725290
  H        0.2756770    -2.3364080     0.6567980
  H        2.6838580     1.7794620    -0.6595800
  H       -0.8491240     2.2156170    -0.2099720
  H        0.0735000     2.6566880     1.2394400
  H        0.7245490     3.0640340    -0.3581400
  H        2.6081740    -2.4970700    -0.1982670
  H        3.8302350    -0.4147610    -0.8445580
units angstrom
no_reorient  #important for SAPT in psi4, default
symmetry c1  #important for SAPT in psi4, default
}

set PROPERTIES_ORIGIN ["COM"]
properties('MP2/aug-cc-pvtz', properties = ['dipole'])
--------------------------------------------------------------------------

    Molecular point group: c1
  Charge       = -1
  Multiplicity = 1
  Basis Set: AUG-CC-PVTZ
    Blend: AUG-CC-PVTZ
  Basis Set: (AUG-CC-PVTZ AUX)
    Blend: AUG-CC-PVTZ-JKFIT

    Orbital Energies [Eh]
    ---------------------

    Doubly Occupied:

       1A    -20.341658     2A    -20.276409     3A    -11.154476
       4A    -11.118120     5A    -11.117830     6A    -11.115824
       7A    -11.115443     8A    -11.112805     9A    -11.105496
      10A    -11.098495    11A    -11.075385    12A     -1.244242
      13A     -1.035688    14A     -1.024750    15A     -0.928629
      16A     -0.907814    17A     -0.823003    18A     -0.789970
      19A     -0.689460    20A     -0.664767    21A     -0.562883
      22A     -0.542369    23A     -0.524704    24A     -0.500395
      25A     -0.478659    26A     -0.454537    27A     -0.445475
      28A     -0.434966    29A     -0.428922    30A     -0.414675
      31A     -0.390747    32A     -0.382125    33A     -0.365952
      34A     -0.353707    35A     -0.342695    36A     -0.237449
      37A     -0.209352    38A     -0.201635    39A     -0.191185
      40A     -0.168556

  @DF-RHF Final Energy:  -495.96274589299185

   => Energetics <=

    Nuclear Repulsion Energy =            572.9955662189038321
    One-Electron Energy =               -1825.1741125026210284
    Two-Electron Energy =                 756.2158003907253487
    Total Energy =                       -495.9627458929918475
  Basis Set: (AUG-CC-PVTZ AUX)
    Blend: AUG-CC-PVTZ-RI
    Molecular point group: c1

    Geometry (in Angstrom), charge = -1, multiplicity = 1:

       Center              X                  Y                   Z               Mass
    ------------   -----------------  -----------------  -----------------  -----------------
         O           -2.439981906266    -1.456391940199    -0.511911432580    15.994914619570
         O           -2.546014906266     0.827230059801    -0.684751432580    15.994914619570
         C            0.214601093734    -0.182847940199     0.559938567420    12.000000000000
         C            0.890484093734     0.988411059801     0.150748567420    12.000000000000
         C           -1.200267906266    -0.144948940199     1.055564567420    12.000000000000
         C            0.863304093734    -1.418553940199     0.415736567420    12.000000000000
         C            2.203046093734     0.887951059801    -0.326192432580    12.000000000000
         C            0.198921093734     2.325954059801     0.225537567420    12.000000000000
         C            2.167472093734    -1.506924940199    -0.071956432580    12.000000000000
         C            2.848004093734    -0.345682940199    -0.442018432580    12.000000000000
         C           -2.113422306266    -0.132438040199    -0.234056332580    12.000000000000
         H           -1.375034906266    -0.992250940199     1.727372567420     1.007825032230
         H           -1.403725906266     0.784844059801     1.596389567420     1.007825032230
         H            0.313294093734    -2.319558940199     0.680658567420     1.007825032230
         H            2.721475093734     1.796311059801    -0.635719432580     1.007825032230
         H           -0.811506906266     2.232466059801    -0.186111432580     1.007825032230
         H            0.111117093734     2.673537059801     1.263300567420     1.007825032230
         H            0.762166093734     3.080883059801    -0.334279432580     1.007825032230
         H            2.645791093734    -2.480220940199    -0.174406432580     1.007825032230
         H            3.867852093734    -0.397911940199    -0.820697432580     1.007825032230

  Basis Set: AUG-CC-PVTZ
    Blend: AUG-CC-PVTZ
  Basis Set: (AUG-CC-PVTZ AUX)
    Blend: AUG-CC-PVTZ-JKFIT
	 Reference Energy          =    -495.9627458929918475 [Eh]
	 Singles Energy            =      -0.0000000000000000 [Eh]
	 Same-Spin Energy          =      -0.5333978247796497 [Eh]
	 Opposite-Spin Energy      =      -1.6366109776540139 [Eh]
	 Correlation Energy        =      -2.1700088024336637 [Eh]
	 Total Energy              =    -498.1327546954254899 [Eh]

	 ================> DF-SCS-MP2 Energies <==================
	-----------------------------------------------------------
	 SCS Same-Spin Scale       =       0.3333333333333333 [-]
	 SCS Opposite-Spin Scale   =       1.2000000000000000 [-]
	 SCS Same-Spin Energy      =      -0.1777992749265499 [Eh]
	 SCS Opposite-Spin Energy  =      -1.9639331731848166 [Eh]
	 SCS Correlation Energy    =      -2.1417324481113664 [Eh]
	 SCS Total Energy          =    -498.1044783411032313 [Eh]
	-----------------------------------------------------------

  Dipole Moment: [D]
     X:     8.5146      Y:     2.8126      Z:     2.9278     Total:     9.4330

*** Psi4 exiting successfully. Buy a developer a beer!
