                               Psi4 1.4a3.dev225

  ==> Input File <==

--------------------------------------------------------------------------
#psi4
#
memory 32 gb

molecule  {
-1 1
  O       -2.4775990    -1.4732410    -0.5357720
  O       -2.5836320     0.8103810    -0.7086120
  C        0.1769840    -0.1996970     0.5360780
  C        0.8528670     0.9715620     0.1268880
  C       -1.2378850    -0.1617980     1.0317040
  C        0.8256870    -1.4354030     0.3918760
  C        2.1654290     0.8711020    -0.3500530
  C        0.1613040     2.3091050     0.2016770
  C        2.1298550    -1.5237740    -0.0958170
  C        2.8103870    -0.3625320    -0.4658790
  C       -2.2385873    -0.3355496    -0.1788888
  H       -1.4126520    -1.0091000     1.7035120
  H       -1.4413430     0.7679950     1.5725290
  H        0.2756770    -2.3364080     0.6567980
  H        2.6838580     1.7794620    -0.6595800
  H       -0.8491240     2.2156170    -0.2099720
  H        0.0735000     2.6566880     1.2394400
  H        0.7245490     3.0640340    -0.3581400
  H        2.6081740    -2.4970700    -0.1982670
  H        3.8302350    -0.4147610    -0.8445580
units angstrom
no_reorient  #important for SAPT in psi4, default
symmetry c1  #important for SAPT in psi4, default
}

set PROPERTIES_ORIGIN ["COM"]
properties('MP2/aug-cc-pvtz', properties = ['dipole'])
--------------------------------------------------------------------------

    Molecular point group: c1
  Charge       = -1
  Multiplicity = 1
  Basis Set: AUG-CC-PVTZ
    Blend: AUG-CC-PVTZ
  Basis Set: (AUG-CC-PVTZ AUX)
    Blend: AUG-CC-PVTZ-JKFIT

    Orbital Energies [Eh]
    ---------------------

    Doubly Occupied:

       1A    -20.320327     2A    -20.298418     3A    -11.156477
       4A    -11.118603     5A    -11.117026     6A    -11.116261
       7A    -11.114485     8A    -11.112885     9A    -11.107515
      10A    -11.090274    11A    -11.073894    12A     -1.191255
      13A     -1.072947    14A     -1.032057    15A     -0.926397
      16A     -0.907791    17A     -0.820721    18A     -0.787315
      19A     -0.690168    20A     -0.664320    21A     -0.562741
      22A     -0.533900    23A     -0.522366    24A     -0.499783
      25A     -0.460310    26A     -0.453614    27A     -0.440536
      28A     -0.430137    29A     -0.425451    30A     -0.412430
      31A     -0.384420    32A     -0.374921    33A     -0.364240
      34A     -0.350870    35A     -0.335283    36A     -0.234703
      37A     -0.223733    38A     -0.209675    39A     -0.206499
      40A     -0.175814

  @DF-RHF Final Energy:  -495.99332122249132

   => Energetics <=

    Nuclear Repulsion Energy =            571.7939526353965221
    One-Electron Energy =               -1822.9334225234306359
    Two-Electron Energy =                 755.1461486655426825
    Total Energy =                       -495.9933212224913177
  Basis Set: (AUG-CC-PVTZ AUX)
    Blend: AUG-CC-PVTZ-RI
    Molecular point group: c1

    Geometry (in Angstrom), charge = -1, multiplicity = 1:

       Center              X                  Y                   Z               Mass
    ------------   -----------------  -----------------  -----------------  -----------------
         O           -2.432933918838    -1.441396997335    -0.518273538985    15.994914619570
         O           -2.538966918838     0.842225002665    -0.691113538985    15.994914619570
         C            0.221649081162    -0.167852997335     0.553576461015    12.000000000000
         C            0.897532081162     1.003406002665     0.144386461015    12.000000000000
         C           -1.193219918838    -0.129953997335     1.049202461015    12.000000000000
         C            0.870352081162    -1.403558997335     0.409374461015    12.000000000000
         C            2.210094081162     0.902946002665    -0.332554538985    12.000000000000
         C            0.205969081162     2.340949002665     0.219175461015    12.000000000000
         C            2.174520081162    -1.491929997335    -0.078318538985    12.000000000000
         C            2.855052081162    -0.330687997335    -0.448380538985    12.000000000000
         C           -2.193922218838    -0.303705597335    -0.161390338985    12.000000000000
         H           -1.367986918838    -0.977255997335     1.721010461015     1.007825032230
         H           -1.396677918838     0.799839002665     1.590027461015     1.007825032230
         H            0.320342081162    -2.304563997335     0.674296461015     1.007825032230
         H            2.728523081162     1.811306002665    -0.642081538985     1.007825032230
         H           -0.804458918838     2.247461002665    -0.192473538985     1.007825032230
         H            0.118165081162     2.688532002665     1.256938461015     1.007825032230
         H            0.769214081162     3.095878002665    -0.340641538985     1.007825032230
         H            2.652839081162    -2.465225997335    -0.180768538985     1.007825032230
         H            3.874900081162    -0.382916997335    -0.827059538985     1.007825032230

  Basis Set: AUG-CC-PVTZ
    Blend: AUG-CC-PVTZ
  Basis Set: (AUG-CC-PVTZ AUX)
    Blend: AUG-CC-PVTZ-JKFIT
	 Reference Energy          =    -495.9933212224913177 [Eh]
	 Singles Energy            =      -0.0000000000000000 [Eh]
	 Same-Spin Energy          =      -0.5329949015683597 [Eh]
	 Opposite-Spin Energy      =      -1.6355424220437116 [Eh]
	 Correlation Energy        =      -2.1685373236120711 [Eh]
	 Total Energy              =    -498.1618585461034172 [Eh]

	 ================> DF-SCS-MP2 Energies <==================
	-----------------------------------------------------------
	 SCS Same-Spin Scale       =       0.3333333333333333 [-]
	 SCS Opposite-Spin Scale   =       1.2000000000000000 [-]
	 SCS Same-Spin Energy      =      -0.1776649671894532 [Eh]
	 SCS Opposite-Spin Energy  =      -1.9626509064524538 [Eh]
	 SCS Correlation Energy    =      -2.1403158736419070 [Eh]
	 SCS Total Energy          =    -498.1336370961332136 [Eh]
	-----------------------------------------------------------

  Dipole Moment: [D]
     X:     8.4989      Y:     0.9239      Z:     3.0036     Total:     9.0613

*** Psi4 exiting successfully. Buy a developer a beer!
