                               Psi4 1.4a3.dev225

  ==> Input File <==

--------------------------------------------------------------------------
#psi4
#
memory 32 gb

molecule  {
-1 1
  O       -2.4775990    -1.4732410    -0.5357720
  O       -2.5836320     0.8103810    -0.7086120
  C        0.1769840    -0.1996970     0.5360780
  C        0.8528670     0.9715620     0.1268880
  C       -1.2378850    -0.1617980     1.0317040
  C        0.8256870    -1.4354030     0.3918760
  C        2.1654290     0.8711020    -0.3500530
  C        0.1613040     2.3091050     0.2016770
  C        2.1298550    -1.5237740    -0.0958170
  C        2.8103870    -0.3625320    -0.4658790
  C       -2.2184660    -0.2891600    -0.2009230
  H       -1.4126520    -1.0091000     1.7035120
  H       -1.4413430     0.7679950     1.5725290
  H        0.2756770    -2.3364080     0.6567980
  H        2.6838580     1.7794620    -0.6595800
  H       -0.8491240     2.2156170    -0.2099720
  H        0.0735000     2.6566880     1.2394400
  H        0.7245490     3.0640340    -0.3581400
  H        2.6169561    -2.5149400    -0.2001480
  H        3.8302350    -0.4147610    -0.8445580
units angstrom
no_reorient  #important for SAPT in psi4, default
symmetry c1  #important for SAPT in psi4, default
}

set PROPERTIES_ORIGIN ["COM"]
properties('MP2/aug-cc-pvtz', properties = ['dipole'])
--------------------------------------------------------------------------

    Molecular point group: c1
  Charge       = -1
  Multiplicity = 1
  Basis Set: AUG-CC-PVTZ
    Blend: AUG-CC-PVTZ
  Basis Set: (AUG-CC-PVTZ AUX)
    Blend: AUG-CC-PVTZ-JKFIT

    Orbital Energies [Eh]
    ---------------------

    Doubly Occupied:

       1A    -20.309266     2A    -20.309086     3A    -11.157003
       4A    -11.119220     5A    -11.118030     6A    -11.117309
       7A    -11.114877     8A    -11.112913     9A    -11.107231
      10A    -11.092303    11A    -11.073829    12A     -1.179325
      13A     -1.083469    14A     -1.032311    15A     -0.926681
      16A     -0.907854    17A     -0.820964    18A     -0.787615
      19A     -0.689957    20A     -0.663233    21A     -0.560952
      22A     -0.533209    23A     -0.523369    24A     -0.499097
      25A     -0.461502    26A     -0.452520    27A     -0.439193
      28A     -0.428473    29A     -0.426013    30A     -0.412519
      31A     -0.384207    32A     -0.374822    33A     -0.364876
      34A     -0.351436    35A     -0.332948    36A     -0.235278
      37A     -0.225642    38A     -0.211445    39A     -0.207270
      40A     -0.176364

  @DF-RHF Final Energy:  -495.99657470926644

   => Energetics <=

    Nuclear Repulsion Energy =            571.9199679531913034
    One-Electron Energy =               -1823.1858606467556001
    Two-Electron Energy =                 755.2693179842976861
    Total Energy =                       -495.9965747092664969
  Basis Set: (AUG-CC-PVTZ AUX)
    Blend: AUG-CC-PVTZ-RI
    Molecular point group: c1

    Geometry (in Angstrom), charge = -1, multiplicity = 1:

       Center              X                  Y                   Z               Mass
    ------------   -----------------  -----------------  -----------------  -----------------
         O           -2.434613148630    -1.445010739767    -0.516486972071    15.994914619570
         O           -2.540646148630     0.838611260233    -0.689326972071    15.994914619570
         C            0.219969851370    -0.171466739767     0.555363027929    12.000000000000
         C            0.895852851370     0.999792260233     0.146173027929    12.000000000000
         C           -1.194899148630    -0.133567739767     1.050989027929    12.000000000000
         C            0.868672851370    -1.407172739767     0.411161027929    12.000000000000
         C            2.208414851370     0.899332260233    -0.330767972071    12.000000000000
         C            0.204289851370     2.337335260233     0.220962027929    12.000000000000
         C            2.172840851370    -1.495543739767    -0.076531972071    12.000000000000
         C            2.853372851370    -0.334301739767    -0.446593972071    12.000000000000
         C           -2.175480148630    -0.260929739767    -0.181637972071    12.000000000000
         H           -1.369666148630    -0.980869739767     1.722797027929     1.007825032230
         H           -1.398357148630     0.796225260233     1.591814027929     1.007825032230
         H            0.318662851370    -2.308177739767     0.676083027929     1.007825032230
         H            2.726843851370     1.807692260233    -0.640294972071     1.007825032230
         H           -0.806138148630     2.243847260233    -0.190686972071     1.007825032230
         H            0.116485851370     2.684918260233     1.258725027929     1.007825032230
         H            0.767534851370     3.092264260233    -0.338854972071     1.007825032230
         H            2.659941951370    -2.486709739767    -0.180862972071     1.007825032230
         H            3.873220851370    -0.386530739767    -0.825272972071     1.007825032230

  Basis Set: AUG-CC-PVTZ
    Blend: AUG-CC-PVTZ
  Basis Set: (AUG-CC-PVTZ AUX)
    Blend: AUG-CC-PVTZ-JKFIT
	 Reference Energy          =    -495.9965747092664401 [Eh]
	 Singles Energy            =      -0.0000000000000000 [Eh]
	 Same-Spin Energy          =      -0.5330477166040499 [Eh]
	 Opposite-Spin Energy      =      -1.6356708054559830 [Eh]
	 Correlation Energy        =      -2.1687185220600327 [Eh]
	 Total Energy              =    -498.1652932313264728 [Eh]

	 ================> DF-SCS-MP2 Energies <==================
	-----------------------------------------------------------
	 SCS Same-Spin Scale       =       0.3333333333333333 [-]
	 SCS Opposite-Spin Scale   =       1.2000000000000000 [-]
	 SCS Same-Spin Energy      =      -0.1776825722013500 [Eh]
	 SCS Opposite-Spin Energy  =      -1.9628049665471794 [Eh]
	 SCS Correlation Energy    =      -2.1404875387485292 [Eh]
	 SCS Total Energy          =    -498.1370622480149564 [Eh]
	-----------------------------------------------------------

  Dipole Moment: [D]
     X:     8.4738      Y:     1.4062      Z:     2.9705     Total:     9.0888

*** Psi4 exiting successfully. Buy a developer a beer!
