                               Psi4 1.4a3.dev225

  ==> Input File <==

--------------------------------------------------------------------------
#psi4
#
memory 32 gb

molecule  {
-1 1
  O       -2.4775990    -1.4732410    -0.5357720
  O       -2.5836320     0.8103810    -0.7086120
  C        0.1769840    -0.1996970     0.5360780
  C        0.8528670     0.9715620     0.1268880
  C       -1.2378850    -0.1617980     1.0317040
  C        0.8256870    -1.4354030     0.3918760
  C        2.1654290     0.8711020    -0.3500530
  C        0.1613040     2.3091050     0.2016770
  C        2.1298550    -1.5237740    -0.0958170
  C        2.8103870    -0.3625320    -0.4658790
  C       -2.2805190    -0.2972197    -0.2789260
  H       -1.4126520    -1.0091000     1.7035120
  H       -1.4413430     0.7679950     1.5725290
  H        0.2756770    -2.3364080     0.6567980
  H        2.6838580     1.7794620    -0.6595800
  H       -0.8491240     2.2156170    -0.2099720
  H        0.0735000     2.6566880     1.2394400
  H        0.7245490     3.0640340    -0.3581400
  H        2.6081740    -2.4970700    -0.1982670
  H        3.8302350    -0.4147610    -0.8445580
units angstrom
no_reorient  #important for SAPT in psi4, default
symmetry c1  #important for SAPT in psi4, default
}

set PROPERTIES_ORIGIN ["COM"]
properties('MP2/aug-cc-pvtz', properties = ['dipole'])
--------------------------------------------------------------------------

    Molecular point group: c1
  Charge       = -1
  Multiplicity = 1
  Basis Set: AUG-CC-PVTZ
    Blend: AUG-CC-PVTZ
  Basis Set: (AUG-CC-PVTZ AUX)
    Blend: AUG-CC-PVTZ-JKFIT

    Orbital Energies [Eh]
    ---------------------

    Doubly Occupied:

       1A    -20.319575     2A    -20.319384     3A    -11.163036
       4A    -11.113022     5A    -11.111961     6A    -11.111345
       7A    -11.110313     8A    -11.106976     9A    -11.100722
      10A    -11.089870    11A    -11.060115    12A     -1.207551
      13A     -1.121107    14A     -1.026816    15A     -0.920771
      16A     -0.900692    17A     -0.812575    18A     -0.775425
      19A     -0.683710    20A     -0.656423    21A     -0.555715
      22A     -0.529585    23A     -0.517244    24A     -0.494548
      25A     -0.463769    26A     -0.448912    27A     -0.438207
      28A     -0.437182    29A     -0.426222    30A     -0.409486
      31A     -0.391255    32A     -0.382247    33A     -0.361853
      34A     -0.348485    35A     -0.338657    36A     -0.245661
      37A     -0.230477    38A     -0.227273    39A     -0.203984
      40A     -0.156346

  @DF-RHF Final Energy:  -495.99231366585275

   => Energetics <=

    Nuclear Repulsion Energy =            571.6697525431950453
    One-Electron Energy =               -1822.6871388384627153
    Two-Electron Energy =                 755.0250726294149217
    Total Energy =                       -495.9923136658527483
  Basis Set: (AUG-CC-PVTZ AUX)
    Blend: AUG-CC-PVTZ-RI
    Molecular point group: c1

    Geometry (in Angstrom), charge = -1, multiplicity = 1:

       Center              X                  Y                   Z               Mass
    ------------   -----------------  -----------------  -----------------  -----------------
         O           -2.429558234276    -1.444482721302    -0.510220108486    15.994914619570
         O           -2.535591234276     0.839139278698    -0.683060108486    15.994914619570
         C            0.225024765724    -0.170938721302     0.561629891514    12.000000000000
         C            0.900907765724     1.000320278698     0.152439891514    12.000000000000
         C           -1.189844234276    -0.133039721302     1.057255891514    12.000000000000
         C            0.873727765724    -1.406644721302     0.417427891514    12.000000000000
         C            2.213469765724     0.899860278698    -0.324501108486    12.000000000000
         C            0.209344765724     2.337863278698     0.227228891514    12.000000000000
         C            2.177895765724    -1.495015721302    -0.070265108486    12.000000000000
         C            2.858427765724    -0.333773721302    -0.440327108486    12.000000000000
         C           -2.232478234276    -0.268461421302    -0.253374108486    12.000000000000
         H           -1.364611234276    -0.980341721302     1.729063891514     1.007825032230
         H           -1.393302234276     0.796753278698     1.598080891514     1.007825032230
         H            0.323717765724    -2.307649721302     0.682349891514     1.007825032230
         H            2.731898765724     1.808220278698    -0.634028108486     1.007825032230
         H           -0.801083234276     2.244375278698    -0.184420108486     1.007825032230
         H            0.121540765724     2.685446278698     1.264991891514     1.007825032230
         H            0.772589765724     3.092792278698    -0.332588108486     1.007825032230
         H            2.656214765724    -2.468311721302    -0.172715108486     1.007825032230
         H            3.878275765724    -0.386002721302    -0.819006108486     1.007825032230

  Basis Set: AUG-CC-PVTZ
    Blend: AUG-CC-PVTZ
  Basis Set: (AUG-CC-PVTZ AUX)
    Blend: AUG-CC-PVTZ-JKFIT
	 Reference Energy          =    -495.9923136658527483 [Eh]
	 Singles Energy            =      -0.0000000000000000 [Eh]
	 Same-Spin Energy          =      -0.5326998090910380 [Eh]
	 Opposite-Spin Energy      =      -1.6337277359647620 [Eh]
	 Correlation Energy        =      -2.1664275450558002 [Eh]
	 Total Energy              =    -498.1587412109085449 [Eh]

	 ================> DF-SCS-MP2 Energies <==================
	-----------------------------------------------------------
	 SCS Same-Spin Scale       =       0.3333333333333333 [-]
	 SCS Opposite-Spin Scale   =       1.2000000000000000 [-]
	 SCS Same-Spin Energy      =      -0.1775666030303460 [Eh]
	 SCS Opposite-Spin Energy  =      -1.9604732831577143 [Eh]
	 SCS Correlation Energy    =      -2.1380398861880603 [Eh]
	 SCS Total Energy          =    -498.1303535520407877 [Eh]
	-----------------------------------------------------------

  Dipole Moment: [D]
     X:     7.5950      Y:     1.3127      Z:     2.4340     Total:     8.0828

*** Psi4 exiting successfully. Buy a developer a beer!
