                               Psi4 1.4a3.dev225

  ==> Input File <==

--------------------------------------------------------------------------
#psi4
#
memory 32 gb

molecule  {
-1 1
  O       -2.4775990    -1.4732410    -0.5357720
  O       -2.5836320     0.8103810    -0.7086120
  C        0.1769840    -0.1996970     0.5360780
  C        0.8528670     0.9715620     0.1268880
  C       -1.2378850    -0.1617980     1.0317040
  C        0.8256870    -1.4354030     0.3918760
  C        2.1654290     0.8711020    -0.3500530
  C        0.1613040     2.3091050     0.2016770
  C        2.1298550    -1.5237740    -0.0958170
  C        2.7873011    -0.3183748    -0.4617331
  C       -2.2184660    -0.2891600    -0.2009230
  H       -1.4126520    -1.0091000     1.7035120
  H       -1.4413430     0.7679950     1.5725290
  H        0.2756770    -2.3364080     0.6567980
  H        2.6838580     1.7794620    -0.6595800
  H       -0.8491240     2.2156170    -0.2099720
  H        0.0735000     2.6566880     1.2394400
  H        0.7245490     3.0640340    -0.3581400
  H        2.6081740    -2.4970700    -0.1982670
  H        3.8302350    -0.4147610    -0.8445580
units angstrom
no_reorient  #important for SAPT in psi4, default
symmetry c1  #important for SAPT in psi4, default
}

set PROPERTIES_ORIGIN ["COM"]
properties('MP2/aug-cc-pvtz', properties = ['dipole'])
--------------------------------------------------------------------------

    Molecular point group: c1
  Charge       = -1
  Multiplicity = 1
  Basis Set: AUG-CC-PVTZ
    Blend: AUG-CC-PVTZ
  Basis Set: (AUG-CC-PVTZ AUX)
    Blend: AUG-CC-PVTZ-JKFIT

    Orbital Energies [Eh]
    ---------------------

    Doubly Occupied:

       1A    -20.308935     2A    -20.308839     3A    -11.156639
       4A    -11.118398     5A    -11.117331     6A    -11.116561
       7A    -11.111633     8A    -11.109804     9A    -11.107718
      10A    -11.092041    11A    -11.073385    12A     -1.179039
      13A     -1.083189    14A     -1.034930    15A     -0.925409
      16A     -0.911400    17A     -0.824417    18A     -0.784610
      19A     -0.688812    20A     -0.664624    21A     -0.562317
      22A     -0.532487    23A     -0.524573    24A     -0.497797
      25A     -0.461901    26A     -0.457921    27A     -0.436058
      28A     -0.427992    29A     -0.425455    30A     -0.411487
      31A     -0.385318    32A     -0.371040    33A     -0.366193
      34A     -0.352971    35A     -0.332075    36A     -0.236671
      37A     -0.225473    38A     -0.211947    39A     -0.208010
      40A     -0.174972

  @DF-RHF Final Energy:  -495.99412384938609

   => Energetics <=

    Nuclear Repulsion Energy =            572.6014867498761305
    One-Electron Energy =               -1824.5504808916307411
    Two-Electron Energy =                 755.9548702923685823
    Total Energy =                       -495.9941238493860283
  Basis Set: (AUG-CC-PVTZ AUX)
    Blend: AUG-CC-PVTZ-RI
    Molecular point group: c1

    Geometry (in Angstrom), charge = -1, multiplicity = 1:

       Center              X                  Y                   Z               Mass
    ------------   -----------------  -----------------  -----------------  -----------------
         O           -2.432695255620    -1.448686409281    -0.516833452889    15.994914619570
         O           -2.538728255620     0.834935590719    -0.689673452889    15.994914619570
         C            0.221887744380    -0.175142409281     0.555016547111    12.000000000000
         C            0.897770744380     0.996116590719     0.145826547111    12.000000000000
         C           -1.192981255620    -0.137243409281     1.050642547111    12.000000000000
         C            0.870590744380    -1.410848409281     0.410814547111    12.000000000000
         C            2.210332744380     0.895656590719    -0.331114452889    12.000000000000
         C            0.206207744380     2.333659590719     0.220615547111    12.000000000000
         C            2.174758744380    -1.499219409281    -0.076878452889    12.000000000000
         C            2.832204844380    -0.293820209281    -0.442794552889    12.000000000000
         C           -2.173562255620    -0.264605409281    -0.181984452889    12.000000000000
         H           -1.367748255620    -0.984545409281     1.722450547111     1.007825032230
         H           -1.396439255620     0.792549590719     1.591467547111     1.007825032230
         H            0.320580744380    -2.311853409281     0.675736547111     1.007825032230
         H            2.728761744380     1.804016590719    -0.640641452889     1.007825032230
         H           -0.804220255620     2.240171590719    -0.191033452889     1.007825032230
         H            0.118403744380     2.681242590719     1.258378547111     1.007825032230
         H            0.769452744380     3.088588590719    -0.339201452889     1.007825032230
         H            2.653077744380    -2.472515409281    -0.179328452889     1.007825032230
         H            3.875138744380    -0.390206409281    -0.825619452889     1.007825032230

  Basis Set: AUG-CC-PVTZ
    Blend: AUG-CC-PVTZ
  Basis Set: (AUG-CC-PVTZ AUX)
    Blend: AUG-CC-PVTZ-JKFIT
	 Reference Energy          =    -495.9941238493860851 [Eh]
	 Singles Energy            =      -0.0000000000000000 [Eh]
	 Same-Spin Energy          =      -0.5330290683311486 [Eh]
	 Opposite-Spin Energy      =      -1.6355488483409943 [Eh]
	 Correlation Energy        =      -2.1685779166721431 [Eh]
	 Total Energy              =    -498.1627017660582055 [Eh]

	 ================> DF-SCS-MP2 Energies <==================
	-----------------------------------------------------------
	 SCS Same-Spin Scale       =       0.3333333333333333 [-]
	 SCS Opposite-Spin Scale   =       1.2000000000000000 [-]
	 SCS Same-Spin Energy      =      -0.1776763561103828 [Eh]
	 SCS Opposite-Spin Energy  =      -1.9626586180091932 [Eh]
	 SCS Correlation Energy    =      -2.1403349741195759 [Eh]
	 SCS Total Energy          =    -498.1344588235056676 [Eh]
	-----------------------------------------------------------

  Dipole Moment: [D]
     X:     8.4861      Y:     1.3987      Z:     2.9732     Total:     9.1000

*** Psi4 exiting successfully. Buy a developer a beer!
