                               Psi4 1.4a3.dev225

  ==> Input File <==

--------------------------------------------------------------------------
#psi4
#
memory 32 gb

molecule  {
-1 1
  O       -2.4775990    -1.4732410    -0.5357720
  O       -2.5836320     0.8103810    -0.7086120
  C        0.1769840    -0.1996970     0.5360780
  C        0.8528670     0.9715620     0.1268880
  C       -1.2378850    -0.1617980     1.0317040
  C        0.8256870    -1.4354030     0.3918760
  C        2.1654290     0.8711020    -0.3500530
  C        0.1613040     2.3091050     0.2016770
  C        2.0363779    -1.5174399    -0.0608613
  C        2.8103870    -0.3625320    -0.4658790
  C       -2.2184660    -0.2891600    -0.2009230
  H       -1.4126520    -1.0091000     1.7035120
  H       -1.4413430     0.7679950     1.5725290
  H        0.2756770    -2.3364080     0.6567980
  H        2.6838580     1.7794620    -0.6595800
  H       -0.8491240     2.2156170    -0.2099720
  H        0.0735000     2.6566880     1.2394400
  H        0.7245490     3.0640340    -0.3581400
  H        2.6081740    -2.4970700    -0.1982670
  H        3.8302350    -0.4147610    -0.8445580
units angstrom
no_reorient  #important for SAPT in psi4, default
symmetry c1  #important for SAPT in psi4, default
}

set PROPERTIES_ORIGIN ["COM"]
properties('MP2/aug-cc-pvtz', properties = ['dipole'])
--------------------------------------------------------------------------

    Molecular point group: c1
  Charge       = -1
  Multiplicity = 1
  Basis Set: AUG-CC-PVTZ
    Blend: AUG-CC-PVTZ
  Basis Set: (AUG-CC-PVTZ AUX)
    Blend: AUG-CC-PVTZ-JKFIT

    Orbital Energies [Eh]
    ---------------------

    Doubly Occupied:

       1A    -20.309596     2A    -20.309463     3A    -11.157559
       4A    -11.121409     5A    -11.116678     6A    -11.114824
       7A    -11.114081     8A    -11.112889     9A    -11.095485
      10A    -11.091230    11A    -11.074063    12A     -1.179699
      13A     -1.083823    14A     -1.037667    15A     -0.927252
      16A     -0.912614    17A     -0.827835    18A     -0.781865
      19A     -0.689250    20A     -0.663336    21A     -0.560258
      22A     -0.533709    23A     -0.527221    24A     -0.497034
      25A     -0.464728    26A     -0.458847    27A     -0.432089
      28A     -0.428297    29A     -0.422164    30A     -0.413145
      31A     -0.384103    32A     -0.376038    33A     -0.369071
      34A     -0.341643    35A     -0.334402    36A     -0.233369
      37A     -0.226013    38A     -0.221932    39A     -0.210090
      40A     -0.171062

  @DF-RHF Final Energy:  -495.98347119253799

   => Energetics <=

    Nuclear Repulsion Energy =            573.3641878280991477
    One-Electron Energy =               -1826.0436524200590611
    Two-Electron Energy =                 756.6959933994219227
    Total Energy =                       -495.9834711925379906
  Basis Set: (AUG-CC-PVTZ AUX)
    Blend: AUG-CC-PVTZ-RI
    Molecular point group: c1

    Geometry (in Angstrom), charge = -1, multiplicity = 1:

       Center              X                  Y                   Z               Mass
    ------------   -----------------  -----------------  -----------------  -----------------
         O           -2.427028457300    -1.445641484921    -0.519313776039    15.994914619570
         O           -2.533061457300     0.837980515079    -0.692153776039    15.994914619570
         C            0.227554542700    -0.172097484921     0.552536223961    12.000000000000
         C            0.903437542700     0.999161515079     0.143346223961    12.000000000000
         C           -1.187314457300    -0.134198484921     1.048162223961    12.000000000000
         C            0.876257542700    -1.407803484921     0.408334223961    12.000000000000
         C            2.215999542700     0.898701515079    -0.333594776039    12.000000000000
         C            0.211874542700     2.336704515079     0.218135223961    12.000000000000
         C            2.086948442700    -1.489840384921    -0.044403076039    12.000000000000
         C            2.860957542700    -0.334932484921    -0.449420776039    12.000000000000
         C           -2.167895457300    -0.261560484921    -0.184464776039    12.000000000000
         H           -1.362081457300    -0.981500484921     1.719970223961     1.007825032230
         H           -1.390772457300     0.795594515079     1.588987223961     1.007825032230
         H            0.326247542700    -2.308808484921     0.673256223961     1.007825032230
         H            2.734428542700     1.807061515079    -0.643121776039     1.007825032230
         H           -0.798553457300     2.243216515079    -0.193513776039     1.007825032230
         H            0.124070542700     2.684287515079     1.255898223961     1.007825032230
         H            0.775119542700     3.091633515079    -0.341681776039     1.007825032230
         H            2.658744542700    -2.469470484921    -0.181808776039     1.007825032230
         H            3.880805542700    -0.387161484921    -0.828099776039     1.007825032230

  Basis Set: AUG-CC-PVTZ
    Blend: AUG-CC-PVTZ
  Basis Set: (AUG-CC-PVTZ AUX)
    Blend: AUG-CC-PVTZ-JKFIT
	 Reference Energy          =    -495.9834711925379906 [Eh]
	 Singles Energy            =      -0.0000000000000000 [Eh]
	 Same-Spin Energy          =      -0.5330498947673483 [Eh]
	 Opposite-Spin Energy      =      -1.6359692042959963 [Eh]
	 Correlation Energy        =      -2.1690190990633447 [Eh]
	 Total Energy              =    -498.1524902916013389 [Eh]

	 ================> DF-SCS-MP2 Energies <==================
	-----------------------------------------------------------
	 SCS Same-Spin Scale       =       0.3333333333333333 [-]
	 SCS Opposite-Spin Scale   =       1.2000000000000000 [-]
	 SCS Same-Spin Energy      =      -0.1776832982557828 [Eh]
	 SCS Opposite-Spin Energy  =      -1.9631630451551956 [Eh]
	 SCS Correlation Energy    =      -2.1408463434109781 [Eh]
	 SCS Total Energy          =    -498.1243175359489896 [Eh]
	-----------------------------------------------------------

  Dipole Moment: [D]
     X:     8.4275      Y:     1.4113      Z:     2.9903     Total:     9.0529

*** Psi4 exiting successfully. Buy a developer a beer!
