                               Psi4 1.4a3.dev225

  ==> Input File <==

--------------------------------------------------------------------------
#psi4
#
memory 32 gb

molecule  {
-1 1
  O       -2.4775990    -1.4732410    -0.5357720
  O       -2.5836320     0.8103810    -0.7086120
  C        0.1769840    -0.1996970     0.5360780
  C        0.9313912     0.9152343     0.1072424
  C       -1.2378850    -0.1617980     1.0317040
  C        0.8256870    -1.4354030     0.3918760
  C        2.1654290     0.8711020    -0.3500530
  C        0.1613040     2.3091050     0.2016770
  C        2.1298550    -1.5237740    -0.0958170
  C        2.8103870    -0.3625320    -0.4658790
  C       -2.2184660    -0.2891600    -0.2009230
  H       -1.4126520    -1.0091000     1.7035120
  H       -1.4413430     0.7679950     1.5725290
  H        0.2756770    -2.3364080     0.6567980
  H        2.6838580     1.7794620    -0.6595800
  H       -0.8491240     2.2156170    -0.2099720
  H        0.0735000     2.6566880     1.2394400
  H        0.7245490     3.0640340    -0.3581400
  H        2.6081740    -2.4970700    -0.1982670
  H        3.8302350    -0.4147610    -0.8445580
units angstrom
no_reorient  #important for SAPT in psi4, default
symmetry c1  #important for SAPT in psi4, default
}

set PROPERTIES_ORIGIN ["COM"]
properties('MP2/aug-cc-pvtz', properties = ['dipole'])
--------------------------------------------------------------------------

    Molecular point group: c1
  Charge       = -1
  Multiplicity = 1
  Basis Set: AUG-CC-PVTZ
    Blend: AUG-CC-PVTZ
  Basis Set: (AUG-CC-PVTZ AUX)
    Blend: AUG-CC-PVTZ-JKFIT

    Orbital Energies [Eh]
    ---------------------

    Doubly Occupied:

       1A    -20.309695     2A    -20.309529     3A    -11.157776
       4A    -11.117966     5A    -11.116059     6A    -11.114376
       7A    -11.111271     8A    -11.105668     9A    -11.105497
      10A    -11.093302    11A    -11.076469    12A     -1.179773
      13A     -1.083866    14A     -1.040124    15A     -0.920551
      16A     -0.912929    17A     -0.815245    18A     -0.790005
      19A     -0.691015    20A     -0.669950    21A     -0.564098
      22A     -0.533544    23A     -0.524758    24A     -0.498156
      25A     -0.460136    26A     -0.454035    27A     -0.437060
      28A     -0.428267    29A     -0.421885    30A     -0.409665
      31A     -0.386569    32A     -0.376244    33A     -0.371266
      34A     -0.341767    35A     -0.327516    36A     -0.235021
      37A     -0.226111    38A     -0.219594    39A     -0.209956
      40A     -0.176314

  @DF-RHF Final Energy:  -495.98681736666242

   => Energetics <=

    Nuclear Repulsion Energy =            572.4028842123676668
    One-Electron Energy =               -1824.1333505833058553
    Two-Electron Energy =                 755.7436490042758805
    Total Energy =                       -495.9868173666624216
  Basis Set: (AUG-CC-PVTZ AUX)
    Blend: AUG-CC-PVTZ-RI
    Molecular point group: c1

    Geometry (in Angstrom), charge = -1, multiplicity = 1:

       Center              X                  Y                   Z               Mass
    ------------   -----------------  -----------------  -----------------  -----------------
         O           -2.440875311423    -1.440596936981    -0.514918133471    15.994914619570
         O           -2.546908311423     0.843025063019    -0.687758133471    15.994914619570
         C            0.213707688577    -0.167052936981     0.556931866529    12.000000000000
         C            0.968114888577     0.947878363019     0.128096266529    12.000000000000
         C           -1.201161311423    -0.129153936981     1.052557866529    12.000000000000
         C            0.862410688577    -1.402758936981     0.412729866529    12.000000000000
         C            2.202152688577     0.903746063019    -0.329199133471    12.000000000000
         C            0.198027688577     2.341749063019     0.222530866529    12.000000000000
         C            2.166578688577    -1.491129936981    -0.074963133471    12.000000000000
         C            2.847110688577    -0.329887936981    -0.445025133471    12.000000000000
         C           -2.181742311423    -0.256515936981    -0.180069133471    12.000000000000
         H           -1.375928311423    -0.976455936981     1.724365866529     1.007825032230
         H           -1.404619311423     0.800639063019     1.593382866529     1.007825032230
         H            0.312400688577    -2.303763936981     0.677651866529     1.007825032230
         H            2.720581688577     1.812106063019    -0.638726133471     1.007825032230
         H           -0.812400311423     2.248261063019    -0.189118133471     1.007825032230
         H            0.110223688577     2.689332063019     1.260293866529     1.007825032230
         H            0.761272688577     3.096678063019    -0.337286133471     1.007825032230
         H            2.644897688577    -2.464425936981    -0.177413133471     1.007825032230
         H            3.866958688577    -0.382116936981    -0.823704133471     1.007825032230

  Basis Set: AUG-CC-PVTZ
    Blend: AUG-CC-PVTZ
  Basis Set: (AUG-CC-PVTZ AUX)
    Blend: AUG-CC-PVTZ-JKFIT
	 Reference Energy          =    -495.9868173666624216 [Eh]
	 Singles Energy            =      -0.0000000000000000 [Eh]
	 Same-Spin Energy          =      -0.5325149489173311 [Eh]
	 Opposite-Spin Energy      =      -1.6352168772939066 [Eh]
	 Correlation Energy        =      -2.1677318262112379 [Eh]
	 Total Energy              =    -498.1545491928736737 [Eh]

	 ================> DF-SCS-MP2 Energies <==================
	-----------------------------------------------------------
	 SCS Same-Spin Scale       =       0.3333333333333333 [-]
	 SCS Opposite-Spin Scale   =       1.2000000000000000 [-]
	 SCS Same-Spin Energy      =      -0.1775049829724437 [Eh]
	 SCS Opposite-Spin Energy  =      -1.9622602527526878 [Eh]
	 SCS Correlation Energy    =      -2.1397652357251316 [Eh]
	 SCS Total Energy          =    -498.1265826023875434 [Eh]
	-----------------------------------------------------------

  Dipole Moment: [D]
     X:     8.5230      Y:     1.2598      Z:     2.9601     Total:     9.1099

*** Psi4 exiting successfully. Buy a developer a beer!
