                               Psi4 1.4a3.dev225

  ==> Input File <==

--------------------------------------------------------------------------
#psi4
#
memory 32 gb

molecule  {
-1 1
  O       -2.4775990    -1.4732410    -0.5357720
  O       -2.5836320     0.8103810    -0.7086120
  C        0.1769840    -0.1996970     0.5360780
  C        0.8528670     0.9715620     0.1268880
  C       -1.2378850    -0.1617980     1.0317040
  C        0.8256870    -1.4354030     0.3918760
  C        2.1654290     0.8711020    -0.3500530
  C        0.1613040     2.3091050     0.2016770
  C        2.1765936    -1.5269410    -0.1132949
  C        2.8103870    -0.3625320    -0.4658790
  C       -2.2184660    -0.2891600    -0.2009230
  H       -1.4126520    -1.0091000     1.7035120
  H       -1.4413430     0.7679950     1.5725290
  H        0.2756770    -2.3364080     0.6567980
  H        2.6838580     1.7794620    -0.6595800
  H       -0.8491240     2.2156170    -0.2099720
  H        0.0735000     2.6566880     1.2394400
  H        0.7245490     3.0640340    -0.3581400
  H        2.6081740    -2.4970700    -0.1982670
  H        3.8302350    -0.4147610    -0.8445580
units angstrom
no_reorient  #important for SAPT in psi4, default
symmetry c1  #important for SAPT in psi4, default
}

set PROPERTIES_ORIGIN ["COM"]
properties('MP2/aug-cc-pvtz', properties = ['dipole'])
--------------------------------------------------------------------------

    Molecular point group: c1
  Charge       = -1
  Multiplicity = 1
  Basis Set: AUG-CC-PVTZ
    Blend: AUG-CC-PVTZ
  Basis Set: (AUG-CC-PVTZ AUX)
    Blend: AUG-CC-PVTZ-JKFIT

    Orbital Energies [Eh]
    ---------------------

    Doubly Occupied:

       1A    -20.309109     2A    -20.308792     3A    -11.156667
       4A    -11.118969     5A    -11.117324     6A    -11.115979
       7A    -11.113944     8A    -11.112657     9A    -11.111334
      10A    -11.092757    11A    -11.073596    12A     -1.179087
      13A     -1.083242    14A     -1.030526    15A     -0.929292
      16A     -0.904410    17A     -0.818200    18A     -0.790288
      19A     -0.690484    20A     -0.664549    21A     -0.563695
      22A     -0.532865    23A     -0.522318    24A     -0.501129
      25A     -0.461354    26A     -0.451271    27A     -0.443636
      28A     -0.428006    29A     -0.426305    30A     -0.411535
      31A     -0.385046    32A     -0.372507    33A     -0.363430
      34A     -0.354433    35A     -0.331262    36A     -0.236636
      37A     -0.225444    38A     -0.210411    39A     -0.202568
      40A     -0.178582

  @DF-RHF Final Energy:  -495.99421864289195

   => Energetics <=

    Nuclear Repulsion Energy =            571.4079674580228811
    One-Electron Energy =               -1822.1570936612124569
    Two-Electron Energy =                 754.7549075602975108
    Total Energy =                       -495.9942186428919513
  Basis Set: (AUG-CC-PVTZ AUX)
    Blend: AUG-CC-PVTZ-RI
    Molecular point group: c1

    Geometry (in Angstrom), charge = -1, multiplicity = 1:

       Center              X                  Y                   Z               Mass
    ------------   -----------------  -----------------  -----------------  -----------------
         O           -2.438316432121    -1.444876604972    -0.515092642766    15.994914619570
         O           -2.544349432121     0.838745395028    -0.687932642766    15.994914619570
         C            0.216266567879    -0.171332604972     0.556757357234    12.000000000000
         C            0.892149567879     0.999926395028     0.147567357234    12.000000000000
         C           -1.198602432121    -0.133433604972     1.052383357234    12.000000000000
         C            0.864969567879    -1.407038604972     0.412555357234    12.000000000000
         C            2.204711567879     0.899466395028    -0.329373642766    12.000000000000
         C            0.200586567879     2.337469395028     0.222356357234    12.000000000000
         C            2.215876167879    -1.498576604972    -0.092615542766    12.000000000000
         C            2.849669567879    -0.334167604972    -0.445199642766    12.000000000000
         C           -2.179183432121    -0.260795604972    -0.180243642766    12.000000000000
         H           -1.373369432121    -0.980735604972     1.724191357234     1.007825032230
         H           -1.402060432121     0.796359395028     1.593208357234     1.007825032230
         H            0.314959567879    -2.308043604972     0.677477357234     1.007825032230
         H            2.723140567879     1.807826395028    -0.638900642766     1.007825032230
         H           -0.809841432121     2.243981395028    -0.189292642766     1.007825032230
         H            0.112782567879     2.685052395028     1.260119357234     1.007825032230
         H            0.763831567879     3.092398395028    -0.337460642766     1.007825032230
         H            2.647456567879    -2.468705604972    -0.177587642766     1.007825032230
         H            3.869517567879    -0.386396604972    -0.823878642766     1.007825032230

  Basis Set: AUG-CC-PVTZ
    Blend: AUG-CC-PVTZ
  Basis Set: (AUG-CC-PVTZ AUX)
    Blend: AUG-CC-PVTZ-JKFIT
	 Reference Energy          =    -495.9942186428919513 [Eh]
	 Singles Energy            =      -0.0000000000000000 [Eh]
	 Same-Spin Energy          =      -0.5328769109775751 [Eh]
	 Opposite-Spin Energy      =      -1.6356802123496570 [Eh]
	 Correlation Energy        =      -2.1685571233272318 [Eh]
	 Total Energy              =    -498.1627757662191698 [Eh]

	 ================> DF-SCS-MP2 Energies <==================
	-----------------------------------------------------------
	 SCS Same-Spin Scale       =       0.3333333333333333 [-]
	 SCS Opposite-Spin Scale   =       1.2000000000000000 [-]
	 SCS Same-Spin Energy      =      -0.1776256369925250 [Eh]
	 SCS Opposite-Spin Energy  =      -1.9628162548195882 [Eh]
	 SCS Correlation Energy    =      -2.1404418918121131 [Eh]
	 SCS Total Energy          =    -498.1346605347040395 [Eh]
	-----------------------------------------------------------

  Dipole Moment: [D]
     X:     8.5061      Y:     1.3888      Z:     2.9596     Total:     9.1127

*** Psi4 exiting successfully. Buy a developer a beer!
