                               Psi4 1.4a3.dev225

  ==> Input File <==

--------------------------------------------------------------------------
#psi4
#
memory 32 gb

molecule  {
-1 1
  O       -2.4775990    -1.4732410    -0.5357720
  O       -2.5836320     0.8103810    -0.7086120
  C        0.1769840    -0.1996970     0.5360780
  C        0.8528670     0.9715620     0.1268880
  C       -1.2378850    -0.1617980     1.0317040
  C        0.8256870    -1.4354030     0.3918760
  C        2.1654290     0.8711020    -0.3500530
  C        0.1613040     2.3091050     0.2016770
  C        2.1298550    -1.5237740    -0.0958170
  C        2.8103870    -0.3625320    -0.4658790
  C       -2.2184660    -0.2891600    -0.2009230
  H       -1.4126520    -1.0091000     1.7035120
  H       -1.4413430     0.7679950     1.5725290
  H        0.2756770    -2.3364080     0.6567980
  H        2.6838580     1.7794620    -0.6595800
  H       -0.8491240     2.2156170    -0.2099720
  H        0.0735000     2.6566880     1.2394400
  H        0.7245490     3.0640340    -0.3581400
  H        2.6301292    -2.5417450    -0.2029695
  H        3.8302350    -0.4147610    -0.8445580
units angstrom
no_reorient  #important for SAPT in psi4, default
symmetry c1  #important for SAPT in psi4, default
}

set PROPERTIES_ORIGIN ["COM"]
properties('MP2/aug-cc-pvtz', properties = ['dipole'])
--------------------------------------------------------------------------

    Molecular point group: c1
  Charge       = -1
  Multiplicity = 1
  Basis Set: AUG-CC-PVTZ
    Blend: AUG-CC-PVTZ
  Basis Set: (AUG-CC-PVTZ AUX)
    Blend: AUG-CC-PVTZ-JKFIT

    Orbital Energies [Eh]
    ---------------------

    Doubly Occupied:

       1A    -20.309369     2A    -20.309183     3A    -11.157116
       4A    -11.122467     5A    -11.118823     6A    -11.117519
       7A    -11.115166     8A    -11.113208     9A    -11.107636
      10A    -11.092444    11A    -11.074003    12A     -1.179427
      13A     -1.083569    14A     -1.032462    15A     -0.926398
      16A     -0.907990    17A     -0.820760    18A     -0.787380
      19A     -0.690112    20A     -0.661785    21A     -0.558994
      22A     -0.533336    23A     -0.523628    24A     -0.498237
      25A     -0.461657    26A     -0.451524    27A     -0.437892
      28A     -0.428616    29A     -0.425962    30A     -0.412684
      31A     -0.384037    32A     -0.375042    33A     -0.365175
      34A     -0.351003    35A     -0.332972    36A     -0.235455
      37A     -0.225744    38A     -0.211591    39A     -0.207474
      40A     -0.176555

  @DF-RHF Final Energy:  -495.99477239725024

   => Energetics <=

    Nuclear Repulsion Energy =            571.7696061855704102
    One-Electron Energy =               -1822.8799734286337753
    Two-Electron Energy =                 755.1155948458131206
    Total Energy =                       -495.9947723972502445
  Basis Set: (AUG-CC-PVTZ AUX)
    Blend: AUG-CC-PVTZ-RI
    Molecular point group: c1

    Geometry (in Angstrom), charge = -1, multiplicity = 1:

       Center              X                  Y                   Z               Mass
    ------------   -----------------  -----------------  -----------------  -----------------
         O           -2.434702214491    -1.444829506009    -0.516467895367    15.994914619570
         O           -2.540735214491     0.838792493991    -0.689307895367    15.994914619570
         C            0.219880785509    -0.171285506009     0.555382104633    12.000000000000
         C            0.895763785509     0.999973493991     0.146192104633    12.000000000000
         C           -1.194988214491    -0.133386506009     1.051008104633    12.000000000000
         C            0.868583785509    -1.406991506009     0.411180104633    12.000000000000
         C            2.208325785509     0.899513493991    -0.330748895367    12.000000000000
         C            0.204200785509     2.337516493991     0.220981104633    12.000000000000
         C            2.172751785509    -1.495362506009    -0.076512895367    12.000000000000
         C            2.853283785509    -0.334120506009    -0.446574895367    12.000000000000
         C           -2.175569214491    -0.260748506009    -0.181618895367    12.000000000000
         H           -1.369755214491    -0.980688506009     1.722816104633     1.007825032230
         H           -1.398446214491     0.796406493991     1.591833104633     1.007825032230
         H            0.318573785509    -2.307996506009     0.676102104633     1.007825032230
         H            2.726754785509     1.807873493991    -0.640275895367     1.007825032230
         H           -0.806227214491     2.244028493991    -0.190667895367     1.007825032230
         H            0.116396785509     2.685099493991     1.258744104633     1.007825032230
         H            0.767445785509     3.092445493991    -0.338835895367     1.007825032230
         H            2.673025985509    -2.513333506009    -0.183665395367     1.007825032230
         H            3.873131785509    -0.386349506009    -0.825253895367     1.007825032230

  Basis Set: AUG-CC-PVTZ
    Blend: AUG-CC-PVTZ
  Basis Set: (AUG-CC-PVTZ AUX)
    Blend: AUG-CC-PVTZ-JKFIT
	 Reference Energy          =    -495.9947723972502445 [Eh]
	 Singles Energy            =      -0.0000000000000000 [Eh]
	 Same-Spin Energy          =      -0.5331031991661557 [Eh]
	 Opposite-Spin Energy      =      -1.6359395571457722 [Eh]
	 Correlation Energy        =      -2.1690427563119279 [Eh]
	 Total Energy              =    -498.1638151535621546 [Eh]

	 ================> DF-SCS-MP2 Energies <==================
	-----------------------------------------------------------
	 SCS Same-Spin Scale       =       0.3333333333333333 [-]
	 SCS Opposite-Spin Scale   =       1.2000000000000000 [-]
	 SCS Same-Spin Energy      =      -0.1777010663887185 [Eh]
	 SCS Opposite-Spin Energy  =      -1.9631274685749265 [Eh]
	 SCS Correlation Energy    =      -2.1408285349636449 [Eh]
	 SCS Total Energy          =    -498.1356009322138902 [Eh]
	-----------------------------------------------------------

  Dipole Moment: [D]
     X:     8.4588      Y:     1.4285      Z:     2.9726     Total:     9.0790

*** Psi4 exiting successfully. Buy a developer a beer!
