                               Psi4 1.4a3.dev225

  ==> Input File <==

--------------------------------------------------------------------------
#psi4
#
memory 32 gb

molecule  {
-1 1
  O       -2.4775990    -1.4732410    -0.5357720
  O       -2.5836320     0.8103810    -0.7086120
  C        0.1769840    -0.1996970     0.5360780
  C        0.9778778     1.0418238     0.1927489
  C       -1.2378850    -0.1617980     1.0317040
  C        0.8256870    -1.4354030     0.3918760
  C        2.1654290     0.8711020    -0.3500530
  C        0.1613040     2.3091050     0.2016770
  C        2.1298550    -1.5237740    -0.0958170
  C        2.8103870    -0.3625320    -0.4658790
  C       -2.2184660    -0.2891600    -0.2009230
  H       -1.4126520    -1.0091000     1.7035120
  H       -1.4413430     0.7679950     1.5725290
  H        0.2756770    -2.3364080     0.6567980
  H        2.6838580     1.7794620    -0.6595800
  H       -0.8491240     2.2156170    -0.2099720
  H        0.0735000     2.6566880     1.2394400
  H        0.7245490     3.0640340    -0.3581400
  H        2.6081740    -2.4970700    -0.1982670
  H        3.8302350    -0.4147610    -0.8445580
units angstrom
no_reorient  #important for SAPT in psi4, default
symmetry c1  #important for SAPT in psi4, default
}

set PROPERTIES_ORIGIN ["COM"]
properties('MP2/aug-cc-pvtz', properties = ['dipole'])
--------------------------------------------------------------------------

    Molecular point group: c1
  Charge       = -1
  Multiplicity = 1
  Basis Set: AUG-CC-PVTZ
    Blend: AUG-CC-PVTZ
  Basis Set: (AUG-CC-PVTZ AUX)
    Blend: AUG-CC-PVTZ-JKFIT

    Orbital Energies [Eh]
    ---------------------

    Doubly Occupied:

       1A    -20.310433     2A    -20.310054     3A    -11.158465
       4A    -11.124609     5A    -11.118714     6A    -11.117039
       7A    -11.116076     8A    -11.105723     9A    -11.102330
      10A    -11.093877    11A    -11.076279    12A     -1.180335
      13A     -1.084490    14A     -1.031898    15A     -0.924115
      16A     -0.913585    17A     -0.823648    18A     -0.789507
      19A     -0.677482    20A     -0.669789    21A     -0.562642
      22A     -0.533942    23A     -0.520409    24A     -0.498690
      25A     -0.462998    26A     -0.455773    27A     -0.436889
      28A     -0.430889    29A     -0.428959    30A     -0.413025
      31A     -0.391750    32A     -0.374249    33A     -0.365859
      34A     -0.340692    35A     -0.329042    36A     -0.234015
      37A     -0.226187    38A     -0.219187    39A     -0.210754
      40A     -0.169849

  @DF-RHF Final Energy:  -495.97922685776092

   => Energetics <=

    Nuclear Repulsion Energy =            570.8068880025610952
    One-Electron Energy =               -1820.9037318852267617
    Two-Electron Energy =                 754.1176170249048027
    Total Energy =                       -495.9792268577609775
  Basis Set: (AUG-CC-PVTZ AUX)
    Blend: AUG-CC-PVTZ-RI
    Molecular point group: c1

    Geometry (in Angstrom), charge = -1, multiplicity = 1:

       Center              X                  Y                   Z               Mass
    ------------   -----------------  -----------------  -----------------  -----------------
         O           -2.444617685282    -1.450787943328    -0.521801779304    15.994914619570
         O           -2.550650685282     0.832834056672    -0.694641779304    15.994914619570
         C            0.209965314718    -0.177243943328     0.550048220696    12.000000000000
         C            1.010859114718     1.064276856672     0.206719120696    12.000000000000
         C           -1.204903685282    -0.139344943328     1.045674220696    12.000000000000
         C            0.858668314718    -1.412949943328     0.405846220696    12.000000000000
         C            2.198410314718     0.893555056672    -0.336082779304    12.000000000000
         C            0.194285314718     2.331558056672     0.215647220696    12.000000000000
         C            2.162836314718    -1.501320943328    -0.081846779304    12.000000000000
         C            2.843368314718    -0.340078943328    -0.451908779304    12.000000000000
         C           -2.185484685282    -0.266706943328    -0.186952779304    12.000000000000
         H           -1.379670685282    -0.986646943328     1.717482220696     1.007825032230
         H           -1.408361685282     0.790448056672     1.586499220696     1.007825032230
         H            0.308658314718    -2.313954943328     0.670768220696     1.007825032230
         H            2.716839314718     1.801915056672    -0.645609779304     1.007825032230
         H           -0.816142685282     2.238070056672    -0.196001779304     1.007825032230
         H            0.106481314718     2.679141056672     1.253410220696     1.007825032230
         H            0.757530314718     3.086487056672    -0.344169779304     1.007825032230
         H            2.641155314718    -2.474616943328    -0.184296779304     1.007825032230
         H            3.863216314718    -0.392307943328    -0.830587779304     1.007825032230

  Basis Set: AUG-CC-PVTZ
    Blend: AUG-CC-PVTZ
  Basis Set: (AUG-CC-PVTZ AUX)
    Blend: AUG-CC-PVTZ-JKFIT
	 Reference Energy          =    -495.9792268577609207 [Eh]
	 Singles Energy            =      -0.0000000000000000 [Eh]
	 Same-Spin Energy          =      -0.5328428048139093 [Eh]
	 Opposite-Spin Energy      =      -1.6364208635146507 [Eh]
	 Correlation Energy        =      -2.1692636683285600 [Eh]
	 Total Energy              =    -498.1484905260894607 [Eh]

	 ================> DF-SCS-MP2 Energies <==================
	-----------------------------------------------------------
	 SCS Same-Spin Scale       =       0.3333333333333333 [-]
	 SCS Opposite-Spin Scale   =       1.2000000000000000 [-]
	 SCS Same-Spin Energy      =      -0.1776142682713031 [Eh]
	 SCS Opposite-Spin Energy  =      -1.9637050362175807 [Eh]
	 SCS Correlation Energy    =      -2.1413193044888836 [Eh]
	 SCS Total Energy          =    -498.1205461622498092 [Eh]
	-----------------------------------------------------------

  Dipole Moment: [D]
     X:     8.4150      Y:     1.3784      Z:     2.9800     Total:     9.0329

*** Psi4 exiting successfully. Buy a developer a beer!
