                               Psi4 1.4a3.dev225

  ==> Input File <==

--------------------------------------------------------------------------
#psi4
#
memory 32 gb

molecule  {
-1 1
  O       -2.4775990    -1.4732410    -0.5357720
  O       -2.5836320     0.8103810    -0.7086120
  C        0.1769840    -0.1996970     0.5360780
  C        0.8528670     0.9715620     0.1268880
  C       -1.2378850    -0.1617980     1.0317040
  C        0.8256870    -1.4354030     0.3918760
  C        2.1654290     0.8711020    -0.3500530
  C        0.1613040     2.3091050     0.2016770
  C        2.1298550    -1.5237740    -0.0958170
  C        2.7180435    -0.1859034    -0.4492953
  C       -2.2184660    -0.2891600    -0.2009230
  H       -1.4126520    -1.0091000     1.7035120
  H       -1.4413430     0.7679950     1.5725290
  H        0.2756770    -2.3364080     0.6567980
  H        2.6838580     1.7794620    -0.6595800
  H       -0.8491240     2.2156170    -0.2099720
  H        0.0735000     2.6566880     1.2394400
  H        0.7245490     3.0640340    -0.3581400
  H        2.6081740    -2.4970700    -0.1982670
  H        3.8302350    -0.4147610    -0.8445580
units angstrom
no_reorient  #important for SAPT in psi4, default
symmetry c1  #important for SAPT in psi4, default
}

set PROPERTIES_ORIGIN ["COM"]
properties('MP2/aug-cc-pvtz', properties = ['dipole'])
--------------------------------------------------------------------------

    Molecular point group: c1
  Charge       = -1
  Multiplicity = 1
  Basis Set: AUG-CC-PVTZ
    Blend: AUG-CC-PVTZ
  Basis Set: (AUG-CC-PVTZ AUX)
    Blend: AUG-CC-PVTZ-JKFIT

    Orbital Energies [Eh]
    ---------------------

    Doubly Occupied:

       1A    -20.308480     2A    -20.308338     3A    -11.156004
       4A    -11.122363     5A    -11.115418     6A    -11.114906
       7A    -11.110345     8A    -11.108483     9A    -11.091752
      10A    -11.090927    11A    -11.072665    12A     -1.178573
      13A     -1.082734    14A     -1.049147    15A     -0.937468
      16A     -0.911413    17A     -0.832881    18A     -0.775266
      19A     -0.687355    20A     -0.662988    21A     -0.563588
      22A     -0.533915    23A     -0.527879    24A     -0.492499
      25A     -0.473000    26A     -0.461265    27A     -0.431018
      28A     -0.427208    29A     -0.420555    30A     -0.408266
      31A     -0.386789    32A     -0.378982    33A     -0.360699
      34A     -0.346845    35A     -0.320796    36A     -0.249866
      37A     -0.225337    38A     -0.214211    39A     -0.208845
      40A     -0.169519

  @DF-RHF Final Energy:  -495.93505580501483

   => Energetics <=

    Nuclear Repulsion Energy =            574.5952320824474100
    One-Electron Energy =               -1828.4234005125460953
    Two-Electron Energy =                 757.8931126250838588
    Total Energy =                       -495.9350558050148265
  Basis Set: (AUG-CC-PVTZ AUX)
    Blend: AUG-CC-PVTZ-RI
    Molecular point group: c1

    Geometry (in Angstrom), charge = -1, multiplicity = 1:

       Center              X                  Y                   Z               Mass
    ------------   -----------------  -----------------  -----------------  -----------------
         O           -2.427119717039    -1.459350934207    -0.517834749985    15.994914619570
         O           -2.533152717039     0.824271065793    -0.690674749985    15.994914619570
         C            0.227463282961    -0.185806934207     0.554015250015    12.000000000000
         C            0.903346282961     0.985452065793     0.144825250015    12.000000000000
         C           -1.187405717039    -0.147907934207     1.049641250015    12.000000000000
         C            0.876166282961    -1.421512934207     0.409813250015    12.000000000000
         C            2.215908282961     0.884992065793    -0.332115749985    12.000000000000
         C            0.211783282961     2.322995065793     0.219614250015    12.000000000000
         C            2.180334282961    -1.509883934207    -0.077879749985    12.000000000000
         C            2.768522782961    -0.172013334207    -0.431358049985    12.000000000000
         C           -2.167986717039    -0.275269934207    -0.182985749985    12.000000000000
         H           -1.362172717039    -0.995209934207     1.721449250015     1.007825032230
         H           -1.390863717039     0.781885065793     1.590466250015     1.007825032230
         H            0.326156282961    -2.322517934207     0.674735250015     1.007825032230
         H            2.734337282961     1.793352065793    -0.641642749985     1.007825032230
         H           -0.798644717039     2.229507065793    -0.192034749985     1.007825032230
         H            0.123979282961     2.670578065793     1.257377250015     1.007825032230
         H            0.775028282961     3.077924065793    -0.340202749985     1.007825032230
         H            2.658653282961    -2.483179934207    -0.180329749985     1.007825032230
         H            3.880714282961    -0.400870934207    -0.826620749985     1.007825032230

  Basis Set: AUG-CC-PVTZ
    Blend: AUG-CC-PVTZ
  Basis Set: (AUG-CC-PVTZ AUX)
    Blend: AUG-CC-PVTZ-JKFIT
	 Reference Energy          =    -495.9350558050148265 [Eh]
	 Singles Energy            =      -0.0000000000000000 [Eh]
	 Same-Spin Energy          =      -0.5326912216921232 [Eh]
	 Opposite-Spin Energy      =      -1.6370904560493509 [Eh]
	 Correlation Energy        =      -2.1697816777414740 [Eh]
	 Total Energy              =    -498.1048374827562952 [Eh]

	 ================> DF-SCS-MP2 Energies <==================
	-----------------------------------------------------------
	 SCS Same-Spin Scale       =       0.3333333333333333 [-]
	 SCS Opposite-Spin Scale   =       1.2000000000000000 [-]
	 SCS Same-Spin Energy      =      -0.1775637405640411 [Eh]
	 SCS Opposite-Spin Energy  =      -1.9645085472592210 [Eh]
	 SCS Correlation Energy    =      -2.1420722878232619 [Eh]
	 SCS Total Energy          =    -498.0771280928381088 [Eh]
	-----------------------------------------------------------

  Dipole Moment: [D]
     X:     8.4701      Y:     1.4346      Z:     2.9904     Total:     9.0963

*** Psi4 exiting successfully. Buy a developer a beer!
