                               Psi4 1.4a3.dev225

  ==> Input File <==

--------------------------------------------------------------------------
#psi4
#
memory 32 gb

molecule  {
-1 1
  O       -2.4775990    -1.4732410    -0.5357720
  O       -2.5836320     0.8103810    -0.7086120
  C        0.1769840    -0.1996970     0.5360780
  C        0.8528670     0.9715620     0.1268880
  C       -1.2378850    -0.1617980     1.0317040
  C        0.8256870    -1.4354030     0.3918760
  C        2.1654290     0.8711020    -0.3500530
  C        0.1613040     2.3091050     0.2016770
  C        2.1298550    -1.5237740    -0.0958170
  C        2.8486143    -0.3899794    -0.4785016
  C       -2.2184660    -0.2891600    -0.2009230
  H       -1.4126520    -1.0091000     1.7035120
  H       -1.4413430     0.7679950     1.5725290
  H        0.2756770    -2.3364080     0.6567980
  H        2.6838580     1.7794620    -0.6595800
  H       -0.8491240     2.2156170    -0.2099720
  H        0.0735000     2.6566880     1.2394400
  H        0.7245490     3.0640340    -0.3581400
  H        2.6081740    -2.4970700    -0.1982670
  H        3.8302350    -0.4147610    -0.8445580
units angstrom
no_reorient  #important for SAPT in psi4, default
symmetry c1  #important for SAPT in psi4, default
}

set PROPERTIES_ORIGIN ["COM"]
properties('MP2/aug-cc-pvtz', properties = ['dipole'])
--------------------------------------------------------------------------

    Molecular point group: c1
  Charge       = -1
  Multiplicity = 1
  Basis Set: AUG-CC-PVTZ
    Blend: AUG-CC-PVTZ
  Basis Set: (AUG-CC-PVTZ AUX)
    Blend: AUG-CC-PVTZ-JKFIT

    Orbital Energies [Eh]
    ---------------------

    Doubly Occupied:

       1A    -20.309598     2A    -20.309386     3A    -11.157442
       4A    -11.119769     5A    -11.118734     6A    -11.117274
       7A    -11.117168     8A    -11.114277     9A    -11.106598
      10A    -11.092409    11A    -11.074263    12A     -1.179641
      13A     -1.083777    14A     -1.028892    15A     -0.926971
      16A     -0.905139    17A     -0.818850    18A     -0.789936
      19A     -0.690119    20A     -0.666233    21A     -0.562557
      22A     -0.535243    23A     -0.521246    24A     -0.502718
      25A     -0.461710    26A     -0.452262    27A     -0.441156
      28A     -0.428487    29A     -0.425794    30A     -0.412543
      31A     -0.384247    32A     -0.377834    33A     -0.361722
      34A     -0.348984    35A     -0.333844    36A     -0.234371
      37A     -0.225860    38A     -0.211264    39A     -0.206281
      40A     -0.176440

  @DF-RHF Final Energy:  -495.99373251006188

   => Energetics <=

    Nuclear Repulsion Energy =            571.1606229559948815
    One-Electron Energy =               -1821.6466418703309955
    Two-Electron Energy =                 754.4922864042740684
    Total Energy =                       -495.9937325100619319
  Basis Set: (AUG-CC-PVTZ AUX)
    Blend: AUG-CC-PVTZ-RI
    Molecular point group: c1

    Geometry (in Angstrom), charge = -1, multiplicity = 1:

       Center              X                  Y                   Z               Mass
    ------------   -----------------  -----------------  -----------------  -----------------
         O           -2.437631235384    -1.442921926973    -0.515483515572    15.994914619570
         O           -2.543664235384     0.840700073027    -0.688323515572    15.994914619570
         C            0.216951764616    -0.169377926973     0.556366484428    12.000000000000
         C            0.892834764616     1.001881073027     0.147176484428    12.000000000000
         C           -1.197917235384    -0.131478926973     1.051992484428    12.000000000000
         C            0.865654764616    -1.405083926973     0.412164484428    12.000000000000
         C            2.205396764616     0.901421073027    -0.329764515572    12.000000000000
         C            0.201271764616     2.339424073027     0.221965484428    12.000000000000
         C            2.169822764616    -1.493454926973    -0.075528515572    12.000000000000
         C            2.888582064616    -0.359660326973    -0.458213115572    12.000000000000
         C           -2.178498235384    -0.258840926973    -0.180634515572    12.000000000000
         H           -1.372684235384    -0.978780926973     1.723800484428     1.007825032230
         H           -1.401375235384     0.798314073027     1.592817484428     1.007825032230
         H            0.315644764616    -2.306088926973     0.677086484428     1.007825032230
         H            2.723825764616     1.809781073027    -0.639291515572     1.007825032230
         H           -0.809156235384     2.245936073027    -0.189683515572     1.007825032230
         H            0.113467764616     2.687007073027     1.259728484428     1.007825032230
         H            0.764516764616     3.094353073027    -0.337851515572     1.007825032230
         H            2.648141764616    -2.466750926973    -0.177978515572     1.007825032230
         H            3.870202764616    -0.384441926973    -0.824269515572     1.007825032230

  Basis Set: AUG-CC-PVTZ
    Blend: AUG-CC-PVTZ
  Basis Set: (AUG-CC-PVTZ AUX)
    Blend: AUG-CC-PVTZ-JKFIT
	 Reference Energy          =    -495.9937325100618750 [Eh]
	 Singles Energy            =      -0.0000000000000000 [Eh]
	 Same-Spin Energy          =      -0.5330100287138184 [Eh]
	 Opposite-Spin Energy      =      -1.6359322669072007 [Eh]
	 Correlation Energy        =      -2.1689422956210191 [Eh]
	 Total Energy              =    -498.1626748056829115 [Eh]

	 ================> DF-SCS-MP2 Energies <==================
	-----------------------------------------------------------
	 SCS Same-Spin Scale       =       0.3333333333333333 [-]
	 SCS Opposite-Spin Scale   =       1.2000000000000000 [-]
	 SCS Same-Spin Energy      =      -0.1776700095712728 [Eh]
	 SCS Opposite-Spin Energy  =      -1.9631187202886409 [Eh]
	 SCS Correlation Energy    =      -2.1407887298599135 [Eh]
	 SCS Total Energy          =    -498.1345212399218099 [Eh]
	-----------------------------------------------------------

  Dipole Moment: [D]
     X:     8.4752      Y:     1.3914      Z:     2.9639     Total:     9.0857

*** Psi4 exiting successfully. Buy a developer a beer!
