                               Psi4 1.4a3.dev225

  ==> Input File <==

--------------------------------------------------------------------------
#psi4
#
memory 32 gb

molecule  {
-1 1
  O       -2.5534436    -1.4225011    -0.6306317
  O       -2.5836320     0.8103810    -0.7086120
  C        0.1769840    -0.1996970     0.5360780
  C        0.8528670     0.9715620     0.1268880
  C       -1.2378850    -0.1617980     1.0317040
  C        0.8256870    -1.4354030     0.3918760
  C        2.1654290     0.8711020    -0.3500530
  C        0.1613040     2.3091050     0.2016770
  C        2.1298550    -1.5237740    -0.0958170
  C        2.8103870    -0.3625320    -0.4658790
  C       -2.2184660    -0.2891600    -0.2009230
  H       -1.4126520    -1.0091000     1.7035120
  H       -1.4413430     0.7679950     1.5725290
  H        0.2756770    -2.3364080     0.6567980
  H        2.6838580     1.7794620    -0.6595800
  H       -0.8491240     2.2156170    -0.2099720
  H        0.0735000     2.6566880     1.2394400
  H        0.7245490     3.0640340    -0.3581400
  H        2.6081740    -2.4970700    -0.1982670
  H        3.8302350    -0.4147610    -0.8445580
units angstrom
no_reorient  #important for SAPT in psi4, default
symmetry c1  #important for SAPT in psi4, default
}

set PROPERTIES_ORIGIN ["COM"]
properties('MP2/aug-cc-pvtz', properties = ['dipole'])
--------------------------------------------------------------------------

    Molecular point group: c1
  Charge       = -1
  Multiplicity = 1
  Basis Set: AUG-CC-PVTZ
    Blend: AUG-CC-PVTZ
  Basis Set: (AUG-CC-PVTZ AUX)
    Blend: AUG-CC-PVTZ-JKFIT

    Orbital Energies [Eh]
    ---------------------

    Doubly Occupied:

       1A    -20.304507     2A    -20.300562     3A    -11.153127
       4A    -11.120574     5A    -11.119403     6A    -11.118123
       7A    -11.116522     8A    -11.115456     9A    -11.109795
      10A    -11.092946    11A    -11.081025    12A     -1.177887
      13A     -1.071503    14A     -1.034550    15A     -0.929330
      16A     -0.910520    17A     -0.823970    18A     -0.790672
      19A     -0.692361    20A     -0.666575    21A     -0.564160
      22A     -0.533217    23A     -0.525391    24A     -0.501881
      25A     -0.461609    26A     -0.455321    27A     -0.441230
      28A     -0.428917    29A     -0.424762    30A     -0.413531
      31A     -0.382356    32A     -0.374729    33A     -0.366424
      34A     -0.353307    35A     -0.333051    36A     -0.237547
      37A     -0.215388    38A     -0.210786    39A     -0.201620
      40A     -0.180584

  @DF-RHF Final Energy:  -495.99533920279026

   => Energetics <=

    Nuclear Repulsion Energy =            571.2141329004139152
    One-Electron Energy =               -1821.7485011603700968
    Two-Electron Energy =                 754.5390290571659762
    Total Energy =                       -495.9953392027902055
  Basis Set: (AUG-CC-PVTZ AUX)
    Blend: AUG-CC-PVTZ-RI
    Molecular point group: c1

    Geometry (in Angstrom), charge = -1, multiplicity = 1:

       Center              X                  Y                   Z               Mass
    ------------   -----------------  -----------------  -----------------  -----------------
         O           -2.502259864322    -1.399836308605    -0.601180467215    15.994914619570
         O           -2.532448264322     0.833045791395    -0.679160767215    15.994914619570
         C            0.228167735678    -0.177032208605     0.565529232785    12.000000000000
         C            0.904050735678     0.994226791395     0.156339232785    12.000000000000
         C           -1.186701264322    -0.139133208605     1.061155232785    12.000000000000
         C            0.876870735678    -1.412738208605     0.421327232785    12.000000000000
         C            2.216612735678     0.893766791395    -0.320601767215    12.000000000000
         C            0.212487735678     2.331769791395     0.231128232785    12.000000000000
         C            2.181038735678    -1.501109208605    -0.066365767215    12.000000000000
         C            2.861570735678    -0.339867208605    -0.436427767215    12.000000000000
         C           -2.167282264322    -0.266495208605    -0.171471767215    12.000000000000
         H           -1.361468264322    -0.986435208605     1.732963232785     1.007825032230
         H           -1.390159264322     0.790659791395     1.601980232785     1.007825032230
         H            0.326860735678    -2.313743208605     0.686249232785     1.007825032230
         H            2.735041735678     1.802126791395    -0.630128767215     1.007825032230
         H           -0.797940264322     2.238281791395    -0.180520767215     1.007825032230
         H            0.124683735678     2.679352791395     1.268891232785     1.007825032230
         H            0.775732735678     3.086698791395    -0.328688767215     1.007825032230
         H            2.659357735678    -2.474405208605    -0.168815767215     1.007825032230
         H            3.881418735678    -0.392096208605    -0.815106767215     1.007825032230

  Basis Set: AUG-CC-PVTZ
    Blend: AUG-CC-PVTZ
  Basis Set: (AUG-CC-PVTZ AUX)
    Blend: AUG-CC-PVTZ-JKFIT
	 Reference Energy          =    -495.9953392027902623 [Eh]
	 Singles Energy            =      -0.0000000000000000 [Eh]
	 Same-Spin Energy          =      -0.5327585138931803 [Eh]
	 Opposite-Spin Energy      =      -1.6352206395738058 [Eh]
	 Correlation Energy        =      -2.1679791534669861 [Eh]
	 Total Energy              =    -498.1633183562572640 [Eh]

	 ================> DF-SCS-MP2 Energies <==================
	-----------------------------------------------------------
	 SCS Same-Spin Scale       =       0.3333333333333333 [-]
	 SCS Opposite-Spin Scale   =       1.2000000000000000 [-]
	 SCS Same-Spin Energy      =      -0.1775861712977267 [Eh]
	 SCS Opposite-Spin Energy  =      -1.9622647674885669 [Eh]
	 SCS Correlation Energy    =      -2.1398509387862936 [Eh]
	 SCS Total Energy          =    -498.1351901415765724 [Eh]
	-----------------------------------------------------------

  Dipole Moment: [D]
     X:     8.8142      Y:     1.3339      Z:     3.2209     Total:     9.4786

*** Psi4 exiting successfully. Buy a developer a beer!
