                               Psi4 1.4a3.dev225

  ==> Input File <==

--------------------------------------------------------------------------
#psi4
#
memory 32 gb

molecule  {
-1 1
  O       -2.4775990    -1.4732410    -0.5357720
  O       -2.5836320     0.8103810    -0.7086120
  C        0.1769840    -0.1996970     0.5360780
  C        0.8528670     0.9715620     0.1268880
  C       -1.2378850    -0.1617980     1.0317040
  C        0.8256870    -1.4354030     0.3918760
  C        2.1654290     0.8711020    -0.3500530
  C        0.1613040     2.3091050     0.2016770
  C        2.1298550    -1.5237740    -0.0958170
  C        2.9223962    -0.4489830    -0.5023332
  C       -2.2184660    -0.2891600    -0.2009230
  H       -1.4126520    -1.0091000     1.7035120
  H       -1.4413430     0.7679950     1.5725290
  H        0.2756770    -2.3364080     0.6567980
  H        2.6838580     1.7794620    -0.6595800
  H       -0.8491240     2.2156170    -0.2099720
  H        0.0735000     2.6566880     1.2394400
  H        0.7245490     3.0640340    -0.3581400
  H        2.6081740    -2.4970700    -0.1982670
  H        3.8302350    -0.4147610    -0.8445580
units angstrom
no_reorient  #important for SAPT in psi4, default
symmetry c1  #important for SAPT in psi4, default
}

set PROPERTIES_ORIGIN ["COM"]
properties('MP2/aug-cc-pvtz', properties = ['dipole'])
--------------------------------------------------------------------------

    Molecular point group: c1
  Charge       = -1
  Multiplicity = 1
  Basis Set: AUG-CC-PVTZ
    Blend: AUG-CC-PVTZ
  Basis Set: (AUG-CC-PVTZ AUX)
    Blend: AUG-CC-PVTZ-JKFIT

    Orbital Energies [Eh]
    ---------------------

    Doubly Occupied:

       1A    -20.310545     2A    -20.310260     3A    -11.158629
       4A    -11.127256     5A    -11.121377     6A    -11.119907
       7A    -11.118545     8A    -11.117403     9A    -11.106154
      10A    -11.092939    11A    -11.075563    12A     -1.180558
      13A     -1.084670    14A     -1.024018    15A     -0.927675
      16A     -0.901149    17A     -0.815918    18A     -0.793847
      19A     -0.692487    20A     -0.671616    21A     -0.564360
      22A     -0.540735    23A     -0.519545    24A     -0.507090
      25A     -0.462843    26A     -0.455646    27A     -0.438737
      28A     -0.428843    29A     -0.424309    30A     -0.412097
      31A     -0.385310    32A     -0.379932    33A     -0.356943
      34A     -0.342513    35A     -0.332690    36A     -0.234018
      37A     -0.226619    38A     -0.211659    39A     -0.205068
      40A     -0.176240

  @DF-RHF Final Energy:  -495.96864212854859

   => Energetics <=

    Nuclear Repulsion Energy =            569.5531943771972010
    One-Electron Energy =               -1818.3322509468694079
    Two-Electron Energy =                 752.8104144411237257
    Total Energy =                       -495.9686421285485949
  Basis Set: (AUG-CC-PVTZ AUX)
    Blend: AUG-CC-PVTZ-RI
    Molecular point group: c1

    Geometry (in Angstrom), charge = -1, multiplicity = 1:

       Center              X                  Y                   Z               Mass
    ------------   -----------------  -----------------  -----------------  -----------------
         O           -2.443570999829    -1.438171880073    -0.513564967929    15.994914619570
         O           -2.549603999829     0.845450119927    -0.686404967929    15.994914619570
         C            0.211012000171    -0.164627880073     0.558285032071    12.000000000000
         C            0.886895000171     1.006631119927     0.149095032071    12.000000000000
         C           -1.203856999829    -0.126728880073     1.053911032071    12.000000000000
         C            0.859715000171    -1.400333880073     0.414083032071    12.000000000000
         C            2.199457000171     0.906171119927    -0.327845967929    12.000000000000
         C            0.195332000171     2.344174119927     0.223884032071    12.000000000000
         C            2.163883000171    -1.488704880073    -0.073609967929    12.000000000000
         C            2.956424200171    -0.413913880073    -0.480126167929    12.000000000000
         C           -2.184437999829    -0.254090880073    -0.178715967929    12.000000000000
         H           -1.378623999829    -0.974030880073     1.725719032071     1.007825032230
         H           -1.407314999829     0.803064119927     1.594736032071     1.007825032230
         H            0.309705000171    -2.301338880073     0.679005032071     1.007825032230
         H            2.717886000171     1.814531119927    -0.637372967929     1.007825032230
         H           -0.815095999829     2.250686119927    -0.187764967929     1.007825032230
         H            0.107528000171     2.691757119927     1.261647032071     1.007825032230
         H            0.758577000171     3.099103119927    -0.335932967929     1.007825032230
         H            2.642202000171    -2.462000880073    -0.176059967929     1.007825032230
         H            3.864263000171    -0.379691880073    -0.822350967929     1.007825032230

  Basis Set: AUG-CC-PVTZ
    Blend: AUG-CC-PVTZ
  Basis Set: (AUG-CC-PVTZ AUX)
    Blend: AUG-CC-PVTZ-JKFIT
	 Reference Energy          =    -495.9686421285485949 [Eh]
	 Singles Energy            =      -0.0000000000000000 [Eh]
	 Same-Spin Energy          =      -0.5331733144143513 [Eh]
	 Opposite-Spin Energy      =      -1.6377798824328273 [Eh]
	 Correlation Energy        =      -2.1709531968471785 [Eh]
	 Total Energy              =    -498.1395953253957600 [Eh]

	 ================> DF-SCS-MP2 Energies <==================
	-----------------------------------------------------------
	 SCS Same-Spin Scale       =       0.3333333333333333 [-]
	 SCS Opposite-Spin Scale   =       1.2000000000000000 [-]
	 SCS Same-Spin Energy      =      -0.1777244381381171 [Eh]
	 SCS Opposite-Spin Energy  =      -1.9653358589193928 [Eh]
	 SCS Correlation Energy    =      -2.1430602970575099 [Eh]
	 SCS Total Energy          =    -498.1117024256060972 [Eh]
	-----------------------------------------------------------

  Dipole Moment: [D]
     X:     8.4246      Y:     1.3912      Z:     2.9650     Total:     9.0388

*** Psi4 exiting successfully. Buy a developer a beer!
