                               Psi4 1.4a3.dev225

  ==> Input File <==

--------------------------------------------------------------------------
#psi4
#
memory 32 gb

molecule  {
-1 1
  O       -2.4775990    -1.4732410    -0.5357720
  O       -2.5836320     0.8103810    -0.7086120
  C        0.1769840    -0.1996970     0.5360780
  C        0.7710500     1.0221835     0.1485272
  C       -1.2378850    -0.1617980     1.0317040
  C        0.8256870    -1.4354030     0.3918760
  C        2.1654290     0.8711020    -0.3500530
  C        0.1613040     2.3091050     0.2016770
  C        2.1298550    -1.5237740    -0.0958170
  C        2.8103870    -0.3625320    -0.4658790
  C       -2.2184660    -0.2891600    -0.2009230
  H       -1.4126520    -1.0091000     1.7035120
  H       -1.4413430     0.7679950     1.5725290
  H        0.2756770    -2.3364080     0.6567980
  H        2.6838580     1.7794620    -0.6595800
  H       -0.8491240     2.2156170    -0.2099720
  H        0.0735000     2.6566880     1.2394400
  H        0.7245490     3.0640340    -0.3581400
  H        2.6081740    -2.4970700    -0.1982670
  H        3.8302350    -0.4147610    -0.8445580
units angstrom
no_reorient  #important for SAPT in psi4, default
symmetry c1  #important for SAPT in psi4, default
}

set PROPERTIES_ORIGIN ["COM"]
properties('MP2/aug-cc-pvtz', properties = ['dipole'])
--------------------------------------------------------------------------

    Molecular point group: c1
  Charge       = -1
  Multiplicity = 1
  Basis Set: AUG-CC-PVTZ
    Blend: AUG-CC-PVTZ
  Basis Set: (AUG-CC-PVTZ AUX)
    Blend: AUG-CC-PVTZ-JKFIT

    Orbital Energies [Eh]
    ---------------------

    Doubly Occupied:

       1A    -20.308913     2A    -20.308341     3A    -11.156034
       4A    -11.123434     5A    -11.122494     6A    -11.118703
       7A    -11.115837     8A    -11.111882     9A    -11.108677
      10A    -11.090610    11A    -11.071030    12A     -1.178762
      13A     -1.082961    14A     -1.027259    15A     -0.937012
      16A     -0.905255    17A     -0.826547    18A     -0.783511
      19A     -0.690766    20A     -0.656690    21A     -0.561298
      22A     -0.533296    23A     -0.523268    24A     -0.503970
      25A     -0.466851    26A     -0.451085    27A     -0.445345
      28A     -0.430299    29A     -0.427272    30A     -0.414930
      31A     -0.389799    32A     -0.367677    33A     -0.360891
      34A     -0.359095    35A     -0.323727    36A     -0.235714
      37A     -0.225014    38A     -0.210137    39A     -0.198636
      40A     -0.175024

  @DF-RHF Final Energy:  -495.98303392138843

   => Energetics <=

    Nuclear Repulsion Energy =            571.8374387492960977
    One-Electron Energy =               -1822.9848461699589279
    Two-Electron Energy =                 755.1643734992743475
    Total Energy =                       -495.9830339213884827
  Basis Set: (AUG-CC-PVTZ AUX)
    Blend: AUG-CC-PVTZ-RI
    Molecular point group: c1

    Geometry (in Angstrom), charge = -1, multiplicity = 1:

       Center              X                  Y                   Z               Mass
    ------------   -----------------  -----------------  -----------------  -----------------
         O           -2.427967146157    -1.449206813598    -0.518241739764    15.994914619570
         O           -2.534000146157     0.834415186402    -0.691081739764    15.994914619570
         C            0.226615853843    -0.175662813598     0.553608260236    12.000000000000
         C            0.820681853843     1.046217686402     0.166057460236    12.000000000000
         C           -1.188253146157    -0.137763813598     1.049234260236    12.000000000000
         C            0.875318853843    -1.411368813598     0.409406260236    12.000000000000
         C            2.215060853843     0.895136186402    -0.332522739764    12.000000000000
         C            0.210935853843     2.333139186402     0.219207260236    12.000000000000
         C            2.179486853843    -1.499739813598    -0.078286739764    12.000000000000
         C            2.860018853843    -0.338497813598    -0.448348739764    12.000000000000
         C           -2.168834146157    -0.265125813598    -0.183392739764    12.000000000000
         H           -1.363020146157    -0.985065813598     1.721042260236     1.007825032230
         H           -1.391711146157     0.792029186402     1.590059260236     1.007825032230
         H            0.325308853843    -2.312373813598     0.674328260236     1.007825032230
         H            2.733489853843     1.803496186402    -0.642049739764     1.007825032230
         H           -0.799492146157     2.239651186402    -0.192441739764     1.007825032230
         H            0.123131853843     2.680722186402     1.256970260236     1.007825032230
         H            0.774180853843     3.088068186402    -0.340609739764     1.007825032230
         H            2.657805853843    -2.473035813598    -0.180736739764     1.007825032230
         H            3.879866853843    -0.390726813598    -0.827027739764     1.007825032230

  Basis Set: AUG-CC-PVTZ
    Blend: AUG-CC-PVTZ
  Basis Set: (AUG-CC-PVTZ AUX)
    Blend: AUG-CC-PVTZ-JKFIT
	 Reference Energy          =    -495.9830339213884258 [Eh]
	 Singles Energy            =      -0.0000000000000000 [Eh]
	 Same-Spin Energy          =      -0.5341720803149752 [Eh]
	 Opposite-Spin Energy      =      -1.6373747609482914 [Eh]
	 Correlation Energy        =      -2.1715468412632664 [Eh]
	 Total Energy              =    -498.1545807626516762 [Eh]

	 ================> DF-SCS-MP2 Energies <==================
	-----------------------------------------------------------
	 SCS Same-Spin Scale       =       0.3333333333333333 [-]
	 SCS Opposite-Spin Scale   =       1.2000000000000000 [-]
	 SCS Same-Spin Energy      =      -0.1780573601049917 [Eh]
	 SCS Opposite-Spin Energy  =      -1.9648497131379496 [Eh]
	 SCS Correlation Energy    =      -2.1429070732429412 [Eh]
	 SCS Total Energy          =    -498.1259409946313781 [Eh]
	-----------------------------------------------------------

  Dipole Moment: [D]
     X:     8.4324      Y:     1.5275      Z:     2.9800     Total:     9.0730

*** Psi4 exiting successfully. Buy a developer a beer!
