                               Psi4 1.4a3.dev225

  ==> Input File <==

--------------------------------------------------------------------------
#psi4
#
memory 32 gb

molecule  {
-1 1
  O       -2.4775990    -1.4732410    -0.5357720
  O       -2.5836320     0.8103810    -0.7086120
  C        0.1769840    -0.1996970     0.5360780
  C        0.8528670     0.9715620     0.1268880
  C       -1.2378850    -0.1617980     1.0317040
  C        0.8256870    -1.4354030     0.3918760
  C        2.1654290     0.8711020    -0.3500530
  C        0.1613040     2.3091050     0.2016770
  C        2.1305946    -1.4995027    -0.0976293
  C        2.8103870    -0.3625320    -0.4658790
  C       -2.2184660    -0.2891600    -0.2009230
  H       -1.4126520    -1.0091000     1.7035120
  H       -1.4413430     0.7679950     1.5725290
  H        0.2756770    -2.3364080     0.6567980
  H        2.6838580     1.7794620    -0.6595800
  H       -0.8491240     2.2156170    -0.2099720
  H        0.0735000     2.6566880     1.2394400
  H        0.7245490     3.0640340    -0.3581400
  H        2.6081740    -2.4970700    -0.1982670
  H        3.8302350    -0.4147610    -0.8445580
units angstrom
no_reorient  #important for SAPT in psi4, default
symmetry c1  #important for SAPT in psi4, default
}

set PROPERTIES_ORIGIN ["COM"]
properties('MP2/aug-cc-pvtz', properties = ['dipole'])
--------------------------------------------------------------------------

    Molecular point group: c1
  Charge       = -1
  Multiplicity = 1
  Basis Set: AUG-CC-PVTZ
    Blend: AUG-CC-PVTZ
  Basis Set: (AUG-CC-PVTZ AUX)
    Blend: AUG-CC-PVTZ-JKFIT

    Orbital Energies [Eh]
    ---------------------

    Doubly Occupied:

       1A    -20.309253     2A    -20.309099     3A    -11.157009
       4A    -11.116975     5A    -11.116532     6A    -11.115337
       7A    -11.114278     8A    -11.112705     9A    -11.106537
      10A    -11.092107    11A    -11.073660    12A     -1.179323
      13A     -1.083468    14A     -1.034079    15A     -0.928869
      16A     -0.907572    17A     -0.820466    18A     -0.788764
      19A     -0.691003    20A     -0.662244    21A     -0.561830
      22A     -0.533393    23A     -0.524497    24A     -0.498447
      25A     -0.461604    26A     -0.451495    27A     -0.439478
      28A     -0.428797    29A     -0.425867    30A     -0.412578
      31A     -0.383735    32A     -0.376065    33A     -0.366636
      34A     -0.350789    35A     -0.332301    36A     -0.235858
      37A     -0.225655    38A     -0.211228    39A     -0.206767
      40A     -0.177312

  @DF-RHF Final Energy:  -495.99661319602609

   => Energetics <=

    Nuclear Repulsion Energy =            572.4108374277639086
    One-Electron Energy =               -1824.1676733650481310
    Two-Electron Energy =                 755.7602227412580760
    Total Energy =                       -495.9966131960261464
  Basis Set: (AUG-CC-PVTZ AUX)
    Blend: AUG-CC-PVTZ-RI
    Molecular point group: c1

    Geometry (in Angstrom), charge = -1, multiplicity = 1:

       Center              X                  Y                   Z               Mass
    ------------   -----------------  -----------------  -----------------  -----------------
         O           -2.434613312186    -1.447085507680    -0.516353791827    15.994914619570
         O           -2.540646312186     0.836536492320    -0.689193791827    15.994914619570
         C            0.219969687814    -0.173541507680     0.555496208173    12.000000000000
         C            0.895852687814     0.997717492320     0.146306208173    12.000000000000
         C           -1.194899312186    -0.135642507680     1.051122208173    12.000000000000
         C            0.868672687814    -1.409247507680     0.411294208173    12.000000000000
         C            2.208414687814     0.897257492320    -0.330634791827    12.000000000000
         C            0.204289687814     2.335260492320     0.221095208173    12.000000000000
         C            2.173580287814    -1.473347207680    -0.078211091827    12.000000000000
         C            2.853372687814    -0.336376507680    -0.446460791827    12.000000000000
         C           -2.175480312186    -0.263004507680    -0.181504791827    12.000000000000
         H           -1.369666312186    -0.982944507680     1.722930208173     1.007825032230
         H           -1.398357312186     0.794150492320     1.591947208173     1.007825032230
         H            0.318662687814    -2.310252507680     0.676216208173     1.007825032230
         H            2.726843687814     1.805617492320    -0.640161791827     1.007825032230
         H           -0.806138312186     2.241772492320    -0.190553791827     1.007825032230
         H            0.116485687814     2.682843492320     1.258858208173     1.007825032230
         H            0.767534687814     3.090189492320    -0.338721791827     1.007825032230
         H            2.651159687814    -2.470914507680    -0.178848791827     1.007825032230
         H            3.873220687814    -0.388605507680    -0.825139791827     1.007825032230

  Basis Set: AUG-CC-PVTZ
    Blend: AUG-CC-PVTZ
  Basis Set: (AUG-CC-PVTZ AUX)
    Blend: AUG-CC-PVTZ-JKFIT
	 Reference Energy          =    -495.9966131960260896 [Eh]
	 Singles Energy            =      -0.0000000000000000 [Eh]
	 Same-Spin Energy          =      -0.5330197689834146 [Eh]
	 Opposite-Spin Energy      =      -1.6354023171968501 [Eh]
	 Correlation Energy        =      -2.1684220861802648 [Eh]
	 Total Energy              =    -498.1650352822063610 [Eh]

	 ================> DF-SCS-MP2 Energies <==================
	-----------------------------------------------------------
	 SCS Same-Spin Scale       =       0.3333333333333333 [-]
	 SCS Opposite-Spin Scale   =       1.2000000000000000 [-]
	 SCS Same-Spin Energy      =      -0.1776732563278049 [Eh]
	 SCS Opposite-Spin Energy  =      -1.9624827806362202 [Eh]
	 SCS Correlation Energy    =      -2.1401560369640249 [Eh]
	 SCS Total Energy          =    -498.1367692329901047 [Eh]
	-----------------------------------------------------------

  Dipole Moment: [D]
     X:     8.4832      Y:     1.4104      Z:     2.9681     Total:     9.0975

*** Psi4 exiting successfully. Buy a developer a beer!
