                               Psi4 1.4a3.dev225

  ==> Input File <==

--------------------------------------------------------------------------
#psi4
#
memory 32 gb

molecule  {
-1 1
  O       -2.4775990    -1.4732410    -0.5357720
  O       -2.5836320     0.8103810    -0.7086120
  C        0.1769840    -0.1996970     0.5360780
  C        0.8528670     0.9715620     0.1268880
  C       -1.2378850    -0.1617980     1.0317040
  C        0.8256870    -1.4354030     0.3918760
  C        2.1654290     0.8711020    -0.3500530
  C        0.1613040     2.3091050     0.2016770
  C        2.1298550    -1.5237740    -0.0958170
  C        2.7713306    -0.3364994    -0.4528056
  C       -2.2184660    -0.2891600    -0.2009230
  H       -1.4126520    -1.0091000     1.7035120
  H       -1.4413430     0.7679950     1.5725290
  H        0.2756770    -2.3364080     0.6567980
  H        2.6838580     1.7794620    -0.6595800
  H       -0.8491240     2.2156170    -0.2099720
  H        0.0735000     2.6566880     1.2394400
  H        0.7245490     3.0640340    -0.3581400
  H        2.6081740    -2.4970700    -0.1982670
  H        3.8302350    -0.4147610    -0.8445580
units angstrom
no_reorient  #important for SAPT in psi4, default
symmetry c1  #important for SAPT in psi4, default
}

set PROPERTIES_ORIGIN ["COM"]
properties('MP2/aug-cc-pvtz', properties = ['dipole'])
--------------------------------------------------------------------------

    Molecular point group: c1
  Charge       = -1
  Multiplicity = 1
  Basis Set: AUG-CC-PVTZ
    Blend: AUG-CC-PVTZ
  Basis Set: (AUG-CC-PVTZ AUX)
    Blend: AUG-CC-PVTZ-JKFIT

    Orbital Energies [Eh]
    ---------------------

    Doubly Occupied:

       1A    -20.308873     2A    -20.308733     3A    -11.156498
       4A    -11.117970     5A    -11.116919     6A    -11.115254
       7A    -11.111312     8A    -11.110239     9A    -11.107465
      10A    -11.092104    11A    -11.073269    12A     -1.178950
      13A     -1.083104    14A     -1.036299    15A     -0.927160
      16A     -0.910797    17A     -0.823762    18A     -0.785709
      19A     -0.690130    20A     -0.662842    21A     -0.562550
      22A     -0.531643    23A     -0.525598    24A     -0.496876
      25A     -0.461370    26A     -0.456970    27A     -0.436415
      28A     -0.428161    29A     -0.425923    30A     -0.412113
      31A     -0.384460    32A     -0.371070    33A     -0.367135
      34A     -0.353835    35A     -0.331415    36A     -0.236469
      37A     -0.225367    38A     -0.211816    39A     -0.207907
      40A     -0.175909

  @DF-RHF Final Energy:  -495.99443489064674

   => Energetics <=

    Nuclear Repulsion Energy =            572.9246079635036040
    One-Electron Energy =               -1825.1973049313060073
    Two-Electron Energy =                 756.2782620771556594
    Total Energy =                       -495.9944348906467440
  Basis Set: (AUG-CC-PVTZ AUX)
    Blend: AUG-CC-PVTZ-RI
    Molecular point group: c1

    Geometry (in Angstrom), charge = -1, multiplicity = 1:

       Center              X                  Y                   Z               Mass
    ------------   -----------------  -----------------  -----------------  -----------------
         O           -2.431409560781    -1.447227300005    -0.517552155539    15.994914619570
         O           -2.537442560781     0.836394699995    -0.690392155539    15.994914619570
         C            0.223173439219    -0.173683300005     0.554297844461    12.000000000000
         C            0.899056439219     0.997575699995     0.145107844461    12.000000000000
         C           -1.191695560781    -0.135784300005     1.049923844461    12.000000000000
         C            0.871876439219    -1.409389300005     0.410095844461    12.000000000000
         C            2.211618439219     0.897115699995    -0.331833155539    12.000000000000
         C            0.207493439219     2.335118699995     0.219896844461    12.000000000000
         C            2.176044439219    -1.497760300005    -0.077597155539    12.000000000000
         C            2.817520039219    -0.310485700005    -0.434585755539    12.000000000000
         C           -2.172276560781    -0.263146300005    -0.182703155539    12.000000000000
         H           -1.366462560781    -0.983086300005     1.721731844461     1.007825032230
         H           -1.395153560781     0.794008699995     1.590748844461     1.007825032230
         H            0.321866439219    -2.310394300005     0.675017844461     1.007825032230
         H            2.730047439219     1.805475699995    -0.641360155539     1.007825032230
         H           -0.802934560781     2.241630699995    -0.191752155539     1.007825032230
         H            0.119689439219     2.682701699995     1.257659844461     1.007825032230
         H            0.770738439219     3.090047699995    -0.339920155539     1.007825032230
         H            2.654363439219    -2.471056300005    -0.180047155539     1.007825032230
         H            3.876424439219    -0.388747300005    -0.826338155539     1.007825032230

  Basis Set: AUG-CC-PVTZ
    Blend: AUG-CC-PVTZ
  Basis Set: (AUG-CC-PVTZ AUX)
    Blend: AUG-CC-PVTZ-JKFIT
	 Reference Energy          =    -495.9944348906467440 [Eh]
	 Singles Energy            =      -0.0000000000000000 [Eh]
	 Same-Spin Energy          =      -0.5330710881573140 [Eh]
	 Opposite-Spin Energy      =      -1.6354227920646180 [Eh]
	 Correlation Energy        =      -2.1684938802219320 [Eh]
	 Total Energy              =    -498.1629287708686888 [Eh]

	 ================> DF-SCS-MP2 Energies <==================
	-----------------------------------------------------------
	 SCS Same-Spin Scale       =       0.3333333333333333 [-]
	 SCS Opposite-Spin Scale   =       1.2000000000000000 [-]
	 SCS Same-Spin Energy      =      -0.1776903627191047 [Eh]
	 SCS Opposite-Spin Energy  =      -1.9625073504775417 [Eh]
	 SCS Correlation Energy    =      -2.1401977131966463 [Eh]
	 SCS Total Energy          =    -498.1346326038433858 [Eh]
	-----------------------------------------------------------

  Dipole Moment: [D]
     X:     8.4759      Y:     1.3950      Z:     2.9797     Total:     9.0920

*** Psi4 exiting successfully. Buy a developer a beer!
