                               Psi4 1.4a3.dev225

  ==> Input File <==

--------------------------------------------------------------------------
#psi4
#
memory 32 gb

molecule  {
-1 1
  O       -2.4775990    -1.4732410    -0.5357720
  O       -2.5836320     0.8103810    -0.7086120
  C        0.1769840    -0.1996970     0.5360780
  C        0.8528670     0.9715620     0.1268880
  C       -1.2378850    -0.1617980     1.0317040
  C        0.8256870    -1.4354030     0.3918760
  C        2.1654290     0.8711020    -0.3500530
  C        0.1613040     2.3091050     0.2016770
  C        2.1298550    -1.5237740    -0.0958170
  C        2.8103870    -0.3625320    -0.4658790
  C       -2.1895979    -0.3760840    -0.1607877
  H       -1.4126520    -1.0091000     1.7035120
  H       -1.4413430     0.7679950     1.5725290
  H        0.2756770    -2.3364080     0.6567980
  H        2.6838580     1.7794620    -0.6595800
  H       -0.8491240     2.2156170    -0.2099720
  H        0.0735000     2.6566880     1.2394400
  H        0.7245490     3.0640340    -0.3581400
  H        2.6081740    -2.4970700    -0.1982670
  H        3.8302350    -0.4147610    -0.8445580
units angstrom
no_reorient  #important for SAPT in psi4, default
symmetry c1  #important for SAPT in psi4, default
}

set PROPERTIES_ORIGIN ["COM"]
properties('MP2/aug-cc-pvtz', properties = ['dipole'])
--------------------------------------------------------------------------

    Molecular point group: c1
  Charge       = -1
  Multiplicity = 1
  Basis Set: AUG-CC-PVTZ
    Blend: AUG-CC-PVTZ
  Basis Set: (AUG-CC-PVTZ AUX)
    Blend: AUG-CC-PVTZ-JKFIT

    Orbital Energies [Eh]
    ---------------------

    Doubly Occupied:

       1A    -20.327785     2A    -20.286011     3A    -11.154788
       4A    -11.120327     5A    -11.118624     6A    -11.117822
       7A    -11.115704     8A    -11.114957     9A    -11.109827
      10A    -11.089370    11A    -11.078020    12A     -1.202831
      13A     -1.044382    14A     -1.032482    15A     -0.928542
      16A     -0.910541    17A     -0.824928    18A     -0.790981
      19A     -0.692653    20A     -0.666786    21A     -0.565410
      22A     -0.539618    23A     -0.523858    24A     -0.502111
      25A     -0.462327    26A     -0.455609    27A     -0.442880
      28A     -0.432448    29A     -0.426657    30A     -0.413378
      31A     -0.382131    32A     -0.374190    33A     -0.365124
      34A     -0.350640    35A     -0.335946    36A     -0.235496
      37A     -0.212111    38A     -0.209337    39A     -0.196900
      40A     -0.179493

  @DF-RHF Final Energy:  -495.98256596772643

   => Energetics <=

    Nuclear Repulsion Energy =            572.1886088413264133
    One-Electron Energy =               -1823.6763021887998093
    Two-Electron Energy =                 755.5051273797469094
    Total Energy =                       -495.9825659677264866
  Basis Set: (AUG-CC-PVTZ AUX)
    Blend: AUG-CC-PVTZ-RI
    Molecular point group: c1

    Geometry (in Angstrom), charge = -1, multiplicity = 1:

       Center              X                  Y                   Z               Mass
    ------------   -----------------  -----------------  -----------------  -----------------
         O           -2.436877779003    -1.438133801512    -0.519730756408    15.994914619570
         O           -2.542910779003     0.845488198488    -0.692570756408    15.994914619570
         C            0.217705220997    -0.164589801512     0.552119243592    12.000000000000
         C            0.893588220997     1.006669198488     0.142929243592    12.000000000000
         C           -1.197163779003    -0.126690801512     1.047745243592    12.000000000000
         C            0.866408220997    -1.400295801512     0.407917243592    12.000000000000
         C            2.206150220997     0.906209198488    -0.334011756408    12.000000000000
         C            0.202025220997     2.344212198488     0.217718243592    12.000000000000
         C            2.170576220997    -1.488666801512    -0.079775756408    12.000000000000
         C            2.851108220997    -0.327424801512    -0.449837756408    12.000000000000
         C           -2.148876679003    -0.340976801512    -0.144746456408    12.000000000000
         H           -1.371930779003    -0.973992801512     1.719553243592     1.007825032230
         H           -1.400621779003     0.803102198488     1.588570243592     1.007825032230
         H            0.316398220997    -2.301300801512     0.672839243592     1.007825032230
         H            2.724579220997     1.814569198488    -0.643538756408     1.007825032230
         H           -0.808402779003     2.250724198488    -0.193930756408     1.007825032230
         H            0.114221220997     2.691795198488     1.255481243592     1.007825032230
         H            0.765270220997     3.099141198488    -0.342098756408     1.007825032230
         H            2.648895220997    -2.461962801512    -0.182225756408     1.007825032230
         H            3.870956220997    -0.379653801512    -0.828516756408     1.007825032230

  Basis Set: AUG-CC-PVTZ
    Blend: AUG-CC-PVTZ
  Basis Set: (AUG-CC-PVTZ AUX)
    Blend: AUG-CC-PVTZ-JKFIT
	 Reference Energy          =    -495.9825659677264298 [Eh]
	 Singles Energy            =      -0.0000000000000000 [Eh]
	 Same-Spin Energy          =      -0.5334920992528334 [Eh]
	 Opposite-Spin Energy      =      -1.6368165701450641 [Eh]
	 Correlation Energy        =      -2.1703086693978975 [Eh]
	 Total Energy              =    -498.1528746371243415 [Eh]

	 ================> DF-SCS-MP2 Energies <==================
	-----------------------------------------------------------
	 SCS Same-Spin Scale       =       0.3333333333333333 [-]
	 SCS Opposite-Spin Scale   =       1.2000000000000000 [-]
	 SCS Same-Spin Energy      =      -0.1778306997509445 [Eh]
	 SCS Opposite-Spin Energy  =      -1.9641798841740767 [Eh]
	 SCS Correlation Energy    =      -2.1420105839250212 [Eh]
	 SCS Total Energy          =    -498.1245765516514439 [Eh]
	-----------------------------------------------------------

  Dipole Moment: [D]
     X:     8.7886      Y:     0.5298      Z:     3.2115     Total:     9.3720

*** Psi4 exiting successfully. Buy a developer a beer!
