                               Psi4 1.4a3.dev225

  ==> Input File <==

--------------------------------------------------------------------------
#psi4
#
memory 32 gb

molecule  {
-1 1
  O       -2.4775990    -1.4732410    -0.5357720
  O       -2.5836320     0.8103810    -0.7086120
  C        0.1769840    -0.1996970     0.5360780
  C        0.8528670     0.9715620     0.1268880
  C       -1.2378850    -0.1617980     1.0317040
  C        0.8256870    -1.4354030     0.3918760
  C        2.1654290     0.8711020    -0.3500530
  C        0.1613040     2.3091050     0.2016770
  C        2.1298550    -1.5237740    -0.0958170
  C        2.8103870    -0.3625320    -0.4658790
  C       -2.2184660    -0.2891600    -0.2009230
  H       -1.3807413    -0.8543910     1.5808465
  H       -1.4413430     0.7679950     1.5725290
  H        0.2756770    -2.3364080     0.6567980
  H        2.6838580     1.7794620    -0.6595800
  H       -0.8491240     2.2156170    -0.2099720
  H        0.0735000     2.6566880     1.2394400
  H        0.7245490     3.0640340    -0.3581400
  H        2.6081740    -2.4970700    -0.1982670
  H        3.8302350    -0.4147610    -0.8445580
units angstrom
no_reorient  #important for SAPT in psi4, default
symmetry c1  #important for SAPT in psi4, default
}

set PROPERTIES_ORIGIN ["COM"]
properties('MP2/aug-cc-pvtz', properties = ['dipole'])
--------------------------------------------------------------------------

    Molecular point group: c1
  Charge       = -1
  Multiplicity = 1
  Basis Set: AUG-CC-PVTZ
    Blend: AUG-CC-PVTZ
  Basis Set: (AUG-CC-PVTZ AUX)
    Blend: AUG-CC-PVTZ-JKFIT

    Orbital Energies [Eh]
    ---------------------

    Doubly Occupied:

       1A    -20.309502     2A    -20.307546     3A    -11.155565
       4A    -11.117948     5A    -11.116174     6A    -11.115896
       7A    -11.114100     8A    -11.111568     9A    -11.106762
      10A    -11.091383    11A    -11.048421    12A     -1.178799
      13A     -1.082779    14A     -1.032074    15A     -0.928817
      16A     -0.910685    17A     -0.830271    18A     -0.794156
      19A     -0.692652    20A     -0.665601    21A     -0.561984
      22A     -0.543060    23A     -0.525944    24A     -0.501975
      25A     -0.462163    26A     -0.452760    27A     -0.445798
      28A     -0.436509    29A     -0.425090    30A     -0.411649
      31A     -0.391284    32A     -0.375569    33A     -0.364478
      34A     -0.355046    35A     -0.332488    36A     -0.234249
      37A     -0.226210    38A     -0.210944    39A     -0.206730
      40A     -0.175255

  @DF-RHF Final Energy:  -495.96449015008488

   => Energetics <=

    Nuclear Repulsion Energy =            573.2031881992658100
    One-Electron Energy =               -1825.6355878893673435
    Two-Electron Energy =                 756.4679095400167625
    Total Energy =                       -495.9644901500848846
  Basis Set: (AUG-CC-PVTZ AUX)
    Blend: AUG-CC-PVTZ-RI
    Molecular point group: c1

    Geometry (in Angstrom), charge = -1, multiplicity = 1:

       Center              X                  Y                   Z               Mass
    ------------   -----------------  -----------------  -----------------  -----------------
         O           -2.434769525540    -1.446177579558    -0.515670324850    15.994914619570
         O           -2.540802525540     0.837444420442    -0.688510324850    15.994914619570
         C            0.219813474460    -0.172633579558     0.556179675150    12.000000000000
         C            0.895696474460     0.998625420442     0.146989675150    12.000000000000
         C           -1.195055525540    -0.134734579558     1.051805675150    12.000000000000
         C            0.868516474460    -1.408339579558     0.411977675150    12.000000000000
         C            2.208258474460     0.898165420442    -0.329951324850    12.000000000000
         C            0.204133474460     2.336168420442     0.221778675150    12.000000000000
         C            2.172684474460    -1.496710579558    -0.075715324850    12.000000000000
         C            2.853216474460    -0.335468579558    -0.445777324850    12.000000000000
         C           -2.175636525540    -0.262096579558    -0.180821324850    12.000000000000
         H           -1.337911825540    -0.827327579558     1.600948175150     1.007825032230
         H           -1.398513525540     0.795058420442     1.592630675150     1.007825032230
         H            0.318506474460    -2.309344579558     0.676899675150     1.007825032230
         H            2.726687474460     1.806525420442    -0.639478324850     1.007825032230
         H           -0.806294525540     2.242680420442    -0.189870324850     1.007825032230
         H            0.116329474460     2.683751420442     1.259541675150     1.007825032230
         H            0.767378474460     3.091097420442    -0.338038324850     1.007825032230
         H            2.651003474460    -2.470006579558    -0.178165324850     1.007825032230
         H            3.873064474460    -0.387697579558    -0.824456324850     1.007825032230

  Basis Set: AUG-CC-PVTZ
    Blend: AUG-CC-PVTZ
  Basis Set: (AUG-CC-PVTZ AUX)
    Blend: AUG-CC-PVTZ-JKFIT
	 Reference Energy          =    -495.9644901500848846 [Eh]
	 Singles Energy            =      -0.0000000000000000 [Eh]
	 Same-Spin Energy          =      -0.5329018343911702 [Eh]
	 Opposite-Spin Energy      =      -1.6346707449599713 [Eh]
	 Correlation Energy        =      -2.1675725793511416 [Eh]
	 Total Energy              =    -498.1320627294360293 [Eh]

	 ================> DF-SCS-MP2 Energies <==================
	-----------------------------------------------------------
	 SCS Same-Spin Scale       =       0.3333333333333333 [-]
	 SCS Opposite-Spin Scale   =       1.2000000000000000 [-]
	 SCS Same-Spin Energy      =      -0.1776339447970567 [Eh]
	 SCS Opposite-Spin Energy  =      -1.9616048939519655 [Eh]
	 SCS Correlation Energy    =      -2.1392388387490220 [Eh]
	 SCS Total Energy          =    -498.1037289888338933 [Eh]
	-----------------------------------------------------------

  Dipole Moment: [D]
     X:     8.4500      Y:     1.3423      Z:     3.0632     Total:     9.0878

*** Psi4 exiting successfully. Buy a developer a beer!
