                               Psi4 1.4a3.dev225

  ==> Input File <==

--------------------------------------------------------------------------
#psi4
#
memory 32 gb

molecule  {
-1 1
  O       -2.4775990    -1.4732410    -0.5357720
  O       -2.5836320     0.8103810    -0.7086120
  C        0.1769840    -0.1996970     0.5360780
  C        0.8528670     0.9715620     0.1268880
  C       -1.2378850    -0.1617980     1.0317040
  C        0.8256870    -1.4354030     0.3918760
  C        2.1654290     0.8711020    -0.3500530
  C        0.2071756     2.2203853     0.1967162
  C        2.1298550    -1.5237740    -0.0958170
  C        2.8103870    -0.3625320    -0.4658790
  C       -2.2184660    -0.2891600    -0.2009230
  H       -1.4126520    -1.0091000     1.7035120
  H       -1.4413430     0.7679950     1.5725290
  H        0.2756770    -2.3364080     0.6567980
  H        2.6838580     1.7794620    -0.6595800
  H       -0.8491240     2.2156170    -0.2099720
  H        0.0735000     2.6566880     1.2394400
  H        0.7245490     3.0640340    -0.3581400
  H        2.6081740    -2.4970700    -0.1982670
  H        3.8302350    -0.4147610    -0.8445580
units angstrom
no_reorient  #important for SAPT in psi4, default
symmetry c1  #important for SAPT in psi4, default
}

set PROPERTIES_ORIGIN ["COM"]
properties('MP2/aug-cc-pvtz', properties = ['dipole'])
--------------------------------------------------------------------------

    Molecular point group: c1
  Charge       = -1
  Multiplicity = 1
  Basis Set: AUG-CC-PVTZ
    Blend: AUG-CC-PVTZ
  Basis Set: (AUG-CC-PVTZ AUX)
    Blend: AUG-CC-PVTZ-JKFIT

    Orbital Energies [Eh]
    ---------------------

    Doubly Occupied:

       1A    -20.309231     2A    -20.309144     3A    -11.157156
       4A    -11.118616     5A    -11.116363     6A    -11.114921
       7A    -11.113272     8A    -11.111473     9A    -11.107236
      10A    -11.095939    11A    -11.073875    12A     -1.179380
      13A     -1.083508    14A     -1.036760    15A     -0.936010
      16A     -0.911072    17A     -0.822317    18A     -0.785294
      19A     -0.690829    20A     -0.663136    21A     -0.564283
      22A     -0.534523    23A     -0.525488    24A     -0.505837
      25A     -0.459265    26A     -0.457077    27A     -0.447083
      28A     -0.429602    29A     -0.420088    30A     -0.400140
      31A     -0.390021    32A     -0.367829    33A     -0.360212
      34A     -0.357804    35A     -0.331741    36A     -0.235446
      37A     -0.225417    38A     -0.210487    39A     -0.206093
      40A     -0.175064

  @DF-RHF Final Energy:  -495.98510282488132

   => Energetics <=

    Nuclear Repulsion Energy =            573.8261231400292672
    One-Electron Energy =               -1826.9443813474588296
    Two-Electron Energy =                 757.1331553825482388
    Total Energy =                       -495.9851028248813236
  Basis Set: (AUG-CC-PVTZ AUX)
    Blend: AUG-CC-PVTZ-RI
    Molecular point group: c1

    Geometry (in Angstrom), charge = -1, multiplicity = 1:

       Center              X                  Y                   Z               Mass
    ------------   -----------------  -----------------  -----------------  -----------------
         O           -2.438246634843    -1.437989239837    -0.516100323858    15.994914619570
         O           -2.544279634843     0.845632760163    -0.688940323858    15.994914619570
         C            0.216336365157    -0.164445239837     0.555749676142    12.000000000000
         C            0.892219365157     1.006813760163     0.146559676142    12.000000000000
         C           -1.198532634843    -0.126546239837     1.051375676142    12.000000000000
         C            0.865039365157    -1.400151239837     0.411547676142    12.000000000000
         C            2.204781365157     0.906353760163    -0.330381323858    12.000000000000
         C            0.246527965157     2.255637060163     0.216387876142    12.000000000000
         C            2.169207365157    -1.488522239837    -0.076145323858    12.000000000000
         C            2.849739365157    -0.327280239837    -0.446207323858    12.000000000000
         C           -2.179113634843    -0.253908239837    -0.181251323858    12.000000000000
         H           -1.373299634843    -0.973848239837     1.723183676142     1.007825032230
         H           -1.401990634843     0.803246760163     1.592200676142     1.007825032230
         H            0.315029365157    -2.301156239837     0.676469676142     1.007825032230
         H            2.723210365157     1.814713760163    -0.639908323858     1.007825032230
         H           -0.809771634843     2.250868760163    -0.190300323858     1.007825032230
         H            0.112852365157     2.691939760163     1.259111676142     1.007825032230
         H            0.763901365157     3.099285760163    -0.338468323858     1.007825032230
         H            2.647526365157    -2.461818239837    -0.178595323858     1.007825032230
         H            3.869587365157    -0.379509239837    -0.824886323858     1.007825032230

  Basis Set: AUG-CC-PVTZ
    Blend: AUG-CC-PVTZ
  Basis Set: (AUG-CC-PVTZ AUX)
    Blend: AUG-CC-PVTZ-JKFIT
	 Reference Energy          =    -495.9851028248813236 [Eh]
	 Singles Energy            =      -0.0000000000000000 [Eh]
	 Same-Spin Energy          =      -0.5344141508397282 [Eh]
	 Opposite-Spin Energy      =      -1.6370357610603241 [Eh]
	 Correlation Energy        =      -2.1714499119000523 [Eh]
	 Total Energy              =    -498.1565527367813502 [Eh]

	 ================> DF-SCS-MP2 Energies <==================
	-----------------------------------------------------------
	 SCS Same-Spin Scale       =       0.3333333333333333 [-]
	 SCS Opposite-Spin Scale   =       1.2000000000000000 [-]
	 SCS Same-Spin Energy      =      -0.1781380502799094 [Eh]
	 SCS Opposite-Spin Energy  =      -1.9644429132723888 [Eh]
	 SCS Correlation Energy    =      -2.1425809635522981 [Eh]
	 SCS Total Energy          =    -498.1276837884336146 [Eh]
	-----------------------------------------------------------

  Dipole Moment: [D]
     X:     8.4546      Y:     1.3604      Z:     2.9550     Total:     9.0589

*** Psi4 exiting successfully. Buy a developer a beer!
