                               Psi4 1.4a3.dev225

  ==> Input File <==

--------------------------------------------------------------------------
#psi4
#
memory 32 gb

molecule  {
-1 1
  O       -2.4775990    -1.4732410    -0.5357720
  O       -2.5836320     0.8103810    -0.7086120
  C        0.1769840    -0.1996970     0.5360780
  C        0.8528670     0.9715620     0.1268880
  C       -1.2378850    -0.1617980     1.0317040
  C        0.8256870    -1.4354030     0.3918760
  C        2.1654290     0.8711020    -0.3500530
  C        0.1613040     2.3091050     0.2016770
  C        2.1229281    -1.6205160    -0.0870884
  C        2.8103870    -0.3625320    -0.4658790
  C       -2.2184660    -0.2891600    -0.2009230
  H       -1.4126520    -1.0091000     1.7035120
  H       -1.4413430     0.7679950     1.5725290
  H        0.2756770    -2.3364080     0.6567980
  H        2.6838580     1.7794620    -0.6595800
  H       -0.8491240     2.2156170    -0.2099720
  H        0.0735000     2.6566880     1.2394400
  H        0.7245490     3.0640340    -0.3581400
  H        2.6081740    -2.4970700    -0.1982670
  H        3.8302350    -0.4147610    -0.8445580
units angstrom
no_reorient  #important for SAPT in psi4, default
symmetry c1  #important for SAPT in psi4, default
}

set PROPERTIES_ORIGIN ["COM"]
properties('MP2/aug-cc-pvtz', properties = ['dipole'])
--------------------------------------------------------------------------

    Molecular point group: c1
  Charge       = -1
  Multiplicity = 1
  Basis Set: AUG-CC-PVTZ
    Blend: AUG-CC-PVTZ
  Basis Set: (AUG-CC-PVTZ AUX)
    Blend: AUG-CC-PVTZ-JKFIT

    Orbital Energies [Eh]
    ---------------------

    Doubly Occupied:

       1A    -20.309101     2A    -20.308827     3A    -11.156739
       4A    -11.127344     5A    -11.118562     6A    -11.118164
       7A    -11.115995     8A    -11.113126     9A    -11.109625
      10A    -11.092856    11A    -11.074090    12A     -1.179117
      13A     -1.083263    14A     -1.026514    15A     -0.920746
      16A     -0.908442    17A     -0.824302    18A     -0.784907
      19A     -0.686475    20A     -0.673170    21A     -0.566563
      22A     -0.532304    23A     -0.519599    24A     -0.505936
      25A     -0.464482    26A     -0.460927    27A     -0.437344
      28A     -0.426890    29A     -0.425415    30A     -0.410876
      31A     -0.386310    32A     -0.369205    33A     -0.358188
      34A     -0.352001    35A     -0.333380    36A     -0.233221
      37A     -0.225376    38A     -0.212610    39A     -0.208459
      40A     -0.172000

  @DF-RHF Final Energy:  -495.98401624940533

   => Energetics <=

    Nuclear Repulsion Energy =            570.5726659896566844
    One-Electron Energy =               -1820.4484694528473483
    Two-Electron Energy =                 753.8917872137852783
    Total Energy =                       -495.9840162494052720
  Basis Set: (AUG-CC-PVTZ AUX)
    Blend: AUG-CC-PVTZ-RI
    Molecular point group: c1

    Geometry (in Angstrom), charge = -1, multiplicity = 1:

       Center              X                  Y                   Z               Mass
    ------------   -----------------  -----------------  -----------------  -----------------
         O           -2.433996125531    -1.437343409731    -0.517202380207    15.994914619570
         O           -2.540029125531     0.846278590269    -0.690042380207    15.994914619570
         C            0.220586874469    -0.163799409731     0.554647619793    12.000000000000
         C            0.896469874469     1.007459590269     0.145457619793    12.000000000000
         C           -1.194282125531    -0.125900409731     1.050273619793    12.000000000000
         C            0.869289874469    -1.399505409731     0.410445619793    12.000000000000
         C            2.209031874469     0.906999590269    -0.331483380207    12.000000000000
         C            0.204906874469     2.345002590269     0.220246619793    12.000000000000
         C            2.166530974469    -1.584618409731    -0.068518780207    12.000000000000
         C            2.853989874469    -0.326634409731    -0.447309380207    12.000000000000
         C           -2.174863125531    -0.253262409731    -0.182353380207    12.000000000000
         H           -1.369049125531    -0.973202409731     1.722081619793     1.007825032230
         H           -1.397740125531     0.803892590269     1.591098619793     1.007825032230
         H            0.319279874469    -2.300510409731     0.675367619793     1.007825032230
         H            2.727460874469     1.815359590269    -0.641010380207     1.007825032230
         H           -0.805521125531     2.251514590269    -0.191402380207     1.007825032230
         H            0.117102874469     2.692585590269     1.258009619793     1.007825032230
         H            0.768151874469     3.099931590269    -0.339570380207     1.007825032230
         H            2.651776874469    -2.461172409731    -0.179697380207     1.007825032230
         H            3.873837874469    -0.378863409731    -0.825988380207     1.007825032230

  Basis Set: AUG-CC-PVTZ
    Blend: AUG-CC-PVTZ
  Basis Set: (AUG-CC-PVTZ AUX)
    Blend: AUG-CC-PVTZ-JKFIT
	 Reference Energy          =    -495.9840162494053288 [Eh]
	 Singles Energy            =      -0.0000000000000000 [Eh]
	 Same-Spin Energy          =      -0.5331408363960475 [Eh]
	 Opposite-Spin Energy      =      -1.6367904404700442 [Eh]
	 Correlation Energy        =      -2.1699312768660919 [Eh]
	 Total Energy              =    -498.1539475262713950 [Eh]

	 ================> DF-SCS-MP2 Energies <==================
	-----------------------------------------------------------
	 SCS Same-Spin Scale       =       0.3333333333333333 [-]
	 SCS Opposite-Spin Scale   =       1.2000000000000000 [-]
	 SCS Same-Spin Energy      =      -0.1777136121320158 [Eh]
	 SCS Opposite-Spin Energy  =      -1.9641485285640530 [Eh]
	 SCS Correlation Energy    =      -2.1418621406960687 [Eh]
	 SCS Total Energy          =    -498.1258783901013771 [Eh]
	-----------------------------------------------------------

  Dipole Moment: [D]
     X:     8.4631      Y:     1.3482      Z:     2.9775     Total:     9.0723

*** Psi4 exiting successfully. Buy a developer a beer!
