                               Psi4 1.4a3.dev225

  ==> Input File <==

--------------------------------------------------------------------------
#psi4
#
memory 32 gb

molecule  {
-1 1
  O       -2.3989153    -1.5110078    -0.4372436
  O       -2.5836320     0.8103810    -0.7086120
  C        0.1769840    -0.1996970     0.5360780
  C        0.8528670     0.9715620     0.1268880
  C       -1.2378850    -0.1617980     1.0317040
  C        0.8256870    -1.4354030     0.3918760
  C        2.1654290     0.8711020    -0.3500530
  C        0.1613040     2.3091050     0.2016770
  C        2.1298550    -1.5237740    -0.0958170
  C        2.8103870    -0.3625320    -0.4658790
  C       -2.2184660    -0.2891600    -0.2009230
  H       -1.4126520    -1.0091000     1.7035120
  H       -1.4413430     0.7679950     1.5725290
  H        0.2756770    -2.3364080     0.6567980
  H        2.6838580     1.7794620    -0.6595800
  H       -0.8491240     2.2156170    -0.2099720
  H        0.0735000     2.6566880     1.2394400
  H        0.7245490     3.0640340    -0.3581400
  H        2.6081740    -2.4970700    -0.1982670
  H        3.8302350    -0.4147610    -0.8445580
units angstrom
no_reorient  #important for SAPT in psi4, default
symmetry c1  #important for SAPT in psi4, default
}

set PROPERTIES_ORIGIN ["COM"]
properties('MP2/aug-cc-pvtz', properties = ['dipole'])
--------------------------------------------------------------------------

    Molecular point group: c1
  Charge       = -1
  Multiplicity = 1
  Basis Set: AUG-CC-PVTZ
    Blend: AUG-CC-PVTZ
  Basis Set: (AUG-CC-PVTZ AUX)
    Blend: AUG-CC-PVTZ-JKFIT

    Orbital Energies [Eh]
    ---------------------

    Doubly Occupied:

       1A    -20.317534     2A    -20.312999     3A    -11.160959
       4A    -11.116163     5A    -11.114823     6A    -11.113944
       7A    -11.112711     8A    -11.109792     9A    -11.104006
      10A    -11.091256    11A    -11.066165    12A     -1.181583
      13A     -1.094571    14A     -1.029744    15A     -0.924371
      16A     -0.904779    17A     -0.818146    18A     -0.784532
      19A     -0.687219    20A     -0.661896    21A     -0.560577
      22A     -0.533380    23A     -0.520807    24A     -0.497492
      25A     -0.461272    26A     -0.451060    27A     -0.438809
      28A     -0.429605    29A     -0.425753    30A     -0.411127
      31A     -0.385623    32A     -0.374539    33A     -0.362841
      34A     -0.349905    35A     -0.332154    36A     -0.238165
      37A     -0.227754    38A     -0.217807    39A     -0.205958
      40A     -0.171008

  @DF-RHF Final Energy:  -495.99237177549446

   => Energetics <=

    Nuclear Repulsion Energy =            573.0450182365469800
    One-Electron Energy =               -1825.4691206062002493
    Two-Electron Energy =                 756.4317305941586937
    Total Energy =                       -495.9923717754944619
  Basis Set: (AUG-CC-PVTZ AUX)
    Blend: AUG-CC-PVTZ-RI
    Molecular point group: c1

    Geometry (in Angstrom), charge = -1, multiplicity = 1:

       Center              X                  Y                   Z               Mass
    ------------   -----------------  -----------------  -----------------  -----------------
         O           -2.364313227708    -1.478845794782    -0.428543882485    15.994914619570
         O           -2.549029927708     0.842543005218    -0.699912282485    15.994914619570
         C            0.211586072292    -0.167534994782     0.544777717515    12.000000000000
         C            0.887469072292     1.003724005218     0.135587717515    12.000000000000
         C           -1.203282927708    -0.129635994782     1.040403717515    12.000000000000
         C            0.860289072292    -1.403240994782     0.400575717515    12.000000000000
         C            2.200031072292     0.903264005218    -0.341353282485    12.000000000000
         C            0.195906072292     2.341267005218     0.210376717515    12.000000000000
         C            2.164457072292    -1.491611994782    -0.087117282485    12.000000000000
         C            2.844989072292    -0.330369994782    -0.457179282485    12.000000000000
         C           -2.183863927708    -0.256997994782    -0.192223282485    12.000000000000
         H           -1.378049927708    -0.976937994782     1.712211717515     1.007825032230
         H           -1.406740927708     0.800157005218     1.581228717515     1.007825032230
         H            0.310279072292    -2.304245994782     0.665497717515     1.007825032230
         H            2.718460072292     1.811624005218    -0.650880282485     1.007825032230
         H           -0.814521927708     2.247779005218    -0.201272282485     1.007825032230
         H            0.108102072292     2.688850005218     1.248139717515     1.007825032230
         H            0.759151072292     3.096196005218    -0.349440282485     1.007825032230
         H            2.642776072292    -2.464907994782    -0.189567282485     1.007825032230
         H            3.864837072292    -0.382598994782    -0.835858282485     1.007825032230

  Basis Set: AUG-CC-PVTZ
    Blend: AUG-CC-PVTZ
  Basis Set: (AUG-CC-PVTZ AUX)
    Blend: AUG-CC-PVTZ-JKFIT
	 Reference Energy          =    -495.9923717754944619 [Eh]
	 Singles Energy            =      -0.0000000000000000 [Eh]
	 Same-Spin Energy          =      -0.5335746126036701 [Eh]
	 Opposite-Spin Energy      =      -1.6363419077562380 [Eh]
	 Correlation Energy        =      -2.1699165203599082 [Eh]
	 Total Energy              =    -498.1622882958543528 [Eh]

	 ================> DF-SCS-MP2 Energies <==================
	-----------------------------------------------------------
	 SCS Same-Spin Scale       =       0.3333333333333333 [-]
	 SCS Opposite-Spin Scale   =       1.2000000000000000 [-]
	 SCS Same-Spin Energy      =      -0.1778582042012234 [Eh]
	 SCS Opposite-Spin Energy  =      -1.9636102893074856 [Eh]
	 SCS Correlation Energy    =      -2.1414684935087092 [Eh]
	 SCS Total Energy          =    -498.1338402690031444 [Eh]
	-----------------------------------------------------------

  Dipole Moment: [D]
     X:     8.1293      Y:     1.4199      Z:     2.7048     Total:     8.6844

*** Psi4 exiting successfully. Buy a developer a beer!
