                               Psi4 1.4a3.dev225

  ==> Input File <==

--------------------------------------------------------------------------
#psi4
#
memory 32 gb

molecule  {
-1 1
  O       -2.4775990    -1.4732410    -0.5357720
  O       -2.5836320     0.8103810    -0.7086120
  C        0.1769840    -0.1996970     0.5360780
  C        0.8528670     0.9715620     0.1268880
  C       -1.2378850    -0.1617980     1.0317040
  C        0.8256870    -1.4354030     0.3918760
  C        2.1654290     0.8711020    -0.3500530
  C        0.1613040     2.3091050     0.2016770
  C        2.1298550    -1.5237740    -0.0958170
  C        2.8103870    -0.3625320    -0.4658790
  C       -2.1874395    -0.2851301    -0.1619215
  H       -1.4126520    -1.0091000     1.7035120
  H       -1.4413430     0.7679950     1.5725290
  H        0.2756770    -2.3364080     0.6567980
  H        2.6838580     1.7794620    -0.6595800
  H       -0.8491240     2.2156170    -0.2099720
  H        0.0735000     2.6566880     1.2394400
  H        0.7245490     3.0640340    -0.3581400
  H        2.6081740    -2.4970700    -0.1982670
  H        3.8302350    -0.4147610    -0.8445580
units angstrom
no_reorient  #important for SAPT in psi4, default
symmetry c1  #important for SAPT in psi4, default
}

set PROPERTIES_ORIGIN ["COM"]
properties('MP2/aug-cc-pvtz', properties = ['dipole'])
--------------------------------------------------------------------------

    Molecular point group: c1
  Charge       = -1
  Multiplicity = 1
  Basis Set: AUG-CC-PVTZ
    Blend: AUG-CC-PVTZ
  Basis Set: (AUG-CC-PVTZ AUX)
    Blend: AUG-CC-PVTZ-JKFIT

    Orbital Energies [Eh]
    ---------------------

    Doubly Occupied:

       1A    -20.305982     2A    -20.305832     3A    -11.156374
       4A    -11.120784     5A    -11.119739     6A    -11.117802
       7A    -11.116410     8A    -11.115414     9A    -11.109626
      10A    -11.093207    11A    -11.078516    12A     -1.165820
      13A     -1.065907    14A     -1.034587    15A     -0.930094
      16A     -0.911062    17A     -0.826585    18A     -0.793288
      19A     -0.692802    20A     -0.668001    21A     -0.565889
      22A     -0.537336    23A     -0.525978    24A     -0.502230
      25A     -0.461300    26A     -0.454963    27A     -0.441426
      28A     -0.428987    29A     -0.425645    30A     -0.413598
      31A     -0.378966    32A     -0.372652    33A     -0.366084
      34A     -0.351873    35A     -0.325464    36A     -0.236605
      37A     -0.217431    38A     -0.210987    39A     -0.201590
      40A     -0.183939

  @DF-RHF Final Energy:  -495.99255574827208

   => Energetics <=

    Nuclear Repulsion Energy =            572.1949811206250160
    One-Electron Energy =               -1823.7135214529268978
    Two-Electron Energy =                 755.5259845840298567
    Total Energy =                       -495.9925557482720251
  Basis Set: (AUG-CC-PVTZ AUX)
    Blend: AUG-CC-PVTZ-RI
    Molecular point group: c1

    Geometry (in Angstrom), charge = -1, multiplicity = 1:

       Center              X                  Y                   Z               Mass
    ------------   -----------------  -----------------  -----------------  -----------------
         O           -2.437051539608    -1.445455986781    -0.519639480568    15.994914619570
         O           -2.543084539608     0.838166013219    -0.692479480568    15.994914619570
         C            0.217531460392    -0.171911986781     0.552210519432    12.000000000000
         C            0.893414460392     0.999347013219     0.143020519432    12.000000000000
         C           -1.197337539608    -0.134012986781     1.047836519432    12.000000000000
         C            0.866234460392    -1.407617986781     0.408008519432    12.000000000000
         C            2.205976460392     0.898887013219    -0.333920480568    12.000000000000
         C            0.201851460392     2.336890013219     0.217809519432    12.000000000000
         C            2.170402460392    -1.495988986781    -0.079684480568    12.000000000000
         C            2.850934460392    -0.334746986781    -0.449746480568    12.000000000000
         C           -2.146892039608    -0.257345086781    -0.145788980568    12.000000000000
         H           -1.372104539608    -0.981314986781     1.719644519432     1.007825032230
         H           -1.400795539608     0.795780013219     1.588661519432     1.007825032230
         H            0.316224460392    -2.308622986781     0.672930519432     1.007825032230
         H            2.724405460392     1.807247013219    -0.643447480568     1.007825032230
         H           -0.808576539608     2.243402013219    -0.193839480568     1.007825032230
         H            0.114047460392     2.684473013219     1.255572519432     1.007825032230
         H            0.765096460392     3.091819013219    -0.342007480568     1.007825032230
         H            2.648721460392    -2.469284986781    -0.182134480568     1.007825032230
         H            3.870782460392    -0.386975986781    -0.828425480568     1.007825032230

  Basis Set: AUG-CC-PVTZ
    Blend: AUG-CC-PVTZ
  Basis Set: (AUG-CC-PVTZ AUX)
    Blend: AUG-CC-PVTZ-JKFIT
	 Reference Energy          =    -495.9925557482720819 [Eh]
	 Singles Energy            =      -0.0000000000000000 [Eh]
	 Same-Spin Energy          =      -0.5337077244106688 [Eh]
	 Opposite-Spin Energy      =      -1.6372979165672397 [Eh]
	 Correlation Energy        =      -2.1710056409779086 [Eh]
	 Total Energy              =    -498.1635613892499919 [Eh]

	 ================> DF-SCS-MP2 Energies <==================
	-----------------------------------------------------------
	 SCS Same-Spin Scale       =       0.3333333333333333 [-]
	 SCS Opposite-Spin Scale   =       1.2000000000000000 [-]
	 SCS Same-Spin Energy      =      -0.1779025748035563 [Eh]
	 SCS Opposite-Spin Energy  =      -1.9647574998806876 [Eh]
	 SCS Correlation Energy    =      -2.1426600746842439 [Eh]
	 SCS Total Energy          =    -498.1352158229562974 [Eh]
	-----------------------------------------------------------

  Dipole Moment: [D]
     X:     8.8334      Y:     1.4239      Z:     3.1839     Total:     9.4970

*** Psi4 exiting successfully. Buy a developer a beer!
