                               Psi4 1.4a3.dev225

  ==> Input File <==

--------------------------------------------------------------------------
#psi4
#
memory 32 gb

molecule  {
-1 1
  O       -2.4775990    -1.4732410    -0.5357720
  O       -2.5836320     0.8103810    -0.7086120
  C        0.1769840    -0.1996970     0.5360780
  C        0.8528670     0.9715620     0.1268880
  C       -1.2378850    -0.1617980     1.0317040
  C        0.8256870    -1.4354030     0.3918760
  C        2.1654290     0.8711020    -0.3500530
  C        0.1613040     2.3091050     0.2016770
  C        2.1298550    -1.5237740    -0.0958170
  C        2.8103870    -0.3625320    -0.4658790
  C       -2.2184660    -0.2891600    -0.2009230
  H       -1.4126520    -1.0091000     1.7035120
  H       -1.4320503     0.7255277     1.5478274
  H        0.2756770    -2.3364080     0.6567980
  H        2.6838580     1.7794620    -0.6595800
  H       -0.8491240     2.2156170    -0.2099720
  H        0.0735000     2.6566880     1.2394400
  H        0.7245490     3.0640340    -0.3581400
  H        2.6081740    -2.4970700    -0.1982670
  H        3.8302350    -0.4147610    -0.8445580
units angstrom
no_reorient  #important for SAPT in psi4, default
symmetry c1  #important for SAPT in psi4, default
}

set PROPERTIES_ORIGIN ["COM"]
properties('MP2/aug-cc-pvtz', properties = ['dipole'])
--------------------------------------------------------------------------

    Molecular point group: c1
  Charge       = -1
  Multiplicity = 1
  Basis Set: AUG-CC-PVTZ
    Blend: AUG-CC-PVTZ
  Basis Set: (AUG-CC-PVTZ AUX)
    Blend: AUG-CC-PVTZ-JKFIT

    Orbital Energies [Eh]
    ---------------------

    Doubly Occupied:

       1A    -20.309228     2A    -20.308480     3A    -11.156438
       4A    -11.118238     5A    -11.117023     6A    -11.115888
       7A    -11.114573     8A    -11.112309     9A    -11.106613
      10A    -11.092370    11A    -11.067464    12A     -1.179018
      13A     -1.083167    14A     -1.032112    15A     -0.927307
      16A     -0.907950    17A     -0.822537    18A     -0.789730
      19A     -0.689789    20A     -0.665012    21A     -0.562173
      22A     -0.535157    23A     -0.523357    24A     -0.500113
      25A     -0.462194    26A     -0.453889    27A     -0.439660
      28A     -0.429663    29A     -0.427142    30A     -0.412620
      31A     -0.385987    32A     -0.374756    33A     -0.364610
      34A     -0.352664    35A     -0.333440    36A     -0.235009
      37A     -0.225516    38A     -0.211156    39A     -0.206968
      40A     -0.175915

  @DF-RHF Final Energy:  -495.99648331307617

   => Energetics <=

    Nuclear Repulsion Energy =            572.2773822454066703
    One-Electron Energy =               -1823.8932641913049792
    Two-Electron Energy =                 755.6193986328221399
    Total Energy =                       -495.9964833130761690
  Basis Set: (AUG-CC-PVTZ AUX)
    Blend: AUG-CC-PVTZ-RI
    Molecular point group: c1

    Geometry (in Angstrom), charge = -1, multiplicity = 1:

       Center              X                  Y                   Z               Mass
    ------------   -----------------  -----------------  -----------------  -----------------
         O           -2.434616600895    -1.444844432693    -0.516332677608    15.994914619570
         O           -2.540649600895     0.838777567307    -0.689172677608    15.994914619570
         C            0.219966399105    -0.171300432693     0.555517322392    12.000000000000
         C            0.895849399105     0.999958567307     0.146327322392    12.000000000000
         C           -1.194902600895    -0.133401432693     1.051143322392    12.000000000000
         C            0.868669399105    -1.407006432693     0.411315322392    12.000000000000
         C            2.208411399105     0.899498567307    -0.330613677608    12.000000000000
         C            0.204286399105     2.337501567307     0.221116322392    12.000000000000
         C            2.172837399105    -1.495377432693    -0.076377677608    12.000000000000
         C            2.853369399105    -0.334135432693    -0.446439677608    12.000000000000
         C           -2.175483600895    -0.260763432693    -0.181483677608    12.000000000000
         H           -1.369669600895    -0.980703432693     1.722951322392     1.007825032230
         H           -1.389067900895     0.753924267307     1.567266722392     1.007825032230
         H            0.318659399105    -2.308011432693     0.676237322392     1.007825032230
         H            2.726840399105     1.807858567307    -0.640140677608     1.007825032230
         H           -0.806141600895     2.244013567307    -0.190532677608     1.007825032230
         H            0.116482399105     2.685084567307     1.258879322392     1.007825032230
         H            0.767531399105     3.092430567307    -0.338700677608     1.007825032230
         H            2.651156399105    -2.468673432693    -0.178827677608     1.007825032230
         H            3.873217399105    -0.386364432693    -0.825118677608     1.007825032230

  Basis Set: AUG-CC-PVTZ
    Blend: AUG-CC-PVTZ
  Basis Set: (AUG-CC-PVTZ AUX)
    Blend: AUG-CC-PVTZ-JKFIT
	 Reference Energy          =    -495.9964833130761690 [Eh]
	 Singles Energy            =      -0.0000000000000000 [Eh]
	 Same-Spin Energy          =      -0.5329319001358961 [Eh]
	 Opposite-Spin Energy      =      -1.6351531665955747 [Eh]
	 Correlation Energy        =      -2.1680850667314706 [Eh]
	 Total Energy              =    -498.1645683798076334 [Eh]

	 ================> DF-SCS-MP2 Energies <==================
	-----------------------------------------------------------
	 SCS Same-Spin Scale       =       0.3333333333333333 [-]
	 SCS Opposite-Spin Scale   =       1.2000000000000000 [-]
	 SCS Same-Spin Energy      =      -0.1776439667119654 [Eh]
	 SCS Opposite-Spin Energy  =      -1.9621837999146896 [Eh]
	 SCS Correlation Energy    =      -2.1398277666266550 [Eh]
	 SCS Total Energy          =    -498.1363110797028071 [Eh]
	-----------------------------------------------------------

  Dipole Moment: [D]
     X:     8.4724      Y:     1.4141      Z:     2.9975     Total:     9.0975

*** Psi4 exiting successfully. Buy a developer a beer!
