                               Psi4 1.4a3.dev225

  ==> Input File <==

--------------------------------------------------------------------------
#psi4
#
memory 32 gb

molecule  {
-1 1
  O       -2.4775990    -1.4732410    -0.5357720
  O       -2.5836320     0.8103810    -0.7086120
  C        0.1769840    -0.1996970     0.5360780
  C        0.8528670     0.9715620     0.1268880
  C       -1.2378850    -0.1617980     1.0317040
  C        0.8256870    -1.4354030     0.3918760
  C        2.1654290     0.8711020    -0.3500530
  C        0.1613040     2.3091050     0.2016770
  C        2.1298550    -1.5237740    -0.0958170
  C        2.8103870    -0.3625320    -0.4658790
  C       -2.2184660    -0.2891600    -0.2009230
  H       -1.4126520    -1.0091000     1.7035120
  H       -1.4413430     0.7679950     1.5725290
  H        0.2756770    -2.3364080     0.6567980
  H        2.6838580     1.7794620    -0.6595800
  H       -0.8491240     2.2156170    -0.2099720
  H        0.0735000     2.6566880     1.2394400
  H        0.7245490     3.0640340    -0.3581400
  H        2.5642636    -2.4077200    -0.1888619
  H        3.8302350    -0.4147610    -0.8445580
units angstrom
no_reorient  #important for SAPT in psi4, default
symmetry c1  #important for SAPT in psi4, default
}

set PROPERTIES_ORIGIN ["COM"]
properties('MP2/aug-cc-pvtz', properties = ['dipole'])
--------------------------------------------------------------------------

    Molecular point group: c1
  Charge       = -1
  Multiplicity = 1
  Basis Set: AUG-CC-PVTZ
    Blend: AUG-CC-PVTZ
  Basis Set: (AUG-CC-PVTZ AUX)
    Blend: AUG-CC-PVTZ-JKFIT

    Orbital Energies [Eh]
    ---------------------

    Doubly Occupied:

       1A    -20.308934     2A    -20.308777     3A    -11.156638
       4A    -11.117292     5A    -11.116695     6A    -11.113924
       7A    -11.111925     8A    -11.106123     9A    -11.103341
      10A    -11.091867    11A    -11.073253    12A     -1.178998
      13A     -1.083148    14A     -1.032154    15A     -0.928881
      16A     -0.907558    17A     -0.822629    18A     -0.789118
      19A     -0.689876    20A     -0.671067    21A     -0.570276
      22A     -0.532797    23A     -0.522553    24A     -0.503116
      25A     -0.461025    26A     -0.457797    27A     -0.441749
      28A     -0.428007    29A     -0.425949    30A     -0.411987
      31A     -0.384732    32A     -0.374102    33A     -0.363914
      34A     -0.352772    35A     -0.332802    36A     -0.234706
      37A     -0.225312    38A     -0.211006    39A     -0.206631
      40A     -0.175749

  @DF-RHF Final Energy:  -495.99151264744927

   => Energetics <=

    Nuclear Repulsion Energy =            572.5776405908079596
    One-Electron Energy =               -1824.4799442015939803
    Two-Electron Energy =                 755.9107909633368081
    Total Energy =                       -495.9915126474492126
  Basis Set: (AUG-CC-PVTZ AUX)
    Blend: AUG-CC-PVTZ-RI
    Molecular point group: c1

    Geometry (in Angstrom), charge = -1, multiplicity = 1:

       Center              X                  Y                   Z               Mass
    ------------   -----------------  -----------------  -----------------  -----------------
         O           -2.434256884509    -1.445735674796    -0.516563279563    15.994914619570
         O           -2.540289884509     0.837886325204    -0.689403279563    15.994914619570
         C            0.220326115491    -0.172191674796     0.555286720437    12.000000000000
         C            0.896209115491     0.999067325204     0.146096720437    12.000000000000
         C           -1.194542884509    -0.134292674796     1.050912720437    12.000000000000
         C            0.869029115491    -1.407897674796     0.411084720437    12.000000000000
         C            2.208771115491     0.898607325204    -0.330844279563    12.000000000000
         C            0.204646115491     2.336610325204     0.220885720437    12.000000000000
         C            2.173197115491    -1.496268674796    -0.076608279563    12.000000000000
         C            2.853729115491    -0.335026674796    -0.446670279563    12.000000000000
         C           -2.175123884509    -0.261654674796    -0.181714279563    12.000000000000
         H           -1.369309884509    -0.981594674796     1.722720720437     1.007825032230
         H           -1.398000884509     0.795500325204     1.591737720437     1.007825032230
         H            0.319019115491    -2.308902674796     0.676006720437     1.007825032230
         H            2.727200115491     1.806967325204    -0.640371279563     1.007825032230
         H           -0.805781884509     2.243122325204    -0.190763279563     1.007825032230
         H            0.116842115491     2.684193325204     1.258648720437     1.007825032230
         H            0.767891115491     3.091539325204    -0.338931279563     1.007825032230
         H            2.607605715491    -2.380214674796    -0.169653179563     1.007825032230
         H            3.873577115491    -0.387255674796    -0.825349279563     1.007825032230

  Basis Set: AUG-CC-PVTZ
    Blend: AUG-CC-PVTZ
  Basis Set: (AUG-CC-PVTZ AUX)
    Blend: AUG-CC-PVTZ-JKFIT
	 Reference Energy          =    -495.9915126474492695 [Eh]
	 Singles Energy            =      -0.0000000000000000 [Eh]
	 Same-Spin Energy          =      -0.5328906357640049 [Eh]
	 Opposite-Spin Energy      =      -1.6349941093395042 [Eh]
	 Correlation Energy        =      -2.1678847451035090 [Eh]
	 Total Energy              =    -498.1593973925527621 [Eh]

	 ================> DF-SCS-MP2 Energies <==================
	-----------------------------------------------------------
	 SCS Same-Spin Scale       =       0.3333333333333333 [-]
	 SCS Opposite-Spin Scale   =       1.2000000000000000 [-]
	 SCS Same-Spin Energy      =      -0.1776302119213349 [Eh]
	 SCS Opposite-Spin Energy  =      -1.9619929312074049 [Eh]
	 SCS Correlation Energy    =      -2.1396231431287398 [Eh]
	 SCS Total Energy          =    -498.1311357905780142 [Eh]
	-----------------------------------------------------------

  Dipole Moment: [D]
     X:     8.5216      Y:     1.3363      Z:     2.9644     Total:     9.1209

*** Psi4 exiting successfully. Buy a developer a beer!
