                               Psi4 1.4a3.dev225

  ==> Input File <==

--------------------------------------------------------------------------
#psi4
#
memory 32 gb

molecule  {
-1 1
  O       -2.4775990    -1.4732410    -0.5357720
  O       -2.5836320     0.8103810    -0.7086120
  C        0.1769840    -0.1996970     0.5360780
  C        0.8528670     0.9715620     0.1268880
  C       -1.2378850    -0.1617980     1.0317040
  C        0.8256870    -1.4354030     0.3918760
  C        2.1654290     0.8711020    -0.3500530
  C        0.1521297     2.3268489     0.2026692
  C        2.1298550    -1.5237740    -0.0958170
  C        2.8103870    -0.3625320    -0.4658790
  C       -2.2184660    -0.2891600    -0.2009230
  H       -1.4126520    -1.0091000     1.7035120
  H       -1.4413430     0.7679950     1.5725290
  H        0.2756770    -2.3364080     0.6567980
  H        2.6838580     1.7794620    -0.6595800
  H       -0.8491240     2.2156170    -0.2099720
  H        0.0735000     2.6566880     1.2394400
  H        0.7245490     3.0640340    -0.3581400
  H        2.6081740    -2.4970700    -0.1982670
  H        3.8302350    -0.4147610    -0.8445580
units angstrom
no_reorient  #important for SAPT in psi4, default
symmetry c1  #important for SAPT in psi4, default
}

set PROPERTIES_ORIGIN ["COM"]
properties('MP2/aug-cc-pvtz', properties = ['dipole'])
--------------------------------------------------------------------------

    Molecular point group: c1
  Charge       = -1
  Multiplicity = 1
  Basis Set: AUG-CC-PVTZ
    Blend: AUG-CC-PVTZ
  Basis Set: (AUG-CC-PVTZ AUX)
    Blend: AUG-CC-PVTZ-JKFIT

    Orbital Energies [Eh]
    ---------------------

    Doubly Occupied:

       1A    -20.309214     2A    -20.309015     3A    -11.156906
       4A    -11.118423     5A    -11.117984     6A    -11.116053
       7A    -11.114750     8A    -11.112715     9A    -11.106934
      10A    -11.091787    11A    -11.073697    12A     -1.179253
      13A     -1.083402    14A     -1.031567    15A     -0.925625
      16A     -0.907003    17A     -0.821041    18A     -0.788301
      19A     -0.689710    20A     -0.664444    21A     -0.562063
      22A     -0.532947    23A     -0.522865    24A     -0.498813
      25A     -0.462189    26A     -0.453194    27A     -0.438348
      28A     -0.428970    29A     -0.426455    30A     -0.415050
      31A     -0.383014    32A     -0.375462    33A     -0.365320
      34A     -0.349914    35A     -0.332837    36A     -0.235123
      37A     -0.225629    38A     -0.211549    39A     -0.207232
      40A     -0.176406

  @DF-RHF Final Energy:  -495.99710987714218

   => Energetics <=

    Nuclear Repulsion Energy =            571.6757957851060610
    One-Electron Energy =               -1822.7034014756993656
    Two-Electron Energy =                 755.0304958134510116
    Total Energy =                       -495.9971098771421794
  Basis Set: (AUG-CC-PVTZ AUX)
    Blend: AUG-CC-PVTZ-RI
    Molecular point group: c1

    Geometry (in Angstrom), charge = -1, multiplicity = 1:

       Center              X                  Y                   Z               Mass
    ------------   -----------------  -----------------  -----------------  -----------------
         O           -2.433815200038    -1.446560023538    -0.516579566297    15.994914619570
         O           -2.539848200038     0.837061976462    -0.689419566297    15.994914619570
         C            0.220767799962    -0.173016023538     0.555270433703    12.000000000000
         C            0.896650799962     0.998242976462     0.146080433703    12.000000000000
         C           -1.194101200038    -0.135117023538     1.050896433703    12.000000000000
         C            0.869470799962    -1.408722023538     0.411068433703    12.000000000000
         C            2.209212799962     0.897782976462    -0.330860566297    12.000000000000
         C            0.195913499962     2.353529876462     0.221861633703    12.000000000000
         C            2.173638799962    -1.497093023538    -0.076624566297    12.000000000000
         C            2.854170799962    -0.335851023538    -0.446686566297    12.000000000000
         C           -2.174682200038    -0.262479023538    -0.181730566297    12.000000000000
         H           -1.368868200038    -0.982419023538     1.722704433703     1.007825032230
         H           -1.397559200038     0.794675976462     1.591721433703     1.007825032230
         H            0.319460799962    -2.309727023538     0.675990433703     1.007825032230
         H            2.727641799962     1.806142976462    -0.640387566297     1.007825032230
         H           -0.805340200038     2.242297976462    -0.190779566297     1.007825032230
         H            0.117283799962     2.683368976462     1.258632433703     1.007825032230
         H            0.768332799962     3.090714976462    -0.338947566297     1.007825032230
         H            2.651957799962    -2.470389023538    -0.179074566297     1.007825032230
         H            3.874018799962    -0.388080023538    -0.825365566297     1.007825032230

  Basis Set: AUG-CC-PVTZ
    Blend: AUG-CC-PVTZ
  Basis Set: (AUG-CC-PVTZ AUX)
    Blend: AUG-CC-PVTZ-JKFIT
	 Reference Energy          =    -495.9971098771421794 [Eh]
	 Singles Energy            =      -0.0000000000000000 [Eh]
	 Same-Spin Energy          =      -0.5328454307038940 [Eh]
	 Opposite-Spin Energy      =      -1.6353897538100175 [Eh]
	 Correlation Energy        =      -2.1682351845139114 [Eh]
	 Total Energy              =    -498.1653450616560690 [Eh]

	 ================> DF-SCS-MP2 Energies <==================
	-----------------------------------------------------------
	 SCS Same-Spin Scale       =       0.3333333333333333 [-]
	 SCS Opposite-Spin Scale   =       1.2000000000000000 [-]
	 SCS Same-Spin Energy      =      -0.1776151435679647 [Eh]
	 SCS Opposite-Spin Energy  =      -1.9624677045720209 [Eh]
	 SCS Correlation Energy    =      -2.1400828481399854 [Eh]
	 SCS Total Energy          =    -498.1371927252821479 [Eh]
	-----------------------------------------------------------

  Dipole Moment: [D]
     X:     8.4882      Y:     1.3952      Z:     2.9714     Total:     9.1008

*** Psi4 exiting successfully. Buy a developer a beer!
