                               Psi4 1.4a3.dev225

  ==> Input File <==

--------------------------------------------------------------------------
#psi4
#
memory 32 gb

molecule  {
-1 1
  O       -2.4646593    -1.4804493    -0.5195767
  O       -2.5836320     0.8103810    -0.7086120
  C        0.1769840    -0.1996970     0.5360780
  C        0.8528670     0.9715620     0.1268880
  C       -1.2378850    -0.1617980     1.0317040
  C        0.8256870    -1.4354030     0.3918760
  C        2.1654290     0.8711020    -0.3500530
  C        0.1613040     2.3091050     0.2016770
  C        2.1298550    -1.5237740    -0.0958170
  C        2.8103870    -0.3625320    -0.4658790
  C       -2.2184660    -0.2891600    -0.2009230
  H       -1.4126520    -1.0091000     1.7035120
  H       -1.4413430     0.7679950     1.5725290
  H        0.2756770    -2.3364080     0.6567980
  H        2.6838580     1.7794620    -0.6595800
  H       -0.8491240     2.2156170    -0.2099720
  H        0.0735000     2.6566880     1.2394400
  H        0.7245490     3.0640340    -0.3581400
  H        2.6081740    -2.4970700    -0.1982670
  H        3.8302350    -0.4147610    -0.8445580
units angstrom
no_reorient  #important for SAPT in psi4, default
symmetry c1  #important for SAPT in psi4, default
}

set PROPERTIES_ORIGIN ["COM"]
properties('MP2/aug-cc-pvtz', properties = ['dipole'])
--------------------------------------------------------------------------

    Molecular point group: c1
  Charge       = -1
  Multiplicity = 1
  Basis Set: AUG-CC-PVTZ
    Blend: AUG-CC-PVTZ
  Basis Set: (AUG-CC-PVTZ AUX)
    Blend: AUG-CC-PVTZ-JKFIT

    Orbital Energies [Eh]
    ---------------------

    Doubly Occupied:

       1A    -20.310609     2A    -20.309727     3A    -11.157589
       4A    -11.118069     5A    -11.116810     6A    -11.115740
       7A    -11.114372     8A    -11.112251     9A    -11.106490
      10A    -11.092072    11A    -11.072475    12A     -1.179583
      13A     -1.085314    14A     -1.031830    15A     -0.926506
      16A     -0.907295    17A     -0.820653    18A     -0.787285
      19A     -0.689445    20A     -0.663917    21A     -0.562052
      22A     -0.533148    23A     -0.522822    24A     -0.499344
      25A     -0.461378    26A     -0.452941    27A     -0.439681
      28A     -0.428441    29A     -0.426124    30A     -0.412211
      31A     -0.384560    32A     -0.374668    33A     -0.364389
      34A     -0.351407    35A     -0.332845    36A     -0.235027
      37A     -0.226762    38A     -0.212267    39A     -0.207171
      40A     -0.175443

  @DF-RHF Final Energy:  -495.99688642682770

   => Energetics <=

    Nuclear Repulsion Energy =            572.1785362822416801
    One-Electron Energy =               -1823.7094150938853545
    Two-Electron Energy =                 755.5339923848158605
    Total Energy =                       -495.9968864268277002
  Basis Set: (AUG-CC-PVTZ AUX)
    Blend: AUG-CC-PVTZ-RI
    Molecular point group: c1

    Geometry (in Angstrom), charge = -1, multiplicity = 1:

       Center              X                  Y                   Z               Mass
    ------------   -----------------  -----------------  -----------------  -----------------
         O           -2.423002566020    -1.451566375446    -0.502042226976    15.994914619570
         O           -2.541975266020     0.839263924554    -0.691077526976    15.994914619570
         C            0.218640733980    -0.170814075446     0.553612473024    12.000000000000
         C            0.894523733980     1.000444924554     0.144422473024    12.000000000000
         C           -1.196228266020    -0.132915075446     1.049238473024    12.000000000000
         C            0.867343733980    -1.406520075446     0.409410473024    12.000000000000
         C            2.207085733980     0.899984924554    -0.332518526976    12.000000000000
         C            0.202960733980     2.337987924554     0.219211473024    12.000000000000
         C            2.171511733980    -1.494891075446    -0.078282526976    12.000000000000
         C            2.852043733980    -0.333649075446    -0.448344526976    12.000000000000
         C           -2.176809266020    -0.260277075446    -0.183388526976    12.000000000000
         H           -1.370995266020    -0.980217075446     1.721046473024     1.007825032230
         H           -1.399686266020     0.796877924554     1.590063473024     1.007825032230
         H            0.317333733980    -2.307525075446     0.674332473024     1.007825032230
         H            2.725514733980     1.808344924554    -0.642045526976     1.007825032230
         H           -0.807467266020     2.244499924554    -0.192437526976     1.007825032230
         H            0.115156733980     2.685570924554     1.256974473024     1.007825032230
         H            0.766205733980     3.092916924554    -0.340605526976     1.007825032230
         H            2.649830733980    -2.468187075446    -0.180732526976     1.007825032230
         H            3.871891733980    -0.385878075446    -0.827023526976     1.007825032230

  Basis Set: AUG-CC-PVTZ
    Blend: AUG-CC-PVTZ
  Basis Set: (AUG-CC-PVTZ AUX)
    Blend: AUG-CC-PVTZ-JKFIT
	 Reference Energy          =    -495.9968864268277002 [Eh]
	 Singles Energy            =      -0.0000000000000000 [Eh]
	 Same-Spin Energy          =      -0.5330853672707023 [Eh]
	 Opposite-Spin Energy      =      -1.6356121656712217 [Eh]
	 Correlation Energy        =      -2.1686975329419242 [Eh]
	 Total Energy              =    -498.1655839597696058 [Eh]

	 ================> DF-SCS-MP2 Energies <==================
	-----------------------------------------------------------
	 SCS Same-Spin Scale       =       0.3333333333333333 [-]
	 SCS Opposite-Spin Scale   =       1.2000000000000000 [-]
	 SCS Same-Spin Energy      =      -0.1776951224235674 [Eh]
	 SCS Opposite-Spin Energy  =      -1.9627345988054659 [Eh]
	 SCS Correlation Energy    =      -2.1404297212290331 [Eh]
	 SCS Total Energy          =    -498.1373161480567546 [Eh]
	-----------------------------------------------------------

  Dipole Moment: [D]
     X:     8.4256      Y:     1.3992      Z:     2.9260     Total:     9.0283

*** Psi4 exiting successfully. Buy a developer a beer!
