                               Psi4 1.4a3.dev225

  ==> Input File <==

--------------------------------------------------------------------------
#psi4
#
memory 32 gb

molecule  {
-1 1
  O       -2.4775990    -1.4732410    -0.5357720
  O       -2.5836320     0.8103810    -0.7086120
  C        0.1769840    -0.1996970     0.5360780
  C        0.8312569     0.9612579     0.1159714
  C       -1.2378850    -0.1617980     1.0317040
  C        0.8256870    -1.4354030     0.3918760
  C        2.1654290     0.8711020    -0.3500530
  C        0.1613040     2.3091050     0.2016770
  C        2.1298550    -1.5237740    -0.0958170
  C        2.8103870    -0.3625320    -0.4658790
  C       -2.2184660    -0.2891600    -0.2009230
  H       -1.4126520    -1.0091000     1.7035120
  H       -1.4413430     0.7679950     1.5725290
  H        0.2756770    -2.3364080     0.6567980
  H        2.6838580     1.7794620    -0.6595800
  H       -0.8491240     2.2156170    -0.2099720
  H        0.0735000     2.6566880     1.2394400
  H        0.7245490     3.0640340    -0.3581400
  H        2.6081740    -2.4970700    -0.1982670
  H        3.8302350    -0.4147610    -0.8445580
units angstrom
no_reorient  #important for SAPT in psi4, default
symmetry c1  #important for SAPT in psi4, default
}

set PROPERTIES_ORIGIN ["COM"]
properties('MP2/aug-cc-pvtz', properties = ['dipole'])
--------------------------------------------------------------------------

    Molecular point group: c1
  Charge       = -1
  Multiplicity = 1
  Basis Set: AUG-CC-PVTZ
    Blend: AUG-CC-PVTZ
  Basis Set: (AUG-CC-PVTZ AUX)
    Blend: AUG-CC-PVTZ-JKFIT

    Orbital Energies [Eh]
    ---------------------

    Doubly Occupied:

       1A    -20.309016     2A    -20.308865     3A    -11.156692
       4A    -11.118754     5A    -11.117331     6A    -11.116169
       7A    -11.115853     8A    -11.110742     9A    -11.107675
      10A    -11.092043    11A    -11.073250    12A     -1.179099
      13A     -1.083242    14A     -1.032402    15A     -0.928065
      16A     -0.906257    17A     -0.820817    18A     -0.787571
      19A     -0.692342    20A     -0.662536    21A     -0.562374
      22A     -0.533056    23A     -0.523241    24A     -0.499943
      25A     -0.461591    26A     -0.452837    27A     -0.440438
      28A     -0.428023    29A     -0.425544    30A     -0.412283
      31A     -0.383430    32A     -0.374627    33A     -0.364543
      34A     -0.353487    35A     -0.331534    36A     -0.235749
      37A     -0.225516    38A     -0.210890    39A     -0.205612
      40A     -0.177363

  @DF-RHF Final Energy:  -495.99656512114939

   => Energetics <=

    Nuclear Repulsion Energy =            572.2016726762789176
    One-Electron Energy =               -1823.7548730039138718
    Two-Electron Energy =                 755.5566352064854527
    Total Energy =                       -495.9965651211493878
  Basis Set: (AUG-CC-PVTZ AUX)
    Blend: AUG-CC-PVTZ-RI
    Molecular point group: c1

    Geometry (in Angstrom), charge = -1, multiplicity = 1:

       Center              X                  Y                   Z               Mass
    ------------   -----------------  -----------------  -----------------  -----------------
         O           -2.432814063951    -1.444302037323    -0.515620856006    15.994914619570
         O           -2.538847063951     0.839319962677    -0.688460856006    15.994914619570
         C            0.221768936049    -0.170758037323     0.556229143994    12.000000000000
         C            0.876041836049     0.990196862677     0.136122543994    12.000000000000
         C           -1.193100063951    -0.132859037323     1.051855143994    12.000000000000
         C            0.870471936049    -1.406464037323     0.412027143994    12.000000000000
         C            2.210213936049     0.900040962677    -0.329901856006    12.000000000000
         C            0.206088936049     2.338043962677     0.221828143994    12.000000000000
         C            2.174639936049    -1.494835037323    -0.075665856006    12.000000000000
         C            2.855171936049    -0.333593037323    -0.445727856006    12.000000000000
         C           -2.173681063951    -0.260221037323    -0.180771856006    12.000000000000
         H           -1.367867063951    -0.980161037323     1.723663143994     1.007825032230
         H           -1.396558063951     0.796933962677     1.592680143994     1.007825032230
         H            0.320461936049    -2.307469037323     0.676949143994     1.007825032230
         H            2.728642936049     1.808400962677    -0.639428856006     1.007825032230
         H           -0.804339063951     2.244555962677    -0.189820856006     1.007825032230
         H            0.118284936049     2.685626962677     1.259591143994     1.007825032230
         H            0.769333936049     3.092972962677    -0.337988856006     1.007825032230
         H            2.652958936049    -2.468131037323    -0.178115856006     1.007825032230
         H            3.875019936049    -0.385822037323    -0.824406856006     1.007825032230

  Basis Set: AUG-CC-PVTZ
    Blend: AUG-CC-PVTZ
  Basis Set: (AUG-CC-PVTZ AUX)
    Blend: AUG-CC-PVTZ-JKFIT
	 Reference Energy          =    -495.9965651211493878 [Eh]
	 Singles Energy            =      -0.0000000000000000 [Eh]
	 Same-Spin Energy          =      -0.5330322837990229 [Eh]
	 Opposite-Spin Energy      =      -1.6355913460102709 [Eh]
	 Correlation Energy        =      -2.1686236298092938 [Eh]
	 Total Energy              =    -498.1651887509586913 [Eh]

	 ================> DF-SCS-MP2 Energies <==================
	-----------------------------------------------------------
	 SCS Same-Spin Scale       =       0.3333333333333333 [-]
	 SCS Opposite-Spin Scale   =       1.2000000000000000 [-]
	 SCS Same-Spin Energy      =      -0.1776774279330076 [Eh]
	 SCS Opposite-Spin Energy  =      -1.9627096152123249 [Eh]
	 SCS Correlation Energy    =      -2.1403870431453327 [Eh]
	 SCS Total Energy          =    -498.1369521642947120 [Eh]
	-----------------------------------------------------------

  Dipole Moment: [D]
     X:     8.4964      Y:     1.3906      Z:     2.9665     Total:     9.1062

*** Psi4 exiting successfully. Buy a developer a beer!
