                               Psi4 1.4a3.dev225

  ==> Input File <==

--------------------------------------------------------------------------
#psi4
#
memory 32 gb

molecule  {
-1 1
  O       -2.4775990    -1.4732410    -0.5357720
  O       -2.5836320     0.8103810    -0.7086120
  C        0.1769840    -0.1996970     0.5360780
  C        0.8528670     0.9715620     0.1268880
  C       -1.2378850    -0.1617980     1.0317040
  C        0.8256870    -1.4354030     0.3918760
  C        2.1654290     0.8711020    -0.3500530
  C        0.1613040     2.3091050     0.2016770
  C        2.1298550    -1.5237740    -0.0958170
  C        2.8103870    -0.3625320    -0.4658790
  C       -2.2184660    -0.2891600    -0.2009230
  H       -1.4126520    -1.0091000     1.7035120
  H       -1.4413430     0.7679950     1.5725290
  H        0.2756770    -2.3364080     0.6567980
  H        2.7313884     1.8627420    -0.6879579
  H       -0.8491240     2.2156170    -0.2099720
  H        0.0735000     2.6566880     1.2394400
  H        0.7245490     3.0640340    -0.3581400
  H        2.6081740    -2.4970700    -0.1982670
  H        3.8302350    -0.4147610    -0.8445580
units angstrom
no_reorient  #important for SAPT in psi4, default
symmetry c1  #important for SAPT in psi4, default
}

set PROPERTIES_ORIGIN ["COM"]
properties('MP2/aug-cc-pvtz', properties = ['dipole'])
--------------------------------------------------------------------------

    Molecular point group: c1
  Charge       = -1
  Multiplicity = 1
  Basis Set: AUG-CC-PVTZ
    Blend: AUG-CC-PVTZ
  Basis Set: (AUG-CC-PVTZ AUX)
    Blend: AUG-CC-PVTZ-JKFIT

    Orbital Energies [Eh]
    ---------------------

    Doubly Occupied:

       1A    -20.309505     2A    -20.309374     3A    -11.157306
       4A    -11.127132     5A    -11.119677     6A    -11.118469
       7A    -11.117134     8A    -11.113864     9A    -11.107718
      10A    -11.092204    11A    -11.074320    12A     -1.179596
      13A     -1.083732    14A     -1.032697    15A     -0.927782
      16A     -0.906166    17A     -0.820575    18A     -0.788243
      19A     -0.684239    20A     -0.664996    21A     -0.559493
      22A     -0.533615    23A     -0.523749    24A     -0.492378
      25A     -0.461488    26A     -0.449991    27A     -0.440111
      28A     -0.428794    29A     -0.424955    30A     -0.410285
      31A     -0.384937    32A     -0.374279    33A     -0.365508
      34A     -0.350048    35A     -0.333348    36A     -0.235768
      37A     -0.225926    38A     -0.211873    39A     -0.207860
      40A     -0.176938

  @DF-RHF Final Energy:  -495.98991503462241

   => Energetics <=

    Nuclear Repulsion Energy =            571.5274996192148365
    One-Electron Energy =               -1822.3826872760007518
    Two-Electron Energy =                 754.8652726221633884
    Total Energy =                       -495.9899150346224133
  Basis Set: (AUG-CC-PVTZ AUX)
    Blend: AUG-CC-PVTZ-RI
    Molecular point group: c1

    Geometry (in Angstrom), charge = -1, multiplicity = 1:

       Center              X                  Y                   Z               Mass
    ------------   -----------------  -----------------  -----------------  -----------------
         O           -2.434875133334    -1.445694634359    -0.516307821437    15.994914619570
         O           -2.540908133334     0.837927365641    -0.689147821437    15.994914619570
         C            0.219707866666    -0.172150634359     0.555542178563    12.000000000000
         C            0.895590866666     0.999108365641     0.146352178563    12.000000000000
         C           -1.195161133334    -0.134251634359     1.051168178563    12.000000000000
         C            0.868410866666    -1.407856634359     0.411340178563    12.000000000000
         C            2.208152866666     0.898648365641    -0.330588821437    12.000000000000
         C            0.204027866666     2.336651365641     0.221141178563    12.000000000000
         C            2.172578866666    -1.496227634359    -0.076352821437    12.000000000000
         C            2.853110866666    -0.334985634359    -0.446414821437    12.000000000000
         C           -2.175742133334    -0.261613634359    -0.181458821437    12.000000000000
         H           -1.369928133334    -0.981553634359     1.722976178563     1.007825032230
         H           -1.398619133334     0.795541365641     1.591993178563     1.007825032230
         H            0.318400866666    -2.308861634359     0.676262178563     1.007825032230
         H            2.774112266666     1.890288365641    -0.668493721437     1.007825032230
         H           -0.806400133334     2.243163365641    -0.190507821437     1.007825032230
         H            0.116223866666     2.684234365641     1.258904178563     1.007825032230
         H            0.767272866666     3.091580365641    -0.338675821437     1.007825032230
         H            2.650897866666    -2.469523634359    -0.178802821437     1.007825032230
         H            3.872958866666    -0.387214634359    -0.825093821437     1.007825032230

  Basis Set: AUG-CC-PVTZ
    Blend: AUG-CC-PVTZ
  Basis Set: (AUG-CC-PVTZ AUX)
    Blend: AUG-CC-PVTZ-JKFIT
	 Reference Energy          =    -495.9899150346224133 [Eh]
	 Singles Energy            =      -0.0000000000000000 [Eh]
	 Same-Spin Energy          =      -0.5332640728871767 [Eh]
	 Opposite-Spin Energy      =      -1.6364660633156978 [Eh]
	 Correlation Energy        =      -2.1697301362028742 [Eh]
	 Total Energy              =    -498.1596451708252857 [Eh]

	 ================> DF-SCS-MP2 Energies <==================
	-----------------------------------------------------------
	 SCS Same-Spin Scale       =       0.3333333333333333 [-]
	 SCS Opposite-Spin Scale   =       1.2000000000000000 [-]
	 SCS Same-Spin Energy      =      -0.1777546909623922 [Eh]
	 SCS Opposite-Spin Energy  =      -1.9637592759788371 [Eh]
	 SCS Correlation Energy    =      -2.1415139669412295 [Eh]
	 SCS Total Energy          =    -498.1314290015636175 [Eh]
	-----------------------------------------------------------

  Dipole Moment: [D]
     X:     8.4303      Y:     1.3215      Z:     2.9923     Total:     9.0426

*** Psi4 exiting successfully. Buy a developer a beer!
