                               Psi4 1.4a3.dev225

  ==> Input File <==

--------------------------------------------------------------------------
#psi4
#
memory 32 gb

molecule  {
-1 1
  O       -2.4775990    -1.4732410    -0.5357720
  O       -2.5836320     0.8103810    -0.7086120
  C        0.1769840    -0.1996970     0.5360780
  C        0.8528670     0.9715620     0.1268880
  C       -1.2378850    -0.1617980     1.0317040
  C        0.8256870    -1.4354030     0.3918760
  C        2.1654290     0.8711020    -0.3500530
  C        0.1613040     2.3091050     0.2016770
  C        2.1298550    -1.5237740    -0.0958170
  C        2.8103870    -0.3625320    -0.4658790
  C       -2.2574893    -0.3817275    -0.1553796
  H       -1.4126520    -1.0091000     1.7035120
  H       -1.4413430     0.7679950     1.5725290
  H        0.2756770    -2.3364080     0.6567980
  H        2.6838580     1.7794620    -0.6595800
  H       -0.8491240     2.2156170    -0.2099720
  H        0.0735000     2.6566880     1.2394400
  H        0.7245490     3.0640340    -0.3581400
  H        2.6081740    -2.4970700    -0.1982670
  H        3.8302350    -0.4147610    -0.8445580
units angstrom
no_reorient  #important for SAPT in psi4, default
symmetry c1  #important for SAPT in psi4, default
}

set PROPERTIES_ORIGIN ["COM"]
properties('MP2/aug-cc-pvtz', properties = ['dipole'])
--------------------------------------------------------------------------

    Molecular point group: c1
  Charge       = -1
  Multiplicity = 1
  Basis Set: AUG-CC-PVTZ
    Blend: AUG-CC-PVTZ
  Basis Set: (AUG-CC-PVTZ AUX)
    Blend: AUG-CC-PVTZ-JKFIT

    Orbital Energies [Eh]
    ---------------------

    Doubly Occupied:

       1A    -20.331519     2A    -20.287961     3A    -11.155432
       4A    -11.118765     5A    -11.116888     6A    -11.116448
       7A    -11.114312     8A    -11.113127     9A    -11.108057
      10A    -11.088440    11A    -11.074432    12A     -1.216758
      13A     -1.051650    14A     -1.031482    15A     -0.925886
      16A     -0.907827    17A     -0.820423    18A     -0.786948
      19A     -0.690533    20A     -0.664406    21A     -0.563415
      22A     -0.536336    23A     -0.521666    24A     -0.500157
      25A     -0.462347    26A     -0.454415    27A     -0.442780
      28A     -0.431521    29A     -0.426218    30A     -0.412036
      31A     -0.385505    32A     -0.376622    33A     -0.364081
      34A     -0.350462    35A     -0.340134    36A     -0.235411
      37A     -0.216021    38A     -0.208161    39A     -0.201465
      40A     -0.173906

  @DF-RHF Final Energy:  -495.98173450750670

   => Energetics <=

    Nuclear Repulsion Energy =            571.6114458469298825
    One-Electron Energy =               -1822.5384526701272989
    Two-Electron Energy =                 754.9452723156906586
    Total Energy =                       -495.9817345075067578
  Basis Set: (AUG-CC-PVTZ AUX)
    Blend: AUG-CC-PVTZ-RI
    Molecular point group: c1

    Geometry (in Angstrom), charge = -1, multiplicity = 1:

       Center              X                  Y                   Z               Mass
    ------------   -----------------  -----------------  -----------------  -----------------
         O           -2.431412225475    -1.437679475171    -0.520166132023    15.994914619570
         O           -2.537445225475     0.845942524829    -0.693006132023    15.994914619570
         C            0.223170774525    -0.164135475171     0.551683867977    12.000000000000
         C            0.899053774525     1.007123524829     0.142493867977    12.000000000000
         C           -1.191698225475    -0.126236475171     1.047309867977    12.000000000000
         C            0.871873774525    -1.399841475171     0.407481867977    12.000000000000
         C            2.211615774525     0.906663524829    -0.334447132023    12.000000000000
         C            0.207490774525     2.344666524829     0.217282867977    12.000000000000
         C            2.176041774525    -1.488212475171    -0.080211132023    12.000000000000
         C            2.856573774525    -0.326970475171    -0.450273132023    12.000000000000
         C           -2.211302525475    -0.346165975171    -0.139773732023    12.000000000000
         H           -1.366465225475    -0.973538475171     1.719117867977     1.007825032230
         H           -1.395156225475     0.803556524829     1.588134867977     1.007825032230
         H            0.321863774525    -2.300846475171     0.672403867977     1.007825032230
         H            2.730044774525     1.815023524829    -0.643974132023     1.007825032230
         H           -0.802937225475     2.251178524829    -0.194366132023     1.007825032230
         H            0.119686774525     2.692249524829     1.255045867977     1.007825032230
         H            0.770735774525     3.099595524829    -0.342534132023     1.007825032230
         H            2.654360774525    -2.461508475171    -0.182661132023     1.007825032230
         H            3.876421774525    -0.379199475171    -0.828952132023     1.007825032230

  Basis Set: AUG-CC-PVTZ
    Blend: AUG-CC-PVTZ
  Basis Set: (AUG-CC-PVTZ AUX)
    Blend: AUG-CC-PVTZ-JKFIT
	 Reference Energy          =    -495.9817345075067010 [Eh]
	 Singles Energy            =      -0.0000000000000000 [Eh]
	 Same-Spin Energy          =      -0.5330433078016860 [Eh]
	 Opposite-Spin Energy      =      -1.6357852163934072 [Eh]
	 Correlation Energy        =      -2.1688285241950931 [Eh]
	 Total Energy              =    -498.1505630317017790 [Eh]

	 ================> DF-SCS-MP2 Energies <==================
	-----------------------------------------------------------
	 SCS Same-Spin Scale       =       0.3333333333333333 [-]
	 SCS Opposite-Spin Scale   =       1.2000000000000000 [-]
	 SCS Same-Spin Energy      =      -0.1776811026005620 [Eh]
	 SCS Opposite-Spin Energy  =      -1.9629422596720887 [Eh]
	 SCS Correlation Energy    =      -2.1406233622726507 [Eh]
	 SCS Total Energy          =    -498.1223578697793641 [Eh]
	-----------------------------------------------------------

  Dipole Moment: [D]
     X:     8.5270      Y:     0.4554      Z:     3.0479     Total:     9.0668

*** Psi4 exiting successfully. Buy a developer a beer!
