                               Psi4 1.4a3.dev225

  ==> Input File <==

--------------------------------------------------------------------------
#psi4
#
memory 32 gb

molecule  {
-1 1
  O       -2.4775990    -1.4732410    -0.5357720
  O       -2.5836320     0.8103810    -0.7086120
  C        0.1769840    -0.1996970     0.5360780
  C        0.8528670     0.9715620     0.1268880
  C       -1.2378850    -0.1617980     1.0317040
  C        0.8256870    -1.4354030     0.3918760
  C        2.1654290     0.8711020    -0.3500530
  C        0.1613040     2.3091050     0.2016770
  C        2.1298550    -1.5237740    -0.0958170
  C        2.8103870    -0.3625320    -0.4658790
  C       -2.2184660    -0.2891600    -0.2009230
  H       -1.4126520    -1.0091000     1.7035120
  H       -1.4413430     0.7679950     1.5725290
  H        0.2756770    -2.3364080     0.6567980
  H        2.6838580     1.7794620    -0.6595800
  H       -0.8491240     2.2156170    -0.2099720
  H        0.0735000     2.6566880     1.2394400
  H        0.7245490     3.0640340    -0.3581400
  H        2.5993919    -2.4792000    -0.1963860
  H        3.8302350    -0.4147610    -0.8445580
units angstrom
no_reorient  #important for SAPT in psi4, default
symmetry c1  #important for SAPT in psi4, default
}

set PROPERTIES_ORIGIN ["COM"]
properties('MP2/aug-cc-pvtz', properties = ['dipole'])
--------------------------------------------------------------------------

    Molecular point group: c1
  Charge       = -1
  Multiplicity = 1
  Basis Set: AUG-CC-PVTZ
    Blend: AUG-CC-PVTZ
  Basis Set: (AUG-CC-PVTZ AUX)
    Blend: AUG-CC-PVTZ-JKFIT

    Orbital Energies [Eh]
    ---------------------

    Doubly Occupied:

       1A    -20.309141     2A    -20.308970     3A    -11.156867
       4A    -11.118128     5A    -11.117075     6A    -11.114541
       7A    -11.113664     8A    -11.112548     9A    -11.106729
      10A    -11.092135    11A    -11.073616    12A     -1.179202
      13A     -1.083349    14A     -1.032176    15A     -0.927209
      16A     -0.907712    17A     -0.821355    18A     -0.788015
      19A     -0.689817    20A     -0.665479    21A     -0.563823
      22A     -0.533055    23A     -0.523058    24A     -0.500356
      25A     -0.461316    26A     -0.454156    27A     -0.440456
      28A     -0.428299    29A     -0.426020    30A     -0.412318
      31A     -0.384405    32A     -0.374554    33A     -0.364514
      34A     -0.351944    35A     -0.332904    36A     -0.235064
      37A     -0.225518    38A     -0.211274    39A     -0.207024
      40A     -0.176133

  @DF-RHF Final Energy:  -495.99735733382909

   => Energetics <=

    Nuclear Repulsion Energy =            572.1286446825306484
    One-Electron Energy =               -1823.6041707212214078
    Two-Electron Energy =                 755.4781687048616732
    Total Energy =                       -495.9973573338290862
  Basis Set: (AUG-CC-PVTZ AUX)
    Blend: AUG-CC-PVTZ-RI
    Molecular point group: c1

    Geometry (in Angstrom), charge = -1, multiplicity = 1:

       Center              X                  Y                   Z               Mass
    ------------   -----------------  -----------------  -----------------  -----------------
         O           -2.434494393698    -1.445252384776    -0.516512407676    15.994914619570
         O           -2.540527393698     0.838369615224    -0.689352407676    15.994914619570
         C            0.220088606302    -0.171708384776     0.555337592324    12.000000000000
         C            0.895971606302     0.999550615224     0.146147592324    12.000000000000
         C           -1.194780393698    -0.133809384776     1.050963592324    12.000000000000
         C            0.868791606302    -1.407414384776     0.411135592324    12.000000000000
         C            2.208533606302     0.899090615224    -0.330793407676    12.000000000000
         C            0.204408606302     2.337093615224     0.220936592324    12.000000000000
         C            2.172959606302    -1.495785384776    -0.076557407676    12.000000000000
         C            2.853491606302    -0.334543384776    -0.446619407676    12.000000000000
         C           -2.175361393698    -0.261171384776    -0.181663407676    12.000000000000
         H           -1.369547393698    -0.981111384776     1.722771592324     1.007825032230
         H           -1.398238393698     0.795983615224     1.591788592324     1.007825032230
         H            0.318781606302    -2.308419384776     0.676057592324     1.007825032230
         H            2.726962606302     1.807450615224    -0.640320407676     1.007825032230
         H           -0.806019393698     2.243605615224    -0.190712407676     1.007825032230
         H            0.116604606302     2.684676615224     1.258699592324     1.007825032230
         H            0.767653606302     3.092022615224    -0.338880407676     1.007825032230
         H            2.642496506302    -2.451211384776    -0.177126407676     1.007825032230
         H            3.873339606302    -0.386772384776    -0.825298407676     1.007825032230

  Basis Set: AUG-CC-PVTZ
    Blend: AUG-CC-PVTZ
  Basis Set: (AUG-CC-PVTZ AUX)
    Blend: AUG-CC-PVTZ-JKFIT
	 Reference Energy          =    -495.9973573338290862 [Eh]
	 Singles Energy            =      -0.0000000000000000 [Eh]
	 Same-Spin Energy          =      -0.5329823497366729 [Eh]
	 Opposite-Spin Energy      =      -1.6353703018031478 [Eh]
	 Correlation Energy        =      -2.1683526515398208 [Eh]
	 Total Energy              =    -498.1657099853688919 [Eh]

	 ================> DF-SCS-MP2 Energies <==================
	-----------------------------------------------------------
	 SCS Same-Spin Scale       =       0.3333333333333333 [-]
	 SCS Opposite-Spin Scale   =       1.2000000000000000 [-]
	 SCS Same-Spin Energy      =      -0.1776607832455576 [Eh]
	 SCS Opposite-Spin Energy  =      -1.9624443621637773 [Eh]
	 SCS Correlation Energy    =      -2.1401051454093349 [Eh]
	 SCS Total Energy          =    -498.1374624792384225 [Eh]
	-----------------------------------------------------------

  Dipole Moment: [D]
     X:     8.4918      Y:     1.3794      Z:     2.9681     Total:     9.1008

*** Psi4 exiting successfully. Buy a developer a beer!
