                               Psi4 1.4a3.dev225

  ==> Input File <==

--------------------------------------------------------------------------
#psi4
#
memory 32 gb

molecule  {
-1 1
  O       -2.4775990    -1.4732410    -0.5357720
  O       -2.5836320     0.8103810    -0.7086120
  C        0.1769840    -0.1996970     0.5360780
  C        0.8528670     0.9715620     0.1268880
  C       -1.2378850    -0.1617980     1.0317040
  C        0.8256870    -1.4354030     0.3918760
  C        2.1654290     0.8711020    -0.3500530
  C        0.1613040     2.3091050     0.2016770
  C        2.1298550    -1.5237740    -0.0958170
  C        2.8103870    -0.3625320    -0.4658790
  C       -2.2184660    -0.2891600    -0.2009230
  H       -1.4126520    -1.0091000     1.7035120
  H       -1.4227575     0.6830603     1.5231257
  H        0.2756770    -2.3364080     0.6567980
  H        2.6838580     1.7794620    -0.6595800
  H       -0.8491240     2.2156170    -0.2099720
  H        0.0735000     2.6566880     1.2394400
  H        0.7245490     3.0640340    -0.3581400
  H        2.6081740    -2.4970700    -0.1982670
  H        3.8302350    -0.4147610    -0.8445580
units angstrom
no_reorient  #important for SAPT in psi4, default
symmetry c1  #important for SAPT in psi4, default
}

set PROPERTIES_ORIGIN ["COM"]
properties('MP2/aug-cc-pvtz', properties = ['dipole'])
--------------------------------------------------------------------------

    Molecular point group: c1
  Charge       = -1
  Multiplicity = 1
  Basis Set: AUG-CC-PVTZ
    Blend: AUG-CC-PVTZ
  Basis Set: (AUG-CC-PVTZ AUX)
    Blend: AUG-CC-PVTZ-JKFIT

    Orbital Energies [Eh]
    ---------------------

    Doubly Occupied:

       1A    -20.309287     2A    -20.307995     3A    -11.156015
       4A    -11.118072     5A    -11.116886     6A    -11.115715
       7A    -11.114477     8A    -11.111946     9A    -11.106302
      10A    -11.092509    11A    -11.061117    12A     -1.178827
      13A     -1.082968    14A     -1.032043    15A     -0.927863
      16A     -0.908254    17A     -0.824434    18A     -0.791800
      19A     -0.689761    20A     -0.665859    21A     -0.562052
      22A     -0.537859    23A     -0.523422    24A     -0.500585
      25A     -0.463313    26A     -0.454523    27A     -0.439494
      28A     -0.431965    29A     -0.427199    30A     -0.412745
      31A     -0.387517    32A     -0.374764    33A     -0.364548
      34A     -0.353448    35A     -0.333761    36A     -0.234896
      37A     -0.225465    38A     -0.210990    39A     -0.206822
      40A     -0.175631

  @DF-RHF Final Energy:  -495.99170049380166

   => Energetics <=

    Nuclear Repulsion Energy =            572.5462756654551413
    One-Electron Energy =               -1824.4096918705147345
    Two-Electron Energy =                 755.8717157112579343
    Total Energy =                       -495.9917004938016589
  Basis Set: (AUG-CC-PVTZ AUX)
    Blend: AUG-CC-PVTZ-RI
    Molecular point group: c1

    Geometry (in Angstrom), charge = -1, multiplicity = 1:

       Center              X                  Y                   Z               Mass
    ------------   -----------------  -----------------  -----------------  -----------------
         O           -2.434679431302    -1.444557302439    -0.516165664666    15.994914619570
         O           -2.540712431302     0.839064697561    -0.689005664666    15.994914619570
         C            0.219903568698    -0.171013302439     0.555684335334    12.000000000000
         C            0.895786568698     1.000245697561     0.146494335334    12.000000000000
         C           -1.194965431302    -0.133114302439     1.051310335334    12.000000000000
         C            0.868606568698    -1.406719302439     0.411482335334    12.000000000000
         C            2.208348568698     0.899785697561    -0.330446664666    12.000000000000
         C            0.204223568698     2.337788697561     0.221283335334    12.000000000000
         C            2.172774568698    -1.495090302439    -0.076210664666    12.000000000000
         C            2.853306568698    -0.333848302439    -0.446272664666    12.000000000000
         C           -2.175546431302    -0.260476302439    -0.181316664666    12.000000000000
         H           -1.369732431302    -0.980416302439     1.723118335334     1.007825032230
         H           -1.379837931302     0.711743997561     1.542732035334     1.007825032230
         H            0.318596568698    -2.307724302439     0.676404335334     1.007825032230
         H            2.726777568698     1.808145697561    -0.639973664666     1.007825032230
         H           -0.806204431302     2.244300697561    -0.190365664666     1.007825032230
         H            0.116419568698     2.685371697561     1.259046335334     1.007825032230
         H            0.767468568698     3.092717697561    -0.338533664666     1.007825032230
         H            2.651093568698    -2.468386302439    -0.178660664666     1.007825032230
         H            3.873154568698    -0.386077302439    -0.824951664666     1.007825032230

  Basis Set: AUG-CC-PVTZ
    Blend: AUG-CC-PVTZ
  Basis Set: (AUG-CC-PVTZ AUX)
    Blend: AUG-CC-PVTZ-JKFIT
	 Reference Energy          =    -495.9917004938016589 [Eh]
	 Singles Energy            =      -0.0000000000000000 [Eh]
	 Same-Spin Energy          =      -0.5328649284061044 [Eh]
	 Opposite-Spin Energy      =      -1.6348834220202098 [Eh]
	 Correlation Energy        =      -2.1677483504263142 [Eh]
	 Total Energy              =    -498.1594488442279953 [Eh]

	 ================> DF-SCS-MP2 Energies <==================
	-----------------------------------------------------------
	 SCS Same-Spin Scale       =       0.3333333333333333 [-]
	 SCS Opposite-Spin Scale   =       1.2000000000000000 [-]
	 SCS Same-Spin Energy      =      -0.1776216428020348 [Eh]
	 SCS Opposite-Spin Energy  =      -1.9618601064242516 [Eh]
	 SCS Correlation Energy    =      -2.1394817492262863 [Eh]
	 SCS Total Energy          =    -498.1311822430279221 [Eh]
	-----------------------------------------------------------

  Dipole Moment: [D]
     X:     8.4636      Y:     1.4321      Z:     3.0214     Total:     9.1001

*** Psi4 exiting successfully. Buy a developer a beer!
